 Gaussian 16, Revision A.03,
 Gaussian 16:  ES64L-G16RevA.03 25-Dec-2016

 --------------------
 #p ZINDO=(nstates=5)
 --------------------

 -----------------------------
 step_1101_chromophore_2 ZINDO
 -----------------------------
 Symbolic Z-matrix:
 Charge =  0 Multiplicity = 1

                         Standard orientation:
 ---------------------------------------------------------------------
 Center     Atomic      Atomic             Coordinates (Angstroms)
 Number     Number       Type             X           Y           Z
 ---------------------------------------------------------------------
      1         12           0        4.766645    1.194475   -0.780790
      2          6           0        5.255324   -2.307639   -0.378299
      3          6           0        2.349052    0.508494   -3.090217
      4          6           0        3.675545    4.346170   -0.349742
      5          6           0        6.703672    1.591214    2.203615
      6          7           0        3.734573   -0.658980   -1.409371
      7          6           0        4.109645   -2.011863   -1.158674
      8          6           0        3.328513   -2.997193   -1.925290
      9          6           0        2.718862   -2.029747   -3.090087
     10          6           0        2.873812   -0.593926   -2.476268
     11          6           0        3.493518   -2.205667   -4.413994
     12          6           0        2.233153   -3.686922   -1.134047
     13          6           0        2.038006   -3.461007    0.347458
     14          6           0        0.906055   -4.278188    0.932858
     15          8           0        0.979796   -5.445434    1.340633
     16          8           0       -0.126649   -3.410116    1.157674
     17          7           0        3.325544    2.302790   -1.633158
     18          6           0        2.427832    1.836039   -2.602694
     19          6           0        1.657531    2.933445   -3.029863
     20          6           0        2.195279    4.098760   -2.414603
     21          6           0        3.093283    3.663727   -1.411738
     22          6           0        0.555829    2.905981   -4.039450
     23          6           0        1.592999    5.496104   -2.661783
     24          8           0        0.770238    5.747903   -3.550119
     25          6           0        1.992416    6.599955   -1.730680
     26          7           0        5.305424    2.884312    0.662087
     27          6           0        4.598205    4.020968    0.647627
     28          6           0        4.959329    4.946160    1.830832
     29          6           0        6.043398    4.017350    2.633245
     30          6           0        6.027213    2.724104    1.833931
     31          6           0        5.322842    6.390392    1.620006
     32          6           0        5.727778    3.833400    4.143990
     33          6           0        6.880526    3.762267    5.237363
     34          7           0        5.862136   -0.005102    0.625347
     35          6           0        6.659499    0.287540    1.735929
     36          6           0        7.347495   -0.894486    2.178184
     37          6           0        6.939527   -1.899011    1.319012
     38          6           0        6.008512   -1.345363    0.381781
     39          6           0        8.371757   -1.008816    3.307535
     40          6           0        7.101945   -3.310262    1.016590
     41          8           0        7.856486   -4.188551    1.469312
     42          6           0        6.041384   -3.627853   -0.156138
     43          6           0        6.844804   -3.958464   -1.418489
     44          8           0        7.570378   -4.931941   -1.388070
     45          8           0        6.578885   -3.227214   -2.555586
     46          6           0        7.413840   -3.711550   -3.708282
     47          6           0       -1.319637   -3.995377    1.834430
     48          6           0       -2.410880   -2.926868    1.711174
     49          6           0       -3.205076   -2.261920    2.610714
     50          6           0       -3.453137   -2.599045    4.013801
     51          6           0       -3.982123   -1.028502    2.043088
     52          6           0       -5.175696   -1.198999    1.047047
     53          6           0       -6.505396   -0.667437    1.711848
     54          6           0       -7.101839    0.476348    0.784008
     55          6           0       -6.765541    1.845455    1.410910
     56          6           0       -8.634332    0.379830    0.694660
     57          6           0       -8.989477   -0.463358   -0.610105
     58          6           0      -10.123633    0.197865   -1.452247
     59          6           0      -11.520997   -0.322345   -1.079765
     60          6           0      -12.313275   -0.730328   -2.357894
     61          6           0      -12.293016    0.790109   -0.290866
     62          6           0      -13.362262    0.149715    0.651840
     63          6           0      -14.699524    0.902644    0.419910
     64          6           0      -15.904802   -0.119157    0.432199
     65          6           0      -16.970658    0.315889   -0.620694
     66          6           0      -16.577329   -0.237691    1.789197
     67          1           0        1.623425    0.322622   -3.884688
     68          1           0        3.311402    5.345198   -0.102403
     69          1           0        7.339221    1.738411    3.079124
     70          1           0        3.932600   -3.808545   -2.333024
     71          1           0        1.651187   -2.215210   -3.208670
     72          1           0        4.451303   -2.716069   -4.312911
     73          1           0        3.617401   -1.255057   -4.933478
     74          1           0        2.796559   -2.664752   -5.114314
     75          1           0        2.475988   -4.742946   -1.021267
     76          1           0        1.211813   -3.622721   -1.510945
     77          1           0        2.093479   -2.436912    0.716527
     78          1           0        2.953244   -3.880179    0.764600
     79          1           0       -0.409218    3.184831   -3.617896
     80          1           0        0.416470    1.906794   -4.452300
     81          1           0        0.679469    3.653661   -4.822405
     82          1           0        3.070435    6.685392   -1.590080
     83          1           0        1.456947    6.452973   -0.792600
     84          1           0        1.699770    7.557476   -2.161290
     85          1           0        4.013531    4.984881    2.371552
     86          1           0        7.033822    4.378405    2.358573
     87          1           0        5.594011    6.621157    0.589966
     88          1           0        6.159191    6.691335    2.250962
     89          1           0        4.421115    6.972090    1.812365
     90          1           0        5.028326    3.000035    4.078323
     91          1           0        5.136307    4.664806    4.526353
     92          1           0        6.466844    4.144360    6.170845
     93          1           0        7.598075    4.481487    4.841848
     94          1           0        7.240349    2.735110    5.288251
     95          1           0        8.874022   -0.064272    3.517338
     96          1           0        9.157913   -1.741202    3.118887
     97          1           0        7.912048   -1.269836    4.260903
     98          1           0        5.396441   -4.465156    0.108913
     99          1           0        6.944109   -4.681212   -3.875253
    100          1           0        8.442683   -3.759104   -3.352255
    101          1           0        7.494793   -3.030234   -4.555537
    102          1           0       -1.216336   -4.123042    2.911324
    103          1           0       -1.730073   -4.868521    1.326583
    104          1           0       -2.437252   -2.422492    0.745350
    105          1           0       -2.700033   -3.191929    4.531648
    106          1           0       -4.432833   -3.070161    4.103112
    107          1           0       -3.486186   -1.630965    4.513213
    108          1           0       -3.125484   -0.419469    1.752615
    109          1           0       -4.401123   -0.474263    2.882647
    110          1           0       -5.401571   -2.207791    0.701514
    111          1           0       -4.809288   -0.589933    0.220299
    112          1           0       -6.417472   -0.225172    2.704126
    113          1           0       -7.190936   -1.509849    1.808021
    114          1           0       -6.654670    0.463414   -0.209919
    115          1           0       -5.795216    2.003419    0.939864
    116          1           0       -6.640206    2.036387    2.476729
    117          1           0       -7.473029    2.638181    1.167748
    118          1           0       -8.939122    1.415162    0.543823
    119          1           0       -9.108387   -0.162960    1.511948
    120          1           0       -9.250210   -1.497815   -0.384690
    121          1           0       -8.081929   -0.664144   -1.178988
    122          1           0       -9.908594    0.061300   -2.512181
    123          1           0      -10.081782    1.274268   -1.290376
    124          1           0      -11.316417   -1.230427   -0.513118
    125          1           0      -12.319232   -1.815843   -2.453661
    126          1           0      -11.738252   -0.362470   -3.208025
    127          1           0      -13.348305   -0.396570   -2.280935
    128          1           0      -12.658166    1.471145   -1.059624
    129          1           0      -11.644302    1.541422    0.160573
    130          1           0      -12.928596    0.164153    1.650789
    131          1           0      -13.659957   -0.819653    0.251228
    132          1           0      -14.886922    1.464997   -0.495416
    133          1           0      -14.901182    1.638491    1.198131
    134          1           0      -15.763380   -1.153991    0.121370
    135          1           0      -16.732389    0.713192   -1.608024
    136          1           0      -17.568113    1.105983   -0.166634
    137          1           0      -17.468430   -0.601687   -0.933194
    138          1           0      -17.210095   -1.124581    1.790768
    139          1           0      -17.073603    0.703915    2.026272
    140          1           0      -15.691069   -0.496988    2.368234
 ---------------------------------------------------------------------

 SCF Done:  E(RZINDO/S) =  -473.967906590     A.U. after   19 cycles

 Excitation energies and oscillator strengths:

 Excited State   1:      Singlet-A      1.2219 eV 1014.65 nm  f=0.5888  <S**2>=0.000
     175 ->178        -0.18786
     176 ->177         0.66410
 This state for optimization and/or second-order correction.
 Total Energy, E(CIS/TDA) =  -473.923000900
 Copying the excited state density for this state as the 1-particle RhoCI density.

 Excited State   2:      Singlet-A      1.9138 eV  647.83 nm  f=0.0536  <S**2>=0.000
     175 ->177         0.55545
     176 ->178         0.41360

 Excited State   3:      Singlet-A      2.9590 eV  419.01 nm  f=0.0063  <S**2>=0.000
     168 ->177         0.21978
     168 ->178         0.13919
     168 ->179         0.25798
     168 ->181         0.29541
     168 ->185         0.19442
     171 ->177        -0.21179
     172 ->177        -0.16267
     173 ->177         0.10110
     176 ->180        -0.16961

 Excited State   4:      Singlet-A      2.9698 eV  417.49 nm  f=0.3323  <S**2>=0.000
     169 ->179        -0.15998
     170 ->177         0.14118
     170 ->179        -0.16334
     170 ->181         0.11182
     175 ->177        -0.22180
     176 ->178         0.31433
     176 ->179        -0.10370
     176 ->180         0.40232

 Excited State   5:      Singlet-A      2.9900 eV  414.67 nm  f=0.0080  <S**2>=0.000
     169 ->177        -0.17544
     169 ->179         0.20801
     169 ->181        -0.15651
     170 ->177        -0.14216
     170 ->179         0.21467
     170 ->181        -0.13482
     176 ->179         0.11090
     176 ->180         0.43768

 The electronic state is 1-A.
 Alpha  occ. eigenvalues --   -1.82503  -1.81387  -1.78889  -1.72402  -1.71808
 Alpha  occ. eigenvalues --   -1.70026  -1.65160  -1.60956  -1.58626  -1.56656
 Alpha  occ. eigenvalues --   -1.55716  -1.52127  -1.49104  -1.46607  -1.46213
 Alpha  occ. eigenvalues --   -1.44025  -1.43859  -1.41411  -1.38550  -1.37989
 Alpha  occ. eigenvalues --   -1.36386  -1.33481  -1.32353  -1.31704  -1.29072
 Alpha  occ. eigenvalues --   -1.28321  -1.26268  -1.23939  -1.22550  -1.18043
 Alpha  occ. eigenvalues --   -1.16703  -1.15037  -1.14671  -1.13541  -1.12469
 Alpha  occ. eigenvalues --   -1.12191  -1.10190  -1.09292  -1.05755  -1.04383
 Alpha  occ. eigenvalues --   -1.02737  -1.01191  -0.99234  -0.98360  -0.97622
 Alpha  occ. eigenvalues --   -0.96957  -0.95599  -0.94396  -0.92661  -0.91870
 Alpha  occ. eigenvalues --   -0.90940  -0.90716  -0.90021  -0.88192  -0.87198
 Alpha  occ. eigenvalues --   -0.85415  -0.84764  -0.83563  -0.81963  -0.80345
 Alpha  occ. eigenvalues --   -0.79826  -0.79503  -0.77427  -0.76897  -0.76141
 Alpha  occ. eigenvalues --   -0.75899  -0.75760  -0.74714  -0.73568  -0.73291
 Alpha  occ. eigenvalues --   -0.72906  -0.72812  -0.72400  -0.71956  -0.71577
 Alpha  occ. eigenvalues --   -0.70901  -0.69502  -0.68998  -0.68154  -0.68025
 Alpha  occ. eigenvalues --   -0.67338  -0.67187  -0.66641  -0.66019  -0.65651
 Alpha  occ. eigenvalues --   -0.65273  -0.64977  -0.64711  -0.64595  -0.64405
 Alpha  occ. eigenvalues --   -0.63635  -0.62952  -0.62479  -0.62410  -0.61995
 Alpha  occ. eigenvalues --   -0.61701  -0.61428  -0.60704  -0.60566  -0.60039
 Alpha  occ. eigenvalues --   -0.59779  -0.59494  -0.59300  -0.59177  -0.58634
 Alpha  occ. eigenvalues --   -0.58568  -0.57874  -0.57379  -0.57346  -0.56893
 Alpha  occ. eigenvalues --   -0.56474  -0.56141  -0.55388  -0.55359  -0.55112
 Alpha  occ. eigenvalues --   -0.55003  -0.54490  -0.53861  -0.53168  -0.52763
 Alpha  occ. eigenvalues --   -0.52421  -0.52164  -0.51942  -0.51908  -0.51523
 Alpha  occ. eigenvalues --   -0.50834  -0.50824  -0.50510  -0.50068  -0.49980
 Alpha  occ. eigenvalues --   -0.49890  -0.49638  -0.49271  -0.49092  -0.48859
 Alpha  occ. eigenvalues --   -0.48324  -0.48034  -0.47965  -0.47709  -0.47691
 Alpha  occ. eigenvalues --   -0.47315  -0.47246  -0.47144  -0.47006  -0.46530
 Alpha  occ. eigenvalues --   -0.46100  -0.46015  -0.45930  -0.45821  -0.45512
 Alpha  occ. eigenvalues --   -0.45208  -0.45160  -0.44956  -0.44672  -0.44414
 Alpha  occ. eigenvalues --   -0.43870  -0.43043  -0.42850  -0.42589  -0.42233
 Alpha  occ. eigenvalues --   -0.42005  -0.41524  -0.40461  -0.39680  -0.39238
 Alpha  occ. eigenvalues --   -0.38188  -0.37488  -0.36001  -0.35449  -0.35049
 Alpha  occ. eigenvalues --   -0.33683  -0.33119  -0.32831  -0.31624  -0.27208
 Alpha  occ. eigenvalues --   -0.22369
 Alpha virt. eigenvalues --   -0.09223  -0.02575  -0.00782   0.00147   0.01056
 Alpha virt. eigenvalues --    0.01250   0.02238   0.02520   0.04403   0.04514
 Alpha virt. eigenvalues --    0.05622   0.06860   0.07083   0.07749   0.07882

 Mulliken charges:
               1
     1  Mg   0.437788
     2  C   -0.050828
     3  C   -0.074112
     4  C   -0.080102
     5  C   -0.048212
     6  N   -0.305173
     7  C    0.121178
     8  C    0.013973
     9  C   -0.004492
    10  C    0.146163
    11  C   -0.050793
    12  C   -0.020604
    13  C    0.004023
    14  C    0.470559
    15  O   -0.516831
    16  O   -0.260120
    17  N   -0.347883
    18  C    0.121080
    19  C    0.044304
    20  C   -0.047579
    21  C    0.142919
    22  C   -0.038704
    23  C    0.325022
    24  O   -0.522123
    25  C   -0.029282
    26  N   -0.276255
    27  C    0.149189
    28  C   -0.000557
    29  C   -0.000271
    30  C    0.110953
    31  C   -0.042602
    32  C   -0.039069
    33  C   -0.056768
    34  N   -0.332783
    35  C    0.092694
    36  C    0.031388
    37  C   -0.043638
    38  C    0.098897
    39  C   -0.038653
    40  C    0.329007
    41  O   -0.506844
    42  C    0.054413
    43  C    0.473850
    44  O   -0.496526
    45  O   -0.276798
    46  C    0.068565
    47  C    0.106233
    48  C   -0.113961
    49  C   -0.003337
    50  C   -0.035050
    51  C   -0.034584
    52  C   -0.028784
    53  C   -0.039009
    54  C   -0.013415
    55  C   -0.068721
    56  C   -0.042506
    57  C   -0.052393
    58  C   -0.037599
    59  C   -0.017030
    60  C   -0.062534
    61  C   -0.044077
    62  C   -0.036067
    63  C   -0.035537
    64  C   -0.026288
    65  C   -0.074573
    66  C   -0.060477
    67  H    0.032139
    68  H    0.017842
    69  H    0.015483
    70  H    0.037337
    71  H    0.030508
    72  H    0.037933
    73  H    0.018579
    74  H    0.017438
    75  H    0.025320
    76  H    0.026456
    77  H    0.041738
    78  H    0.024633
    79  H    0.035456
    80  H    0.015768
    81  H    0.046009
    82  H    0.033376
    83  H    0.044160
    84  H    0.030297
    85  H    0.027715
    86  H    0.036675
    87  H    0.020092
    88  H    0.026138
    89  H    0.019175
    90  H    0.025412
    91  H    0.009933
    92  H    0.027377
    93  H    0.024777
    94  H    0.032288
    95  H    0.016977
    96  H    0.037032
    97  H    0.031172
    98  H    0.069517
    99  H    0.052906
   100  H    0.047742
   101  H    0.038616
   102  H    0.054964
   103  H    0.058748
   104  H    0.016933
   105  H    0.024603
   106  H    0.033563
   107  H    0.021185
   108  H    0.027518
   109  H    0.010946
   110  H    0.030035
   111  H    0.025588
   112  H    0.029028
   113  H    0.016610
   114  H    0.033829
   115  H    0.008408
   116  H    0.023596
   117  H    0.014355
   118  H    0.028218
   119  H    0.030516
   120  H    0.013384
   121  H    0.013874
   122  H    0.013863
   123  H    0.016329
   124  H    0.024064
   125  H    0.012001
   126  H    0.026269
   127  H    0.024759
   128  H    0.015721
   129  H    0.017692
   130  H    0.037746
   131  H    0.031935
   132  H    0.030585
   133  H    0.014313
   134  H    0.024983
   135  H    0.013907
   136  H    0.018013
   137  H    0.012408
   138  H    0.018760
   139  H    0.032669
   140  H    0.015412
 Sum of Mulliken charges =  -0.00000

 Dipole moment (field-independent basis, Debye):
    X=             -3.2292    Y=              8.2727    Z=              0.2893  Tot=              8.8853
 N-N= 4.324624102564D+03 E-N= 0.000000000000D+00  KE=-9.322595094929D+03
 Leave Link  601 at Wed Apr 27 07:49:10 2022, MaxMem=  6710886400 cpu:               2.9 elap:               0.1
 (Enter /sw/apps/gaussian-16.0/g16/l9999.exe)
 1\1\GINC-BP1-COMPUTE196\SP\RZINDO CIS\STO-3G\C55H74Mg1N4O6\OF15641\27-
 Apr-2022\0\\#p ZINDO=(nstates=5)\\step_1101_chromophore_2 ZINDO\\0,1\M
 g,0,3.521,0.632,44.163\C,0,6.399,2.692,43.79\C,0,1.659,3.119,42.75\C,0
 ,1.141,-1.677,43.603\C,0,5.793,-2.054,44.826\N,0,4.027,2.521,43.128\C,
 0,5.27,3.22,43.115\C,0,5.189,4.566,42.523\C,0,3.578,4.815,42.607\C,0,3
 .003,3.365,42.778\C,0,3.225,5.746,43.787\C,0,5.701,4.66,41.098\C,0,6.3
 45,3.491,40.389\C,0,6.809,3.824,38.987\O,0,7.895,4.332,38.676\O,0,5.92

 Normal termination of Gaussian 16 at Wed Apr 27 07:49:11 2022.
