 Gaussian 16, Revision A.03,
 Gaussian 16:  ES64L-G16RevA.03 25-Dec-2016

 ------------------------------
 #p blyp/Def2SVP td=(nstates=5)
 ------------------------------

 ---------------------------------------------------
 step_1051_chromophore_24 TDDFT with blyp functional
 ---------------------------------------------------
 Symbolic Z-matrix:
 Charge =  0 Multiplicity = 1

                         Standard orientation:
 ---------------------------------------------------------------------
 Center     Atomic      Atomic             Coordinates (Angstroms)
 Number     Number       Type             X           Y           Z
 ---------------------------------------------------------------------
      1         12           0        4.522983    1.221586    0.086734
      2          6           0        4.051798   -2.302180   -0.068930
      3          6           0        1.221004    1.596700   -0.090669
      4          6           0        5.257279    4.315631   -0.019628
      5          6           0        7.920445    0.350044    0.084303
      6          7           0        2.818944   -0.263219   -0.263824
      7          6           0        2.884691   -1.573602   -0.028943
      8          6           0        1.451291   -2.109557    0.163249
      9          6           0        0.522083   -0.829355    0.026019
     10          6           0        1.564807    0.271402   -0.122354
     11          6           0       -0.430930   -0.767433   -1.168139
     12          6           0        1.326767   -2.751969    1.514977
     13          6           0        0.551339   -4.058622    1.615634
     14          6           0       -0.364483   -4.475853    0.464220
     15          8           0       -0.166853   -5.425241   -0.254945
     16          8           0       -1.492751   -3.705625    0.514916
     17          7           0        3.361760    2.772574   -0.014170
     18          6           0        2.017221    2.731705   -0.127185
     19          6           0        1.532812    4.078126   -0.197171
     20          6           0        2.723130    4.996873   -0.133616
     21          6           0        3.885067    4.036598   -0.110549
     22          6           0        0.059688    4.389885   -0.039657
     23          6           0        2.821375    6.529910   -0.016166
     24          8           0        3.872131    7.168125   -0.044971
     25          6           0        1.567023    7.220597    0.112329
     26          7           0        6.311358    2.170165   -0.141066
     27          6           0        6.362462    3.507313   -0.011857
     28          6           0        7.805732    4.038193    0.068084
     29          6           0        8.581082    2.764879   -0.061412
     30          6           0        7.558912    1.672738   -0.017926
     31          6           0        8.208510    5.177447   -0.931326
     32          6           0        9.620933    2.513932    1.090103
     33          6           0       10.954270    1.990880    0.587041
     34          7           0        5.833300   -0.581029    0.219650
     35          6           0        7.185843   -0.828395    0.237451
     36          6           0        7.537682   -2.212686    0.273848
     37          6           0        6.294432   -2.870929    0.146656
     38          6           0        5.339615   -1.802918    0.117910
     39          6           0        8.976509   -2.719262    0.529698
     40          6           0        5.681540   -4.160615    0.125676
     41          8           0        6.156285   -5.288399    0.157737
     42          6           0        4.152722   -3.825585    0.092956
     43          6           0        3.510139   -4.585479   -1.079032
     44          8           0        3.225324   -4.115131   -2.170653
     45          8           0        3.293145   -5.936174   -0.738750
     46          6           0        2.403405   -6.728379   -1.647173
     47          6           0       -2.412668   -3.808302   -0.644289
     48          6           0       -3.576284   -2.928113   -0.341734
     49          6           0       -4.631342   -2.646770   -1.119826
     50          6           0       -4.894402   -3.225616   -2.453783
     51          6           0       -5.764398   -1.708788   -0.569337
     52          6           0       -7.209074   -2.251151   -0.317768
     53          6           0       -7.431968   -2.644154    1.123942
     54          6           0       -8.713857   -2.017954    1.770122
     55          6           0       -9.180276   -2.904179    2.922209
     56          6           0       -8.378754   -0.633257    2.385787
     57          6           0       -9.551952    0.383189    2.177888
     58          6           0       -8.995445    1.853345    1.918641
     59          6           0       -8.661235    2.251644    0.509420
     60          6           0       -7.232310    2.920578    0.483748
     61          6           0       -9.722462    3.243983   -0.190238
     62          6           0      -10.452711    2.541452   -1.338159
     63          6           0      -11.921041    3.164559   -1.475009
     64          6           0      -12.985224    2.030193   -1.354902
     65          6           0      -14.089406    2.165806   -2.408139
     66          6           0      -13.515685    1.917929    0.115267
     67          1           0        0.156666    1.833464   -0.018187
     68          1           0        5.414231    5.393880    0.050681
     69          1           0        9.006695    0.238234    0.093480
     70          1           0        1.226459   -2.834933   -0.619513
     71          1           0       -0.014251   -0.564780    0.937776
     72          1           0       -0.372880    0.107570   -1.815810
     73          1           0       -1.374753   -0.720493   -0.625679
     74          1           0       -0.299877   -1.694263   -1.725531
     75          1           0        0.712598   -2.102341    2.139688
     76          1           0        2.289198   -2.910301    2.000030
     77          1           0       -0.045134   -4.025860    2.527770
     78          1           0        1.287422   -4.845623    1.778506
     79          1           0       -0.183165    4.127981    0.990203
     80          1           0       -0.530160    3.725126   -0.670906
     81          1           0       -0.253179    5.407168   -0.272206
     82          1           0        0.928571    7.127210   -0.766533
     83          1           0        1.765094    8.268951    0.333368
     84          1           0        1.134443    6.970928    1.081798
     85          1           0        7.818052    4.440457    1.081305
     86          1           0        9.095219    2.664852   -1.018033
     87          1           0        7.411990    5.328151   -1.659398
     88          1           0        9.080781    4.809657   -1.471659
     89          1           0        8.405736    6.123966   -0.429345
     90          1           0        9.095052    1.884327    1.808225
     91          1           0        9.933476    3.457989    1.535272
     92          1           0       11.742319    2.711074    0.809540
     93          1           0       10.971172    1.813426   -0.489082
     94          1           0       11.170601    1.018602    1.028114
     95          1           0        9.338458   -2.921291   -0.478720
     96          1           0        8.989572   -3.553643    1.231348
     97          1           0        9.611751   -1.937442    0.947485
     98          1           0        3.663924   -4.077357    1.034512
     99          1           0        2.854624   -6.846943   -2.632023
    100          1           0        1.500594   -6.170262   -1.895221
    101          1           0        2.117891   -7.669186   -1.176056
    102          1           0       -2.657151   -4.865168   -0.749424
    103          1           0       -1.786001   -3.520953   -1.488595
    104          1           0       -3.412272   -2.361639    0.575285
    105          1           0       -5.672666   -3.982731   -2.360380
    106          1           0       -3.999204   -3.737437   -2.807387
    107          1           0       -4.919542   -2.421979   -3.189842
    108          1           0       -5.951738   -0.956397   -1.334975
    109          1           0       -5.439907   -1.151703    0.310705
    110          1           0       -7.464374   -3.167391   -0.849874
    111          1           0       -7.895439   -1.447173   -0.584779
    112          1           0       -6.498409   -2.386639    1.624776
    113          1           0       -7.389370   -3.732482    1.078601
    114          1           0       -9.482065   -1.947174    1.000151
    115          1           0      -10.136834   -3.270770    2.552159
    116          1           0       -9.316875   -2.254311    3.786578
    117          1           0       -8.436078   -3.679272    3.110188
    118          1           0       -7.536634   -0.289075    1.783885
    119          1           0       -8.056897   -0.671897    3.426445
    120          1           0      -10.232857    0.522244    3.017187
    121          1           0      -10.079212    0.162734    1.249236
    122          1           0       -8.062806    1.934848    2.477725
    123          1           0       -9.495470    2.706117    2.376890
    124          1           0       -8.501074    1.351619   -0.084114
    125          1           0       -7.030223    3.573192   -0.367194
    126          1           0       -6.511415    2.104951    0.445205
    127          1           0       -7.216127    3.624728    1.315252
    128          1           0       -9.175248    4.051390   -0.676966
    129          1           0      -10.439981    3.578421    0.559619
    130          1           0      -10.490040    1.468910   -1.146969
    131          1           0       -9.940582    2.732810   -2.281383
    132          1           0      -11.996922    3.603566   -2.470684
    133          1           0      -12.026725    3.922752   -0.699415
    134          1           0      -12.521092    1.084919   -1.635080
    135          1           0      -14.202839    3.223314   -2.646793
    136          1           0      -14.981393    1.761455   -1.929983
    137          1           0      -13.936156    1.596152   -3.325057
    138          1           0      -13.170603    2.785282    0.678666
    139          1           0      -13.136506    1.025882    0.612309
    140          1           0      -14.596242    1.815134    0.217630
 ---------------------------------------------------------------------

 SCF Done:  E(RB-LYP) =  -3007.34622524     A.U. after   22 cycles

 Excitation energies and oscillator strengths:

 Excited State   1:      Singlet-A      1.8273 eV  678.51 nm  f=0.3348  <S**2>=0.000
     245 -> 248       -0.14198
     245 -> 249        0.12833
     246 -> 247        0.68704
     246 <- 247       -0.15478
 This state for optimization and/or second-order correction.
 Total Energy, E(TD-HF/TD-DFT) =  -3007.27907288
 Copying the excited state density for this state as the 1-particle RhoCI density.

 Excited State   2:      Singlet-A      1.9594 eV  632.78 nm  f=0.0513  <S**2>=0.000
     243 -> 247       -0.16335
     244 -> 247        0.40835
     245 -> 247        0.52203
     246 -> 248        0.12501
     246 -> 249       -0.10017

 Excited State   3:      Singlet-A      1.9651 eV  630.94 nm  f=0.0305  <S**2>=0.000
     243 -> 247        0.10874
     244 -> 247        0.57173
     245 -> 247       -0.36688

 Excited State   4:      Singlet-A      2.0223 eV  613.08 nm  f=0.0089  <S**2>=0.000
     243 -> 247        0.67610
     245 -> 247        0.18121

 Excited State   5:      Singlet-A      2.4874 eV  498.45 nm  f=0.0082  <S**2>=0.000
     242 -> 247        0.69120

 The electronic state is 1-A.
 Alpha  occ. eigenvalues --  -46.26643 -18.82650 -18.80114 -18.77827 -18.76295
 Alpha  occ. eigenvalues --  -18.75647 -18.75559 -14.02825 -14.02690 -14.00731
 Alpha  occ. eigenvalues --  -14.00433 -10.04594 -10.03258  -9.99703  -9.99401
 Alpha  occ. eigenvalues --   -9.98622  -9.96125  -9.95956  -9.95933  -9.95804
 Alpha  occ. eigenvalues --   -9.95734  -9.95686  -9.95124  -9.95009  -9.94225
 Alpha  occ. eigenvalues --   -9.94110  -9.94059  -9.93928  -9.93847  -9.93783
 Alpha  occ. eigenvalues --   -9.93697  -9.93412  -9.93246  -9.93074  -9.93043
 Alpha  occ. eigenvalues --   -9.93011  -9.92937  -9.92923  -9.92911  -9.92758
 Alpha  occ. eigenvalues --   -9.92659  -9.92457  -9.92422  -9.92373  -9.92264
 Alpha  occ. eigenvalues --   -9.92232  -9.92229  -9.92180  -9.91970  -9.91963
 Alpha  occ. eigenvalues --   -9.91959  -9.91954  -9.91783  -9.91772  -9.91553
 Alpha  occ. eigenvalues --   -9.91418  -9.91285  -9.91233  -9.91210  -9.91156
 Alpha  occ. eigenvalues --   -9.91088  -9.91075  -9.90985  -9.90959  -9.90682
 Alpha  occ. eigenvalues --   -9.90598  -2.91501  -1.71900  -1.71394  -1.71230
 Alpha  occ. eigenvalues --   -0.98584  -0.94997  -0.91305  -0.91272  -0.90947
 Alpha  occ. eigenvalues --   -0.87855  -0.87520  -0.86731  -0.86099  -0.85055
 Alpha  occ. eigenvalues --   -0.75646  -0.74314  -0.73565  -0.73184  -0.73080
 Alpha  occ. eigenvalues --   -0.72312  -0.72249  -0.71448  -0.70958  -0.70316
 Alpha  occ. eigenvalues --   -0.69749  -0.69417  -0.68655  -0.67542  -0.67171
 Alpha  occ. eigenvalues --   -0.66702  -0.66621  -0.66062  -0.64942  -0.64325
 Alpha  occ. eigenvalues --   -0.63939  -0.62879  -0.62261  -0.61482  -0.61048
 Alpha  occ. eigenvalues --   -0.60433  -0.60232  -0.59807  -0.59303  -0.58686
 Alpha  occ. eigenvalues --   -0.58601  -0.58192  -0.56948  -0.55495  -0.54488
 Alpha  occ. eigenvalues --   -0.54354  -0.54021  -0.52973  -0.51960  -0.51783
 Alpha  occ. eigenvalues --   -0.51666  -0.51204  -0.51003  -0.50393  -0.50317
 Alpha  occ. eigenvalues --   -0.50219  -0.49777  -0.48637  -0.47538  -0.47070
 Alpha  occ. eigenvalues --   -0.46620  -0.45977  -0.45774  -0.45073  -0.44765
 Alpha  occ. eigenvalues --   -0.43919  -0.43356  -0.43197  -0.42880  -0.42335
 Alpha  occ. eigenvalues --   -0.41918  -0.41731  -0.41663  -0.41459  -0.41327
 Alpha  occ. eigenvalues --   -0.41141  -0.40807  -0.40673  -0.40624  -0.40359
 Alpha  occ. eigenvalues --   -0.39890  -0.39819  -0.39672  -0.39542  -0.39274
 Alpha  occ. eigenvalues --   -0.39100  -0.39006  -0.38727  -0.38681  -0.38539
 Alpha  occ. eigenvalues --   -0.38265  -0.38189  -0.37772  -0.37742  -0.37689
 Alpha  occ. eigenvalues --   -0.37134  -0.37080  -0.36974  -0.36778  -0.36624
 Alpha  occ. eigenvalues --   -0.36485  -0.36369  -0.36171  -0.35983  -0.35938
 Alpha  occ. eigenvalues --   -0.35552  -0.35168  -0.35059  -0.34956  -0.34865
 Alpha  occ. eigenvalues --   -0.34655  -0.34400  -0.34290  -0.33977  -0.33873
 Alpha  occ. eigenvalues --   -0.33662  -0.33596  -0.33240  -0.33196  -0.33099
 Alpha  occ. eigenvalues --   -0.32833  -0.32800  -0.32709  -0.32561  -0.32399
 Alpha  occ. eigenvalues --   -0.32094  -0.31860  -0.31622  -0.31491  -0.31445
 Alpha  occ. eigenvalues --   -0.31106  -0.31045  -0.30969  -0.30798  -0.30747
 Alpha  occ. eigenvalues --   -0.30687  -0.30474  -0.30345  -0.30227  -0.29923
 Alpha  occ. eigenvalues --   -0.29770  -0.29655  -0.29247  -0.29075  -0.28940
 Alpha  occ. eigenvalues --   -0.28405  -0.28328  -0.28265  -0.28225  -0.27922
 Alpha  occ. eigenvalues --   -0.27730  -0.27663  -0.27470  -0.26935  -0.26755
 Alpha  occ. eigenvalues --   -0.26548  -0.26276  -0.26199  -0.25911  -0.25381
 Alpha  occ. eigenvalues --   -0.25138  -0.24709  -0.23918  -0.23327  -0.23210
 Alpha  occ. eigenvalues --   -0.23134  -0.22515  -0.22056  -0.21214  -0.21187
 Alpha  occ. eigenvalues --   -0.20832  -0.20058  -0.18868  -0.18620  -0.17116
 Alpha  occ. eigenvalues --   -0.15797
 Alpha virt. eigenvalues --   -0.11552  -0.06527  -0.06148  -0.04578  -0.03719
 Alpha virt. eigenvalues --   -0.02398  -0.02042  -0.01819  -0.00934   0.00461
 Alpha virt. eigenvalues --    0.01204   0.01695   0.01925   0.02164   0.02535

 Mulliken charges:
               1
     1  Mg   0.698089
     2  C    0.007823
     3  C   -0.071354
     4  C   -0.048259
     5  C   -0.080395
     6  N   -0.186112
     7  C   -0.083907
     8  C    0.028691
     9  C   -0.014575
    10  C    0.006441
    11  C    0.134948
    12  C    0.119753
    13  C    0.140876
    14  C    0.056099
    15  O   -0.165261
    16  O   -0.297219
    17  N   -0.362344
    18  C    0.169380
    19  C   -0.157038
    20  C   -0.005646
    21  C    0.097528
    22  C    0.164497
    23  C   -0.072478
    24  O   -0.160626
    25  C    0.153090
    26  N   -0.229868
    27  C    0.015663
    28  C    0.072023
    29  C    0.032435
    30  C    0.017021
    31  C    0.145933
    32  C    0.071501
    33  C    0.072263
    34  N   -0.189156
    35  C    0.108764
    36  C   -0.175034
    37  C    0.056107
    38  C    0.092696
    39  C    0.177817
    40  C   -0.036063
    41  O   -0.113595
    42  C   -0.009460
    43  C    0.137975
    44  O   -0.184176
    45  O   -0.296443
    46  C    0.235840
    47  C    0.301901
    48  C   -0.092169
    49  C   -0.151521
    50  C    0.179446
    51  C    0.121866
    52  C    0.054553
    53  C    0.087136
    54  C   -0.105655
    55  C    0.148172
    56  C    0.105061
    57  C    0.099326
    58  C    0.095697
    59  C   -0.105348
    60  C    0.074380
    61  C    0.128256
    62  C    0.035057
    63  C    0.099255
    64  C   -0.100811
    65  C    0.105055
    66  C    0.097353
    67  H   -0.075938
    68  H   -0.053284
    69  H   -0.100121
    70  H    0.009820
    71  H   -0.020414
    72  H    0.003708
    73  H   -0.007381
    74  H    0.000988
    75  H   -0.032853
    76  H   -0.008843
    77  H   -0.011386
    78  H   -0.010571
    79  H    0.006786
    80  H   -0.003450
    81  H   -0.014135
    82  H    0.035939
    83  H   -0.028932
    84  H    0.002775
    85  H   -0.025258
    86  H   -0.015811
    87  H    0.001202
    88  H   -0.015788
    89  H    0.000267
    90  H   -0.007430
    91  H   -0.022484
    92  H   -0.008177
    93  H   -0.011384
    94  H   -0.004360
    95  H    0.012161
    96  H    0.020360
    97  H   -0.012771
    98  H    0.011018
    99  H   -0.001493
   100  H    0.008289
   101  H    0.018446
   102  H    0.008805
   103  H    0.005897
   104  H   -0.023694
   105  H    0.021581
   106  H   -0.033640
   107  H    0.001286
   108  H   -0.039775
   109  H   -0.028221
   110  H   -0.025512
   111  H   -0.023950
   112  H   -0.041000
   113  H   -0.042121
   114  H   -0.029982
   115  H   -0.018051
   116  H   -0.020651
   117  H   -0.008659
   118  H   -0.035166
   119  H   -0.018307
   120  H   -0.021573
   121  H   -0.021518
   122  H   -0.052784
   123  H   -0.051193
   124  H   -0.038232
   125  H   -0.028878
   126  H   -0.009034
   127  H   -0.013982
   128  H   -0.033100
   129  H   -0.024779
   130  H   -0.016230
   131  H   -0.029474
   132  H   -0.037786
   133  H   -0.021635
   134  H   -0.034912
   135  H   -0.013498
   136  H   -0.028147
   137  H   -0.013758
   138  H   -0.015926
   139  H   -0.014666
   140  H   -0.018484
 Sum of Mulliken charges =  -0.00000

 Dipole moment (field-independent basis, Debye):
    X=             -4.2532    Y=              2.8954    Z=              2.0593  Tot=              5.5420
 Quadrupole moment (field-independent basis, Debye-Ang):
   XX=           -381.6873   YY=           -449.1874   ZZ=           -403.2445
   XY=             25.5144   XZ=             13.9394   YZ=              1.3889

 Normal termination of Gaussian 16 at Wed Apr 27 04:13:14 2022.
