 Gaussian 16, Revision A.03,
 Gaussian 16:  ES64L-G16RevA.03 25-Dec-2016

 -----------------------------------
 #p cam-b3lyp/Def2SVP td=(nstates=5)
 -----------------------------------

 --------------------------------------------------------
 step_1051_chromophore_24 TDDFT with cam-b3lyp functional
 --------------------------------------------------------
 Symbolic Z-matrix:
 Charge =  0 Multiplicity = 1

                         Standard orientation:
 ---------------------------------------------------------------------
 Center     Atomic      Atomic             Coordinates (Angstroms)
 Number     Number       Type             X           Y           Z
 ---------------------------------------------------------------------
      1         12           0        4.522983    1.221586    0.086734
      2          6           0        4.051798   -2.302180   -0.068930
      3          6           0        1.221004    1.596700   -0.090669
      4          6           0        5.257279    4.315631   -0.019628
      5          6           0        7.920445    0.350044    0.084303
      6          7           0        2.818944   -0.263219   -0.263824
      7          6           0        2.884691   -1.573602   -0.028943
      8          6           0        1.451291   -2.109557    0.163249
      9          6           0        0.522083   -0.829355    0.026019
     10          6           0        1.564807    0.271402   -0.122354
     11          6           0       -0.430930   -0.767433   -1.168139
     12          6           0        1.326767   -2.751969    1.514977
     13          6           0        0.551339   -4.058622    1.615634
     14          6           0       -0.364483   -4.475853    0.464220
     15          8           0       -0.166853   -5.425241   -0.254945
     16          8           0       -1.492751   -3.705625    0.514916
     17          7           0        3.361760    2.772574   -0.014170
     18          6           0        2.017221    2.731705   -0.127185
     19          6           0        1.532812    4.078126   -0.197171
     20          6           0        2.723130    4.996873   -0.133616
     21          6           0        3.885067    4.036598   -0.110549
     22          6           0        0.059688    4.389885   -0.039657
     23          6           0        2.821375    6.529910   -0.016166
     24          8           0        3.872131    7.168125   -0.044971
     25          6           0        1.567023    7.220597    0.112329
     26          7           0        6.311358    2.170165   -0.141066
     27          6           0        6.362462    3.507313   -0.011857
     28          6           0        7.805732    4.038193    0.068084
     29          6           0        8.581082    2.764879   -0.061412
     30          6           0        7.558912    1.672738   -0.017926
     31          6           0        8.208510    5.177447   -0.931326
     32          6           0        9.620933    2.513932    1.090103
     33          6           0       10.954270    1.990880    0.587041
     34          7           0        5.833300   -0.581029    0.219650
     35          6           0        7.185843   -0.828395    0.237451
     36          6           0        7.537682   -2.212686    0.273848
     37          6           0        6.294432   -2.870929    0.146656
     38          6           0        5.339615   -1.802918    0.117910
     39          6           0        8.976509   -2.719262    0.529698
     40          6           0        5.681540   -4.160615    0.125676
     41          8           0        6.156285   -5.288399    0.157737
     42          6           0        4.152722   -3.825585    0.092956
     43          6           0        3.510139   -4.585479   -1.079032
     44          8           0        3.225324   -4.115131   -2.170653
     45          8           0        3.293145   -5.936174   -0.738750
     46          6           0        2.403405   -6.728379   -1.647173
     47          6           0       -2.412668   -3.808302   -0.644289
     48          6           0       -3.576284   -2.928113   -0.341734
     49          6           0       -4.631342   -2.646770   -1.119826
     50          6           0       -4.894402   -3.225616   -2.453783
     51          6           0       -5.764398   -1.708788   -0.569337
     52          6           0       -7.209074   -2.251151   -0.317768
     53          6           0       -7.431968   -2.644154    1.123942
     54          6           0       -8.713857   -2.017954    1.770122
     55          6           0       -9.180276   -2.904179    2.922209
     56          6           0       -8.378754   -0.633257    2.385787
     57          6           0       -9.551952    0.383189    2.177888
     58          6           0       -8.995445    1.853345    1.918641
     59          6           0       -8.661235    2.251644    0.509420
     60          6           0       -7.232310    2.920578    0.483748
     61          6           0       -9.722462    3.243983   -0.190238
     62          6           0      -10.452711    2.541452   -1.338159
     63          6           0      -11.921041    3.164559   -1.475009
     64          6           0      -12.985224    2.030193   -1.354902
     65          6           0      -14.089406    2.165806   -2.408139
     66          6           0      -13.515685    1.917929    0.115267
     67          1           0        0.156666    1.833464   -0.018187
     68          1           0        5.414231    5.393880    0.050681
     69          1           0        9.006695    0.238234    0.093480
     70          1           0        1.226459   -2.834933   -0.619513
     71          1           0       -0.014251   -0.564780    0.937776
     72          1           0       -0.372880    0.107570   -1.815810
     73          1           0       -1.374753   -0.720493   -0.625679
     74          1           0       -0.299877   -1.694263   -1.725531
     75          1           0        0.712598   -2.102341    2.139688
     76          1           0        2.289198   -2.910301    2.000030
     77          1           0       -0.045134   -4.025860    2.527770
     78          1           0        1.287422   -4.845623    1.778506
     79          1           0       -0.183165    4.127981    0.990203
     80          1           0       -0.530160    3.725126   -0.670906
     81          1           0       -0.253179    5.407168   -0.272206
     82          1           0        0.928571    7.127210   -0.766533
     83          1           0        1.765094    8.268951    0.333368
     84          1           0        1.134443    6.970928    1.081798
     85          1           0        7.818052    4.440457    1.081305
     86          1           0        9.095219    2.664852   -1.018033
     87          1           0        7.411990    5.328151   -1.659398
     88          1           0        9.080781    4.809657   -1.471659
     89          1           0        8.405736    6.123966   -0.429345
     90          1           0        9.095052    1.884327    1.808225
     91          1           0        9.933476    3.457989    1.535272
     92          1           0       11.742319    2.711074    0.809540
     93          1           0       10.971172    1.813426   -0.489082
     94          1           0       11.170601    1.018602    1.028114
     95          1           0        9.338458   -2.921291   -0.478720
     96          1           0        8.989572   -3.553643    1.231348
     97          1           0        9.611751   -1.937442    0.947485
     98          1           0        3.663924   -4.077357    1.034512
     99          1           0        2.854624   -6.846943   -2.632023
    100          1           0        1.500594   -6.170262   -1.895221
    101          1           0        2.117891   -7.669186   -1.176056
    102          1           0       -2.657151   -4.865168   -0.749424
    103          1           0       -1.786001   -3.520953   -1.488595
    104          1           0       -3.412272   -2.361639    0.575285
    105          1           0       -5.672666   -3.982731   -2.360380
    106          1           0       -3.999204   -3.737437   -2.807387
    107          1           0       -4.919542   -2.421979   -3.189842
    108          1           0       -5.951738   -0.956397   -1.334975
    109          1           0       -5.439907   -1.151703    0.310705
    110          1           0       -7.464374   -3.167391   -0.849874
    111          1           0       -7.895439   -1.447173   -0.584779
    112          1           0       -6.498409   -2.386639    1.624776
    113          1           0       -7.389370   -3.732482    1.078601
    114          1           0       -9.482065   -1.947174    1.000151
    115          1           0      -10.136834   -3.270770    2.552159
    116          1           0       -9.316875   -2.254311    3.786578
    117          1           0       -8.436078   -3.679272    3.110188
    118          1           0       -7.536634   -0.289075    1.783885
    119          1           0       -8.056897   -0.671897    3.426445
    120          1           0      -10.232857    0.522244    3.017187
    121          1           0      -10.079212    0.162734    1.249236
    122          1           0       -8.062806    1.934848    2.477725
    123          1           0       -9.495470    2.706117    2.376890
    124          1           0       -8.501074    1.351619   -0.084114
    125          1           0       -7.030223    3.573192   -0.367194
    126          1           0       -6.511415    2.104951    0.445205
    127          1           0       -7.216127    3.624728    1.315252
    128          1           0       -9.175248    4.051390   -0.676966
    129          1           0      -10.439981    3.578421    0.559619
    130          1           0      -10.490040    1.468910   -1.146969
    131          1           0       -9.940582    2.732810   -2.281383
    132          1           0      -11.996922    3.603566   -2.470684
    133          1           0      -12.026725    3.922752   -0.699415
    134          1           0      -12.521092    1.084919   -1.635080
    135          1           0      -14.202839    3.223314   -2.646793
    136          1           0      -14.981393    1.761455   -1.929983
    137          1           0      -13.936156    1.596152   -3.325057
    138          1           0      -13.170603    2.785282    0.678666
    139          1           0      -13.136506    1.025882    0.612309
    140          1           0      -14.596242    1.815134    0.217630
 ---------------------------------------------------------------------

 SCF Done:  E(RCAM-B3LYP) =  -3007.15109703     A.U. after   18 cycles

 Excitation energies and oscillator strengths:

 Excited State   1:      Singlet-A      1.7183 eV  721.56 nm  f=0.4245  <S**2>=0.000
     245 -> 248        0.17681
     246 -> 247        0.68655
     245 <- 248        0.10652
 This state for optimization and/or second-order correction.
 Total Energy, E(TD-HF/TD-DFT) =  -3007.08795113
 Copying the excited state density for this state as the 1-particle RhoCI density.

 Excited State   2:      Singlet-A      2.1974 eV  564.23 nm  f=0.1339  <S**2>=0.000
     245 -> 247        0.65433
     246 -> 248       -0.25324

 Excited State   3:      Singlet-A      3.3629 eV  368.68 nm  f=0.0041  <S**2>=0.000
     241 -> 247        0.16243
     243 -> 247       -0.20934
     244 -> 247        0.62597

 Excited State   4:      Singlet-A      3.3989 eV  364.77 nm  f=0.0016  <S**2>=0.000
     241 -> 247        0.52216
     241 -> 249        0.27241
     241 -> 250       -0.17705
     243 -> 247       -0.14677
     244 -> 247       -0.24841

 Excited State   5:      Singlet-A      3.5013 eV  354.10 nm  f=0.1080  <S**2>=0.000
     241 -> 247        0.18766
     243 -> 247        0.50051
     245 -> 247        0.10517
     246 -> 248        0.42301

 The electronic state is 1-A.
 Alpha  occ. eigenvalues --  -46.88165 -19.25563 -19.23012 -19.20890 -19.19505
 Alpha  occ. eigenvalues --  -19.18959 -19.18782 -14.41671 -14.41512 -14.39098
 Alpha  occ. eigenvalues --  -14.38924 -10.39914 -10.38901 -10.34915 -10.34838
 Alpha  occ. eigenvalues --  -10.32755 -10.30677 -10.30281 -10.30261 -10.30115
 Alpha  occ. eigenvalues --  -10.30075 -10.29730 -10.29359 -10.29223 -10.28789
 Alpha  occ. eigenvalues --  -10.28677 -10.28651 -10.28482 -10.27968 -10.27959
 Alpha  occ. eigenvalues --  -10.27648 -10.27609 -10.27232 -10.27020 -10.26979
 Alpha  occ. eigenvalues --  -10.26927 -10.26913 -10.26817 -10.26757 -10.26572
 Alpha  occ. eigenvalues --  -10.26565 -10.26469 -10.26464 -10.26087 -10.25990
 Alpha  occ. eigenvalues --  -10.25897 -10.25884 -10.25858 -10.25846 -10.25761
 Alpha  occ. eigenvalues --  -10.25676 -10.25649 -10.25645 -10.25601 -10.25484
 Alpha  occ. eigenvalues --  -10.25420 -10.25358 -10.24964 -10.24926 -10.24855
 Alpha  occ. eigenvalues --  -10.24754 -10.24690 -10.24650 -10.24639 -10.24230
 Alpha  occ. eigenvalues --  -10.24181  -3.16937  -1.91808  -1.91399  -1.91263
 Alpha  occ. eigenvalues --   -1.17110  -1.13582  -1.09601  -1.09518  -1.09239
 Alpha  occ. eigenvalues --   -1.05728  -1.05320  -1.04467  -1.03776  -1.02500
 Alpha  occ. eigenvalues --   -0.92925  -0.91229  -0.90418  -0.89933  -0.89883
 Alpha  occ. eigenvalues --   -0.89004  -0.88954  -0.88050  -0.87552  -0.86957
 Alpha  occ. eigenvalues --   -0.86302  -0.85857  -0.84954  -0.83710  -0.83334
 Alpha  occ. eigenvalues --   -0.82819  -0.82795  -0.81978  -0.80920  -0.80168
 Alpha  occ. eigenvalues --   -0.79780  -0.78628  -0.77876  -0.76998  -0.76438
 Alpha  occ. eigenvalues --   -0.75793  -0.75592  -0.75116  -0.74563  -0.73882
 Alpha  occ. eigenvalues --   -0.73726  -0.73324  -0.71868  -0.70344  -0.69198
 Alpha  occ. eigenvalues --   -0.68958  -0.68601  -0.67425  -0.66222  -0.65993
 Alpha  occ. eigenvalues --   -0.65877  -0.65454  -0.65127  -0.64357  -0.64310
 Alpha  occ. eigenvalues --   -0.64177  -0.63802  -0.62526  -0.61298  -0.60616
 Alpha  occ. eigenvalues --   -0.60252  -0.59569  -0.59213  -0.58530  -0.58155
 Alpha  occ. eigenvalues --   -0.57478  -0.56671  -0.56491  -0.56075  -0.55453
 Alpha  occ. eigenvalues --   -0.55183  -0.54941  -0.54441  -0.54377  -0.54017
 Alpha  occ. eigenvalues --   -0.53865  -0.53624  -0.53412  -0.53264  -0.53193
 Alpha  occ. eigenvalues --   -0.52672  -0.52392  -0.52224  -0.52156  -0.52082
 Alpha  occ. eigenvalues --   -0.51782  -0.51469  -0.51414  -0.51256  -0.50955
 Alpha  occ. eigenvalues --   -0.50658  -0.50576  -0.50388  -0.50275  -0.50042
 Alpha  occ. eigenvalues --   -0.49888  -0.49569  -0.49209  -0.49158  -0.49058
 Alpha  occ. eigenvalues --   -0.48833  -0.48695  -0.48540  -0.48254  -0.47987
 Alpha  occ. eigenvalues --   -0.47863  -0.47729  -0.47123  -0.47051  -0.46722
 Alpha  occ. eigenvalues --   -0.46638  -0.46171  -0.46005  -0.45877  -0.45577
 Alpha  occ. eigenvalues --   -0.45483  -0.45286  -0.45142  -0.45079  -0.44713
 Alpha  occ. eigenvalues --   -0.44579  -0.44522  -0.44309  -0.44059  -0.44008
 Alpha  occ. eigenvalues --   -0.43833  -0.43585  -0.43121  -0.42998  -0.42841
 Alpha  occ. eigenvalues --   -0.42818  -0.42573  -0.42439  -0.42387  -0.42265
 Alpha  occ. eigenvalues --   -0.42141  -0.41787  -0.41678  -0.41450  -0.41316
 Alpha  occ. eigenvalues --   -0.41158  -0.40779  -0.40655  -0.40327  -0.40110
 Alpha  occ. eigenvalues --   -0.40045  -0.39478  -0.39230  -0.39175  -0.38872
 Alpha  occ. eigenvalues --   -0.38738  -0.38526  -0.38431  -0.37961  -0.37773
 Alpha  occ. eigenvalues --   -0.37694  -0.37518  -0.36885  -0.36514  -0.36173
 Alpha  occ. eigenvalues --   -0.36001  -0.35191  -0.34751  -0.34663  -0.34250
 Alpha  occ. eigenvalues --   -0.33739  -0.33540  -0.33163  -0.31301  -0.31156
 Alpha  occ. eigenvalues --   -0.30858  -0.30832  -0.30247  -0.29216  -0.23903
 Alpha  occ. eigenvalues --   -0.21105
 Alpha virt. eigenvalues --   -0.08759  -0.01145   0.00132   0.02227   0.02965
 Alpha virt. eigenvalues --    0.03790   0.05119   0.05560   0.06020   0.07114
 Alpha virt. eigenvalues --    0.07284   0.08162   0.08315   0.08768   0.09000

 Mulliken charges:
               1
     1  Mg   0.833637
     2  C   -0.003143
     3  C   -0.083762
     4  C   -0.070068
     5  C   -0.088335
     6  N   -0.254607
     7  C   -0.035039
     8  C   -0.036597
     9  C   -0.056547
    10  C    0.023221
    11  C    0.078304
    12  C    0.066075
    13  C    0.077633
    14  C    0.129984
    15  O   -0.206517
    16  O   -0.360055
    17  N   -0.455368
    18  C    0.175127
    19  C   -0.160595
    20  C   -0.070642
    21  C    0.123082
    22  C    0.102335
    23  C    0.013002
    24  O   -0.202941
    25  C    0.056512
    26  N   -0.306925
    27  C    0.037971
    28  C    0.013042
    29  C   -0.027872
    30  C    0.042665
    31  C    0.086900
    32  C    0.012873
    33  C    0.007545
    34  N   -0.273454
    35  C    0.105545
    36  C   -0.159760
    37  C   -0.021064
    38  C    0.122388
    39  C    0.129966
    40  C    0.063341
    41  O   -0.150172
    42  C   -0.090999
    43  C    0.228747
    44  O   -0.219293
    45  O   -0.360554
    46  C    0.196627
    47  C    0.271947
    48  C   -0.116534
    49  C   -0.170442
    50  C    0.112322
    51  C    0.067576
    52  C    0.001750
    53  C    0.035355
    54  C   -0.162755
    55  C    0.089879
    56  C    0.051433
    57  C    0.051758
    58  C    0.038776
    59  C   -0.159837
    60  C    0.022933
    61  C    0.075172
    62  C   -0.011406
    63  C    0.041872
    64  C   -0.161799
    65  C    0.048115
    66  C    0.041628
    67  H   -0.039074
    68  H   -0.011704
    69  H   -0.064530
    70  H    0.038375
    71  H    0.013711
    72  H    0.030856
    73  H    0.014690
    74  H    0.021640
    75  H    0.000454
    76  H    0.021265
    77  H    0.023784
    78  H    0.021018
    79  H    0.033807
    80  H    0.022026
    81  H    0.013441
    82  H    0.061981
    83  H    0.008937
    84  H    0.032966
    85  H    0.011096
    86  H    0.018839
    87  H    0.027044
    88  H    0.008167
    89  H    0.024711
    90  H    0.023638
    91  H    0.007628
    92  H    0.017648
    93  H    0.011588
    94  H    0.017319
    95  H    0.039223
    96  H    0.046527
    97  H    0.011824
    98  H    0.049591
    99  H    0.022988
   100  H    0.030849
   101  H    0.042192
   102  H    0.039117
   103  H    0.030596
   104  H    0.009869
   105  H    0.044660
   106  H   -0.007122
   107  H    0.027333
   108  H   -0.009973
   109  H   -0.000944
   110  H    0.002333
   111  H    0.002207
   112  H   -0.012130
   113  H   -0.011474
   114  H    0.002005
   115  H    0.006138
   116  H    0.003204
   117  H    0.015569
   118  H   -0.012811
   119  H    0.010582
   120  H    0.007049
   121  H    0.000951
   122  H   -0.020302
   123  H   -0.020516
   124  H   -0.010556
   125  H   -0.003778
   126  H    0.012082
   127  H    0.008679
   128  H   -0.003728
   129  H    0.000107
   130  H    0.006408
   131  H   -0.001024
   132  H   -0.006816
   133  H    0.005175
   134  H   -0.002613
   135  H    0.009135
   136  H   -0.003991
   137  H    0.010594
   138  H    0.005334
   139  H    0.007930
   140  H    0.006252
 Sum of Mulliken charges =  -0.00000

 Dipole moment (field-independent basis, Debye):
    X=             -4.4207    Y=              3.0280    Z=              2.2456  Tot=              5.8098
 Quadrupole moment (field-independent basis, Debye-Ang):
   XX=           -380.1583   YY=           -447.2591   ZZ=           -403.1495
   XY=             24.1487   XZ=             15.0572   YZ=              1.6000

 Normal termination of Gaussian 16 at Wed Apr 27 03:15:14 2022.
