 Gaussian 16, Revision A.03,
 Gaussian 16:  ES64L-G16RevA.03 25-Dec-2016

 ---------------------------------
 #p PBE1PBE/Def2SVP td=(nstates=5)
 ---------------------------------

 ------------------------------------------------------
 step_1051_chromophore_24 TDDFT with PBE1PBE functional
 ------------------------------------------------------
 Symbolic Z-matrix:
 Charge =  0 Multiplicity = 1

                         Standard orientation:
 ---------------------------------------------------------------------
 Center     Atomic      Atomic             Coordinates (Angstroms)
 Number     Number       Type             X           Y           Z
 ---------------------------------------------------------------------
      1         12           0        4.522983    1.221586    0.086734
      2          6           0        4.051798   -2.302180   -0.068930
      3          6           0        1.221004    1.596700   -0.090669
      4          6           0        5.257279    4.315631   -0.019628
      5          6           0        7.920445    0.350044    0.084303
      6          7           0        2.818944   -0.263219   -0.263824
      7          6           0        2.884691   -1.573602   -0.028943
      8          6           0        1.451291   -2.109557    0.163249
      9          6           0        0.522083   -0.829355    0.026019
     10          6           0        1.564807    0.271402   -0.122354
     11          6           0       -0.430930   -0.767433   -1.168139
     12          6           0        1.326767   -2.751969    1.514977
     13          6           0        0.551339   -4.058622    1.615634
     14          6           0       -0.364483   -4.475853    0.464220
     15          8           0       -0.166853   -5.425241   -0.254945
     16          8           0       -1.492751   -3.705625    0.514916
     17          7           0        3.361760    2.772574   -0.014170
     18          6           0        2.017221    2.731705   -0.127185
     19          6           0        1.532812    4.078126   -0.197171
     20          6           0        2.723130    4.996873   -0.133616
     21          6           0        3.885067    4.036598   -0.110549
     22          6           0        0.059688    4.389885   -0.039657
     23          6           0        2.821375    6.529910   -0.016166
     24          8           0        3.872131    7.168125   -0.044971
     25          6           0        1.567023    7.220597    0.112329
     26          7           0        6.311358    2.170165   -0.141066
     27          6           0        6.362462    3.507313   -0.011857
     28          6           0        7.805732    4.038193    0.068084
     29          6           0        8.581082    2.764879   -0.061412
     30          6           0        7.558912    1.672738   -0.017926
     31          6           0        8.208510    5.177447   -0.931326
     32          6           0        9.620933    2.513932    1.090103
     33          6           0       10.954270    1.990880    0.587041
     34          7           0        5.833300   -0.581029    0.219650
     35          6           0        7.185843   -0.828395    0.237451
     36          6           0        7.537682   -2.212686    0.273848
     37          6           0        6.294432   -2.870929    0.146656
     38          6           0        5.339615   -1.802918    0.117910
     39          6           0        8.976509   -2.719262    0.529698
     40          6           0        5.681540   -4.160615    0.125676
     41          8           0        6.156285   -5.288399    0.157737
     42          6           0        4.152722   -3.825585    0.092956
     43          6           0        3.510139   -4.585479   -1.079032
     44          8           0        3.225324   -4.115131   -2.170653
     45          8           0        3.293145   -5.936174   -0.738750
     46          6           0        2.403405   -6.728379   -1.647173
     47          6           0       -2.412668   -3.808302   -0.644289
     48          6           0       -3.576284   -2.928113   -0.341734
     49          6           0       -4.631342   -2.646770   -1.119826
     50          6           0       -4.894402   -3.225616   -2.453783
     51          6           0       -5.764398   -1.708788   -0.569337
     52          6           0       -7.209074   -2.251151   -0.317768
     53          6           0       -7.431968   -2.644154    1.123942
     54          6           0       -8.713857   -2.017954    1.770122
     55          6           0       -9.180276   -2.904179    2.922209
     56          6           0       -8.378754   -0.633257    2.385787
     57          6           0       -9.551952    0.383189    2.177888
     58          6           0       -8.995445    1.853345    1.918641
     59          6           0       -8.661235    2.251644    0.509420
     60          6           0       -7.232310    2.920578    0.483748
     61          6           0       -9.722462    3.243983   -0.190238
     62          6           0      -10.452711    2.541452   -1.338159
     63          6           0      -11.921041    3.164559   -1.475009
     64          6           0      -12.985224    2.030193   -1.354902
     65          6           0      -14.089406    2.165806   -2.408139
     66          6           0      -13.515685    1.917929    0.115267
     67          1           0        0.156666    1.833464   -0.018187
     68          1           0        5.414231    5.393880    0.050681
     69          1           0        9.006695    0.238234    0.093480
     70          1           0        1.226459   -2.834933   -0.619513
     71          1           0       -0.014251   -0.564780    0.937776
     72          1           0       -0.372880    0.107570   -1.815810
     73          1           0       -1.374753   -0.720493   -0.625679
     74          1           0       -0.299877   -1.694263   -1.725531
     75          1           0        0.712598   -2.102341    2.139688
     76          1           0        2.289198   -2.910301    2.000030
     77          1           0       -0.045134   -4.025860    2.527770
     78          1           0        1.287422   -4.845623    1.778506
     79          1           0       -0.183165    4.127981    0.990203
     80          1           0       -0.530160    3.725126   -0.670906
     81          1           0       -0.253179    5.407168   -0.272206
     82          1           0        0.928571    7.127210   -0.766533
     83          1           0        1.765094    8.268951    0.333368
     84          1           0        1.134443    6.970928    1.081798
     85          1           0        7.818052    4.440457    1.081305
     86          1           0        9.095219    2.664852   -1.018033
     87          1           0        7.411990    5.328151   -1.659398
     88          1           0        9.080781    4.809657   -1.471659
     89          1           0        8.405736    6.123966   -0.429345
     90          1           0        9.095052    1.884327    1.808225
     91          1           0        9.933476    3.457989    1.535272
     92          1           0       11.742319    2.711074    0.809540
     93          1           0       10.971172    1.813426   -0.489082
     94          1           0       11.170601    1.018602    1.028114
     95          1           0        9.338458   -2.921291   -0.478720
     96          1           0        8.989572   -3.553643    1.231348
     97          1           0        9.611751   -1.937442    0.947485
     98          1           0        3.663924   -4.077357    1.034512
     99          1           0        2.854624   -6.846943   -2.632023
    100          1           0        1.500594   -6.170262   -1.895221
    101          1           0        2.117891   -7.669186   -1.176056
    102          1           0       -2.657151   -4.865168   -0.749424
    103          1           0       -1.786001   -3.520953   -1.488595
    104          1           0       -3.412272   -2.361639    0.575285
    105          1           0       -5.672666   -3.982731   -2.360380
    106          1           0       -3.999204   -3.737437   -2.807387
    107          1           0       -4.919542   -2.421979   -3.189842
    108          1           0       -5.951738   -0.956397   -1.334975
    109          1           0       -5.439907   -1.151703    0.310705
    110          1           0       -7.464374   -3.167391   -0.849874
    111          1           0       -7.895439   -1.447173   -0.584779
    112          1           0       -6.498409   -2.386639    1.624776
    113          1           0       -7.389370   -3.732482    1.078601
    114          1           0       -9.482065   -1.947174    1.000151
    115          1           0      -10.136834   -3.270770    2.552159
    116          1           0       -9.316875   -2.254311    3.786578
    117          1           0       -8.436078   -3.679272    3.110188
    118          1           0       -7.536634   -0.289075    1.783885
    119          1           0       -8.056897   -0.671897    3.426445
    120          1           0      -10.232857    0.522244    3.017187
    121          1           0      -10.079212    0.162734    1.249236
    122          1           0       -8.062806    1.934848    2.477725
    123          1           0       -9.495470    2.706117    2.376890
    124          1           0       -8.501074    1.351619   -0.084114
    125          1           0       -7.030223    3.573192   -0.367194
    126          1           0       -6.511415    2.104951    0.445205
    127          1           0       -7.216127    3.624728    1.315252
    128          1           0       -9.175248    4.051390   -0.676966
    129          1           0      -10.439981    3.578421    0.559619
    130          1           0      -10.490040    1.468910   -1.146969
    131          1           0       -9.940582    2.732810   -2.281383
    132          1           0      -11.996922    3.603566   -2.470684
    133          1           0      -12.026725    3.922752   -0.699415
    134          1           0      -12.521092    1.084919   -1.635080
    135          1           0      -14.202839    3.223314   -2.646793
    136          1           0      -14.981393    1.761455   -1.929983
    137          1           0      -13.936156    1.596152   -3.325057
    138          1           0      -13.170603    2.785282    0.678666
    139          1           0      -13.136506    1.025882    0.612309
    140          1           0      -14.596242    1.815134    0.217630
 ---------------------------------------------------------------------

 SCF Done:  E(RPBE1PBE) =  -3005.33965508     A.U. after   15 cycles

 Excitation energies and oscillator strengths:

 Excited State   1:      Singlet-A      1.8752 eV  661.19 nm  f=0.4105  <S**2>=0.000
     245 -> 248       -0.16539
     246 -> 247        0.69448
     246 <- 247       -0.11299
 This state for optimization and/or second-order correction.
 Total Energy, E(TD-HF/TD-DFT) =  -3005.27074368
 Copying the excited state density for this state as the 1-particle RhoCI density.

 Excited State   2:      Singlet-A      2.1928 eV  565.42 nm  f=0.1222  <S**2>=0.000
     245 -> 247        0.66465
     246 -> 248        0.22018

 Excited State   3:      Singlet-A      2.9367 eV  422.19 nm  f=0.0003  <S**2>=0.000
     242 -> 247        0.15992
     243 -> 247        0.63889
     243 -> 249        0.15994
     244 -> 247        0.13504

 Excited State   4:      Singlet-A      2.9959 eV  413.84 nm  f=0.0092  <S**2>=0.000
     241 -> 247       -0.11016
     243 -> 247       -0.10608
     244 -> 247        0.67748

 Excited State   5:      Singlet-A      3.1741 eV  390.61 nm  f=0.0005  <S**2>=0.000
     241 -> 247       -0.45835
     241 -> 249        0.11731
     242 -> 247        0.48647

 The electronic state is 1-A.
 Alpha  occ. eigenvalues --  -46.91559 -19.26239 -19.23653 -19.21111 -19.19671
 Alpha  occ. eigenvalues --  -19.19086 -19.19061 -14.41158 -14.41029 -14.38808
 Alpha  occ. eigenvalues --  -14.38522 -10.36931 -10.35885 -10.31992 -10.31942
 Alpha  occ. eigenvalues --  -10.30131 -10.28327 -10.28066 -10.28062 -10.27896
 Alpha  occ. eigenvalues --  -10.27760 -10.27011 -10.26979 -10.26954 -10.26462
 Alpha  occ. eigenvalues --  -10.26345 -10.26249 -10.26056 -10.25736 -10.25613
 Alpha  occ. eigenvalues --  -10.25510 -10.25476 -10.25074 -10.24697 -10.24592
 Alpha  occ. eigenvalues --  -10.24568 -10.24484 -10.24415 -10.24168 -10.24166
 Alpha  occ. eigenvalues --  -10.24120 -10.24004 -10.23944 -10.23751 -10.23625
 Alpha  occ. eigenvalues --  -10.23558 -10.23493 -10.23462 -10.23379 -10.23368
 Alpha  occ. eigenvalues --  -10.23366 -10.23238 -10.23226 -10.23214 -10.23062
 Alpha  occ. eigenvalues --  -10.22870 -10.22804 -10.22550 -10.22534 -10.22417
 Alpha  occ. eigenvalues --  -10.22236 -10.22231 -10.22194 -10.22084 -10.21626
 Alpha  occ. eigenvalues --  -10.21569  -3.13908  -1.86721  -1.86289  -1.86160
 Alpha  occ. eigenvalues --   -1.11888  -1.08265  -1.04380  -1.04167  -1.04085
 Alpha  occ. eigenvalues --   -1.00524  -0.99955  -0.99107  -0.98413  -0.97251
 Alpha  occ. eigenvalues --   -0.87231  -0.85365  -0.84597  -0.84250  -0.84026
 Alpha  occ. eigenvalues --   -0.83351  -0.83100  -0.82404  -0.81669  -0.81249
 Alpha  occ. eigenvalues --   -0.80564  -0.80104  -0.79163  -0.77971  -0.77637
 Alpha  occ. eigenvalues --   -0.77112  -0.76974  -0.76230  -0.75224  -0.74312
 Alpha  occ. eigenvalues --   -0.74087  -0.72865  -0.72215  -0.71330  -0.70625
 Alpha  occ. eigenvalues --   -0.70127  -0.69679  -0.69427  -0.68713  -0.68094
 Alpha  occ. eigenvalues --   -0.68021  -0.67716  -0.66316  -0.64651  -0.63657
 Alpha  occ. eigenvalues --   -0.63312  -0.62832  -0.61857  -0.60679  -0.60302
 Alpha  occ. eigenvalues --   -0.60251  -0.59687  -0.59661  -0.58869  -0.58644
 Alpha  occ. eigenvalues --   -0.58468  -0.57969  -0.56739  -0.55826  -0.55063
 Alpha  occ. eigenvalues --   -0.54803  -0.54102  -0.53796  -0.53131  -0.52778
 Alpha  occ. eigenvalues --   -0.51802  -0.51128  -0.50961  -0.50634  -0.49964
 Alpha  occ. eigenvalues --   -0.49757  -0.49534  -0.48994  -0.48850  -0.48384
 Alpha  occ. eigenvalues --   -0.48325  -0.48133  -0.47906  -0.47750  -0.47671
 Alpha  occ. eigenvalues --   -0.47234  -0.47009  -0.46727  -0.46692  -0.46606
 Alpha  occ. eigenvalues --   -0.46376  -0.45950  -0.45866  -0.45789  -0.45503
 Alpha  occ. eigenvalues --   -0.45287  -0.45148  -0.45002  -0.44927  -0.44603
 Alpha  occ. eigenvalues --   -0.44431  -0.44223  -0.43770  -0.43713  -0.43628
 Alpha  occ. eigenvalues --   -0.43458  -0.43340  -0.43171  -0.42855  -0.42613
 Alpha  occ. eigenvalues --   -0.42527  -0.42399  -0.41839  -0.41685  -0.41385
 Alpha  occ. eigenvalues --   -0.41317  -0.40781  -0.40717  -0.40611  -0.40296
 Alpha  occ. eigenvalues --   -0.40254  -0.39910  -0.39839  -0.39796  -0.39552
 Alpha  occ. eigenvalues --   -0.39342  -0.39262  -0.39015  -0.38830  -0.38776
 Alpha  occ. eigenvalues --   -0.38622  -0.38363  -0.37953  -0.37719  -0.37624
 Alpha  occ. eigenvalues --   -0.37532  -0.37339  -0.37270  -0.37219  -0.37027
 Alpha  occ. eigenvalues --   -0.36969  -0.36624  -0.36446  -0.36318  -0.36198
 Alpha  occ. eigenvalues --   -0.36040  -0.35551  -0.35446  -0.35096  -0.34963
 Alpha  occ. eigenvalues --   -0.34920  -0.34391  -0.34009  -0.33993  -0.33723
 Alpha  occ. eigenvalues --   -0.33609  -0.33444  -0.33292  -0.32867  -0.32790
 Alpha  occ. eigenvalues --   -0.32515  -0.32320  -0.31985  -0.31457  -0.31207
 Alpha  occ. eigenvalues --   -0.30870  -0.30117  -0.29605  -0.29527  -0.29359
 Alpha  occ. eigenvalues --   -0.29059  -0.28546  -0.28204  -0.26972  -0.26130
 Alpha  occ. eigenvalues --   -0.26003  -0.25896  -0.25564  -0.24903  -0.20844
 Alpha  occ. eigenvalues --   -0.18754
 Alpha virt. eigenvalues --   -0.11201  -0.04729  -0.04029  -0.02089  -0.00678
 Alpha virt. eigenvalues --    0.00220   0.00747   0.01062   0.01951   0.03358
 Alpha virt. eigenvalues --    0.03942   0.04411   0.04825   0.05154   0.05465

 Mulliken charges:
               1
     1  Mg   0.986382
     2  C    0.017954
     3  C   -0.070545
     4  C   -0.067314
     5  C   -0.086832
     6  N   -0.357152
     7  C    0.040915
     8  C   -0.123962
     9  C   -0.125034
    10  C    0.055792
    11  C    0.020413
    12  C    0.017836
    13  C    0.008124
    14  C    0.191959
    15  O   -0.242309
    16  O   -0.389885
    17  N   -0.580468
    18  C    0.200625
    19  C   -0.183277
    20  C   -0.109291
    21  C    0.160714
    22  C    0.036647
    23  C    0.059890
    24  O   -0.241885
    25  C   -0.018424
    26  N   -0.419119
    27  C    0.070523
    28  C   -0.060521
    29  C   -0.110232
    30  C    0.080078
    31  C    0.027285
    32  C   -0.048925
    33  C   -0.064934
    34  N   -0.392107
    35  C    0.119517
    36  C   -0.162234
    37  C   -0.059314
    38  C    0.145824
    39  C    0.076294
    40  C    0.154520
    41  O   -0.198029
    42  C   -0.208351
    43  C    0.317209
    44  O   -0.252936
    45  O   -0.390585
    46  C    0.141010
    47  C    0.238208
    48  C   -0.131383
    49  C   -0.215340
    50  C    0.048291
    51  C    0.003811
    52  C   -0.059499
    53  C   -0.015897
    54  C   -0.251382
    55  C    0.032358
    56  C   -0.011275
    57  C   -0.015239
    58  C   -0.009681
    59  C   -0.247805
    60  C   -0.040304
    61  C    0.020269
    62  C   -0.071011
    63  C   -0.015955
    64  C   -0.253124
    65  C   -0.013800
    66  C   -0.016115
    67  H   -0.007760
    68  H    0.021583
    69  H   -0.023894
    70  H    0.078837
    71  H    0.048817
    72  H    0.058202
    73  H    0.044104
    74  H    0.050072
    75  H    0.033007
    76  H    0.054007
    77  H    0.055944
    78  H    0.053836
    79  H    0.063093
    80  H    0.049840
    81  H    0.041346
    82  H    0.087016
    83  H    0.037793
    84  H    0.060837
    85  H    0.049088
    86  H    0.055945
    87  H    0.054765
    88  H    0.036435
    89  H    0.051507
    90  H    0.057408
    91  H    0.041474
    92  H    0.045613
    93  H    0.038100
    94  H    0.045054
    95  H    0.067071
    96  H    0.072672
    97  H    0.037855
    98  H    0.088431
    99  H    0.045844
   100  H    0.053732
   101  H    0.063621
   102  H    0.065053
   103  H    0.056069
   104  H    0.037764
   105  H    0.071058
   106  H    0.021961
   107  H    0.054589
   108  H    0.024166
   109  H    0.028969
   110  H    0.034997
   111  H    0.036051
   112  H    0.021211
   113  H    0.021602
   114  H    0.037414
   115  H    0.034035
   116  H    0.031286
   117  H    0.042511
   118  H    0.026069
   119  H    0.041868
   120  H    0.039132
   121  H    0.036910
   122  H    0.014068
   123  H    0.011181
   124  H    0.031115
   125  H    0.024415
   126  H    0.039973
   127  H    0.036619
   128  H    0.029236
   129  H    0.031427
   130  H    0.037790
   131  H    0.032091
   132  H    0.026764
   133  H    0.036253
   134  H    0.035315
   135  H    0.036648
   136  H    0.024090
   137  H    0.038209
   138  H    0.031824
   139  H    0.035570
   140  H    0.032427
 Sum of Mulliken charges =  -0.00000

 Dipole moment (field-independent basis, Debye):
    X=             -4.4568    Y=              3.2444    Z=              2.2667  Tot=              5.9604
 Quadrupole moment (field-independent basis, Debye-Ang):
   XX=           -375.6418   YY=           -444.1461   ZZ=           -400.7137
   XY=             25.7869   XZ=             15.3537   YZ=              1.8627

 Normal termination of Gaussian 16 at Wed Apr 27 03:32:23 2022.
