 Gaussian 16, Revision A.03,
 Gaussian 16:  ES64L-G16RevA.03 25-Dec-2016

 --------------------------------
 #p wB97XD/Def2SVP td=(nstates=5)
 --------------------------------

 -----------------------------------------------------
 step_1051_chromophore_24 TDDFT with wB97XD functional
 -----------------------------------------------------
 Symbolic Z-matrix:
 Charge =  0 Multiplicity = 1

                         Standard orientation:
 ---------------------------------------------------------------------
 Center     Atomic      Atomic             Coordinates (Angstroms)
 Number     Number       Type             X           Y           Z
 ---------------------------------------------------------------------
      1         12           0        4.522983    1.221586    0.086734
      2          6           0        4.051798   -2.302180   -0.068930
      3          6           0        1.221004    1.596700   -0.090669
      4          6           0        5.257279    4.315631   -0.019628
      5          6           0        7.920445    0.350044    0.084303
      6          7           0        2.818944   -0.263219   -0.263824
      7          6           0        2.884691   -1.573602   -0.028943
      8          6           0        1.451291   -2.109557    0.163249
      9          6           0        0.522083   -0.829355    0.026019
     10          6           0        1.564807    0.271402   -0.122354
     11          6           0       -0.430930   -0.767433   -1.168139
     12          6           0        1.326767   -2.751969    1.514977
     13          6           0        0.551339   -4.058622    1.615634
     14          6           0       -0.364483   -4.475853    0.464220
     15          8           0       -0.166853   -5.425241   -0.254945
     16          8           0       -1.492751   -3.705625    0.514916
     17          7           0        3.361760    2.772574   -0.014170
     18          6           0        2.017221    2.731705   -0.127185
     19          6           0        1.532812    4.078126   -0.197171
     20          6           0        2.723130    4.996873   -0.133616
     21          6           0        3.885067    4.036598   -0.110549
     22          6           0        0.059688    4.389885   -0.039657
     23          6           0        2.821375    6.529910   -0.016166
     24          8           0        3.872131    7.168125   -0.044971
     25          6           0        1.567023    7.220597    0.112329
     26          7           0        6.311358    2.170165   -0.141066
     27          6           0        6.362462    3.507313   -0.011857
     28          6           0        7.805732    4.038193    0.068084
     29          6           0        8.581082    2.764879   -0.061412
     30          6           0        7.558912    1.672738   -0.017926
     31          6           0        8.208510    5.177447   -0.931326
     32          6           0        9.620933    2.513932    1.090103
     33          6           0       10.954270    1.990880    0.587041
     34          7           0        5.833300   -0.581029    0.219650
     35          6           0        7.185843   -0.828395    0.237451
     36          6           0        7.537682   -2.212686    0.273848
     37          6           0        6.294432   -2.870929    0.146656
     38          6           0        5.339615   -1.802918    0.117910
     39          6           0        8.976509   -2.719262    0.529698
     40          6           0        5.681540   -4.160615    0.125676
     41          8           0        6.156285   -5.288399    0.157737
     42          6           0        4.152722   -3.825585    0.092956
     43          6           0        3.510139   -4.585479   -1.079032
     44          8           0        3.225324   -4.115131   -2.170653
     45          8           0        3.293145   -5.936174   -0.738750
     46          6           0        2.403405   -6.728379   -1.647173
     47          6           0       -2.412668   -3.808302   -0.644289
     48          6           0       -3.576284   -2.928113   -0.341734
     49          6           0       -4.631342   -2.646770   -1.119826
     50          6           0       -4.894402   -3.225616   -2.453783
     51          6           0       -5.764398   -1.708788   -0.569337
     52          6           0       -7.209074   -2.251151   -0.317768
     53          6           0       -7.431968   -2.644154    1.123942
     54          6           0       -8.713857   -2.017954    1.770122
     55          6           0       -9.180276   -2.904179    2.922209
     56          6           0       -8.378754   -0.633257    2.385787
     57          6           0       -9.551952    0.383189    2.177888
     58          6           0       -8.995445    1.853345    1.918641
     59          6           0       -8.661235    2.251644    0.509420
     60          6           0       -7.232310    2.920578    0.483748
     61          6           0       -9.722462    3.243983   -0.190238
     62          6           0      -10.452711    2.541452   -1.338159
     63          6           0      -11.921041    3.164559   -1.475009
     64          6           0      -12.985224    2.030193   -1.354902
     65          6           0      -14.089406    2.165806   -2.408139
     66          6           0      -13.515685    1.917929    0.115267
     67          1           0        0.156666    1.833464   -0.018187
     68          1           0        5.414231    5.393880    0.050681
     69          1           0        9.006695    0.238234    0.093480
     70          1           0        1.226459   -2.834933   -0.619513
     71          1           0       -0.014251   -0.564780    0.937776
     72          1           0       -0.372880    0.107570   -1.815810
     73          1           0       -1.374753   -0.720493   -0.625679
     74          1           0       -0.299877   -1.694263   -1.725531
     75          1           0        0.712598   -2.102341    2.139688
     76          1           0        2.289198   -2.910301    2.000030
     77          1           0       -0.045134   -4.025860    2.527770
     78          1           0        1.287422   -4.845623    1.778506
     79          1           0       -0.183165    4.127981    0.990203
     80          1           0       -0.530160    3.725126   -0.670906
     81          1           0       -0.253179    5.407168   -0.272206
     82          1           0        0.928571    7.127210   -0.766533
     83          1           0        1.765094    8.268951    0.333368
     84          1           0        1.134443    6.970928    1.081798
     85          1           0        7.818052    4.440457    1.081305
     86          1           0        9.095219    2.664852   -1.018033
     87          1           0        7.411990    5.328151   -1.659398
     88          1           0        9.080781    4.809657   -1.471659
     89          1           0        8.405736    6.123966   -0.429345
     90          1           0        9.095052    1.884327    1.808225
     91          1           0        9.933476    3.457989    1.535272
     92          1           0       11.742319    2.711074    0.809540
     93          1           0       10.971172    1.813426   -0.489082
     94          1           0       11.170601    1.018602    1.028114
     95          1           0        9.338458   -2.921291   -0.478720
     96          1           0        8.989572   -3.553643    1.231348
     97          1           0        9.611751   -1.937442    0.947485
     98          1           0        3.663924   -4.077357    1.034512
     99          1           0        2.854624   -6.846943   -2.632023
    100          1           0        1.500594   -6.170262   -1.895221
    101          1           0        2.117891   -7.669186   -1.176056
    102          1           0       -2.657151   -4.865168   -0.749424
    103          1           0       -1.786001   -3.520953   -1.488595
    104          1           0       -3.412272   -2.361639    0.575285
    105          1           0       -5.672666   -3.982731   -2.360380
    106          1           0       -3.999204   -3.737437   -2.807387
    107          1           0       -4.919542   -2.421979   -3.189842
    108          1           0       -5.951738   -0.956397   -1.334975
    109          1           0       -5.439907   -1.151703    0.310705
    110          1           0       -7.464374   -3.167391   -0.849874
    111          1           0       -7.895439   -1.447173   -0.584779
    112          1           0       -6.498409   -2.386639    1.624776
    113          1           0       -7.389370   -3.732482    1.078601
    114          1           0       -9.482065   -1.947174    1.000151
    115          1           0      -10.136834   -3.270770    2.552159
    116          1           0       -9.316875   -2.254311    3.786578
    117          1           0       -8.436078   -3.679272    3.110188
    118          1           0       -7.536634   -0.289075    1.783885
    119          1           0       -8.056897   -0.671897    3.426445
    120          1           0      -10.232857    0.522244    3.017187
    121          1           0      -10.079212    0.162734    1.249236
    122          1           0       -8.062806    1.934848    2.477725
    123          1           0       -9.495470    2.706117    2.376890
    124          1           0       -8.501074    1.351619   -0.084114
    125          1           0       -7.030223    3.573192   -0.367194
    126          1           0       -6.511415    2.104951    0.445205
    127          1           0       -7.216127    3.624728    1.315252
    128          1           0       -9.175248    4.051390   -0.676966
    129          1           0      -10.439981    3.578421    0.559619
    130          1           0      -10.490040    1.468910   -1.146969
    131          1           0       -9.940582    2.732810   -2.281383
    132          1           0      -11.996922    3.603566   -2.470684
    133          1           0      -12.026725    3.922752   -0.699415
    134          1           0      -12.521092    1.084919   -1.635080
    135          1           0      -14.202839    3.223314   -2.646793
    136          1           0      -14.981393    1.761455   -1.929983
    137          1           0      -13.936156    1.596152   -3.325057
    138          1           0      -13.170603    2.785282    0.678666
    139          1           0      -13.136506    1.025882    0.612309
    140          1           0      -14.596242    1.815134    0.217630
 ---------------------------------------------------------------------

 SCF Done:  E(RwB97XD) =  -3007.85172435     A.U. after   19 cycles

 Excitation energies and oscillator strengths:

 Excited State   1:      Singlet-A      1.6597 eV  747.03 nm  f=0.4227  <S**2>=0.000
     245 -> 248        0.18249
     246 -> 247        0.68416
     245 <- 248        0.11555
 This state for optimization and/or second-order correction.
 Total Energy, E(TD-HF/TD-DFT) =  -3007.79073168
 Copying the excited state density for this state as the 1-particle RhoCI density.

 Excited State   2:      Singlet-A      2.1420 eV  578.81 nm  f=0.1297  <S**2>=0.000
     245 -> 247        0.65186
     246 -> 248       -0.25712

 Excited State   3:      Singlet-A      3.3989 eV  364.78 nm  f=0.0026  <S**2>=0.000
     241 -> 247        0.23093
     241 -> 249        0.15792
     241 -> 250       -0.10994
     243 -> 247       -0.29606
     244 -> 247        0.53786

 Excited State   4:      Singlet-A      3.4286 eV  361.62 nm  f=0.0025  <S**2>=0.000
     241 -> 247        0.46106
     241 -> 249        0.25875
     241 -> 250       -0.15410
     243 -> 247       -0.11262
     244 -> 247       -0.37332

 Excited State   5:      Singlet-A      3.5082 eV  353.42 nm  f=0.1312  <S**2>=0.000
     241 -> 247        0.22814
     243 -> 247        0.45031
     245 -> 247        0.11294
     246 -> 248        0.44513

 The electronic state is 1-A.
 Alpha  occ. eigenvalues --  -46.94504 -19.30794 -19.28269 -19.25802 -19.24457
 Alpha  occ. eigenvalues --  -19.24080 -19.23781 -14.46250 -14.46102 -14.43679
 Alpha  occ. eigenvalues --  -14.43554 -10.43727 -10.42793 -10.38982 -10.38759
 Alpha  occ. eigenvalues --  -10.36657 -10.34698 -10.34273 -10.34265 -10.34093
 Alpha  occ. eigenvalues --  -10.34082 -10.33514 -10.33415 -10.33193 -10.32992
 Alpha  occ. eigenvalues --  -10.32784 -10.32708 -10.32578 -10.32022 -10.31969
 Alpha  occ. eigenvalues --  -10.31714 -10.31686 -10.31249 -10.31057 -10.30950
 Alpha  occ. eigenvalues --  -10.30919 -10.30836 -10.30790 -10.30737 -10.30531
 Alpha  occ. eigenvalues --  -10.30486 -10.30414 -10.30396 -10.30038 -10.29923
 Alpha  occ. eigenvalues --  -10.29892 -10.29885 -10.29751 -10.29750 -10.29715
 Alpha  occ. eigenvalues --  -10.29693 -10.29622 -10.29595 -10.29568 -10.29379
 Alpha  occ. eigenvalues --  -10.29317 -10.29266 -10.28900 -10.28858 -10.28764
 Alpha  occ. eigenvalues --  -10.28605 -10.28581 -10.28569 -10.28497 -10.28046
 Alpha  occ. eigenvalues --  -10.27987  -3.20695  -1.94260  -1.93830  -1.93694
 Alpha  occ. eigenvalues --   -1.19267  -1.15748  -1.11816  -1.11783  -1.11426
 Alpha  occ. eigenvalues --   -1.07956  -1.07350  -1.06505  -1.05792  -1.04518
 Alpha  occ. eigenvalues --   -0.94935  -0.93037  -0.92242  -0.91808  -0.91685
 Alpha  occ. eigenvalues --   -0.90904  -0.90753  -0.89964  -0.89320  -0.88926
 Alpha  occ. eigenvalues --   -0.88220  -0.87735  -0.86802  -0.85594  -0.85264
 Alpha  occ. eigenvalues --   -0.84733  -0.84630  -0.83861  -0.82875  -0.81982
 Alpha  occ. eigenvalues --   -0.81753  -0.80554  -0.79805  -0.78912  -0.78290
 Alpha  occ. eigenvalues --   -0.77744  -0.77372  -0.77055  -0.76386  -0.75730
 Alpha  occ. eigenvalues --   -0.75642  -0.75315  -0.73838  -0.72265  -0.71215
 Alpha  occ. eigenvalues --   -0.70875  -0.70470  -0.69380  -0.68182  -0.67879
 Alpha  occ. eigenvalues --   -0.67789  -0.67306  -0.67119  -0.66298  -0.66157
 Alpha  occ. eigenvalues --   -0.66132  -0.65619  -0.64358  -0.63320  -0.62563
 Alpha  occ. eigenvalues --   -0.62227  -0.61556  -0.61190  -0.60542  -0.60130
 Alpha  occ. eigenvalues --   -0.59412  -0.58578  -0.58421  -0.58042  -0.57391
 Alpha  occ. eigenvalues --   -0.57142  -0.56909  -0.56359  -0.56281  -0.55847
 Alpha  occ. eigenvalues --   -0.55744  -0.55535  -0.55331  -0.55163  -0.55108
 Alpha  occ. eigenvalues --   -0.54596  -0.54350  -0.54090  -0.54066  -0.53960
 Alpha  occ. eigenvalues --   -0.53700  -0.53417  -0.53283  -0.53156  -0.52824
 Alpha  occ. eigenvalues --   -0.52599  -0.52489  -0.52356  -0.52224  -0.51958
 Alpha  occ. eigenvalues --   -0.51755  -0.51501  -0.51124  -0.51011  -0.50956
 Alpha  occ. eigenvalues --   -0.50773  -0.50630  -0.50471  -0.50177  -0.49879
 Alpha  occ. eigenvalues --   -0.49784  -0.49658  -0.49064  -0.49013  -0.48614
 Alpha  occ. eigenvalues --   -0.48550  -0.48026  -0.47901  -0.47782  -0.47484
 Alpha  occ. eigenvalues --   -0.47407  -0.47109  -0.47094  -0.47027  -0.46667
 Alpha  occ. eigenvalues --   -0.46547  -0.46432  -0.46190  -0.45960  -0.45937
 Alpha  occ. eigenvalues --   -0.45787  -0.45515  -0.45075  -0.44863  -0.44768
 Alpha  occ. eigenvalues --   -0.44684  -0.44482  -0.44373  -0.44305  -0.44133
 Alpha  occ. eigenvalues --   -0.44050  -0.43755  -0.43539  -0.43348  -0.43266
 Alpha  occ. eigenvalues --   -0.43071  -0.42640  -0.42635  -0.42168  -0.41981
 Alpha  occ. eigenvalues --   -0.41947  -0.41356  -0.41069  -0.41025  -0.40744
 Alpha  occ. eigenvalues --   -0.40615  -0.40362  -0.40358  -0.39939  -0.39719
 Alpha  occ. eigenvalues --   -0.39551  -0.39359  -0.39028  -0.38371  -0.38071
 Alpha  occ. eigenvalues --   -0.37850  -0.37033  -0.36752  -0.36570  -0.36224
 Alpha  occ. eigenvalues --   -0.35842  -0.35380  -0.35289  -0.33544  -0.33067
 Alpha  occ. eigenvalues --   -0.32898  -0.32861  -0.32452  -0.31368  -0.25838
 Alpha  occ. eigenvalues --   -0.22909
 Alpha virt. eigenvalues --   -0.07125   0.00774   0.02181   0.04368   0.05915
 Alpha virt. eigenvalues --    0.06149   0.07455   0.07765   0.08636   0.09795
 Alpha virt. eigenvalues --    0.10566   0.10997   0.11524   0.11928   0.12209

 Mulliken charges:
               1
     1  Mg   0.975875
     2  C    0.001274
     3  C   -0.091281
     4  C   -0.081739
     5  C   -0.096044
     6  N   -0.322481
     7  C    0.012238
     8  C   -0.089184
     9  C   -0.100896
    10  C    0.046959
    11  C    0.033693
    12  C    0.025686
    13  C    0.023483
    14  C    0.178862
    15  O   -0.237510
    16  O   -0.386857
    17  N   -0.545396
    18  C    0.189578
    19  C   -0.175993
    20  C   -0.108797
    21  C    0.149079
    22  C    0.053037
    23  C    0.060427
    24  O   -0.236049
    25  C   -0.010548
    26  N   -0.385347
    27  C    0.058924
    28  C   -0.039690
    29  C   -0.081386
    30  C    0.072124
    31  C    0.038920
    32  C   -0.030894
    33  C   -0.050914
    34  N   -0.354713
    35  C    0.112968
    36  C   -0.162180
    37  C   -0.061825
    38  C    0.141988
    39  C    0.088170
    40  C    0.139087
    41  O   -0.186565
    42  C   -0.163301
    43  C    0.293467
    44  O   -0.246576
    45  O   -0.389753
    46  C    0.156518
    47  C    0.245487
    48  C   -0.136408
    49  C   -0.200879
    50  C    0.060574
    51  C    0.025735
    52  C   -0.045545
    53  C    0.000577
    54  C   -0.220901
    55  C    0.042415
    56  C    0.011539
    57  C    0.006172
    58  C    0.004357
    59  C   -0.217409
    60  C   -0.023051
    61  C    0.036925
    62  C   -0.052898
    63  C   -0.000281
    64  C   -0.224144
    65  C   -0.000023
    66  C   -0.004321
    67  H   -0.015078
    68  H    0.015285
    69  H   -0.040788
    70  H    0.058736
    71  H    0.038284
    72  H    0.053244
    73  H    0.035216
    74  H    0.041798
    75  H    0.025752
    76  H    0.045052
    77  H    0.051377
    78  H    0.047782
    79  H    0.057030
    80  H    0.043684
    81  H    0.035918
    82  H    0.082772
    83  H    0.035819
    84  H    0.055547
    85  H    0.038953
    86  H    0.042242
    87  H    0.048512
    88  H    0.029805
    89  H    0.047146
    90  H    0.047467
    91  H    0.033176
    92  H    0.041523
    93  H    0.031587
    94  H    0.038711
    95  H    0.062738
    96  H    0.069604
    97  H    0.032920
    98  H    0.076777
    99  H    0.042316
   100  H    0.047618
   101  H    0.061735
   102  H    0.061577
   103  H    0.048983
   104  H    0.034662
   105  H    0.065989
   106  H    0.015993
   107  H    0.049974
   108  H    0.015710
   109  H    0.019953
   110  H    0.027143
   111  H    0.025501
   112  H    0.008403
   113  H    0.013558
   114  H    0.025895
   115  H    0.029048
   116  H    0.024160
   117  H    0.037047
   118  H    0.004874
   119  H    0.034941
   120  H    0.033064
   121  H    0.021663
   122  H    0.001893
   123  H    0.003446
   124  H    0.012781
   125  H    0.018113
   126  H    0.034047
   127  H    0.028907
   128  H    0.020771
   129  H    0.018978
   130  H    0.023931
   131  H    0.025319
   132  H    0.018824
   133  H    0.025588
   134  H    0.023640
   135  H    0.029756
   136  H    0.016905
   137  H    0.033273
   138  H    0.024335
   139  H    0.029874
   140  H    0.026863
 Sum of Mulliken charges =  -0.00000

 Dipole moment (field-independent basis, Debye):
    X=             -4.4316    Y=              3.0108    Z=              2.3086  Tot=              5.8338
 Quadrupole moment (field-independent basis, Debye-Ang):
   XX=           -374.8244   YY=           -443.1876   ZZ=           -400.3212
   XY=             23.9488   XZ=             15.5175   YZ=              1.7467

 Normal termination of Gaussian 16 at Wed Apr 27 03:58:22 2022.
