 Gaussian 16, Revision A.03,
 Gaussian 16:  ES64L-G16RevA.03 25-Dec-2016

 --------------------
 #p ZINDO=(nstates=5)
 --------------------

 ------------------------------
 step_1051_chromophore_24 ZINDO
 ------------------------------
 Symbolic Z-matrix:
 Charge =  0 Multiplicity = 1

                         Standard orientation:
 ---------------------------------------------------------------------
 Center     Atomic      Atomic             Coordinates (Angstroms)
 Number     Number       Type             X           Y           Z
 ---------------------------------------------------------------------
      1         12           0        4.522983    1.221586    0.086734
      2          6           0        4.051798   -2.302180   -0.068930
      3          6           0        1.221004    1.596700   -0.090669
      4          6           0        5.257279    4.315631   -0.019628
      5          6           0        7.920445    0.350044    0.084303
      6          7           0        2.818944   -0.263219   -0.263824
      7          6           0        2.884691   -1.573602   -0.028943
      8          6           0        1.451291   -2.109557    0.163249
      9          6           0        0.522083   -0.829355    0.026019
     10          6           0        1.564807    0.271402   -0.122354
     11          6           0       -0.430930   -0.767433   -1.168139
     12          6           0        1.326767   -2.751969    1.514977
     13          6           0        0.551339   -4.058622    1.615634
     14          6           0       -0.364483   -4.475853    0.464220
     15          8           0       -0.166853   -5.425241   -0.254945
     16          8           0       -1.492751   -3.705625    0.514916
     17          7           0        3.361760    2.772574   -0.014170
     18          6           0        2.017221    2.731705   -0.127185
     19          6           0        1.532812    4.078126   -0.197171
     20          6           0        2.723130    4.996873   -0.133616
     21          6           0        3.885067    4.036598   -0.110549
     22          6           0        0.059688    4.389885   -0.039657
     23          6           0        2.821375    6.529910   -0.016166
     24          8           0        3.872131    7.168125   -0.044971
     25          6           0        1.567023    7.220597    0.112329
     26          7           0        6.311358    2.170165   -0.141066
     27          6           0        6.362462    3.507313   -0.011857
     28          6           0        7.805732    4.038193    0.068084
     29          6           0        8.581082    2.764879   -0.061412
     30          6           0        7.558912    1.672738   -0.017926
     31          6           0        8.208510    5.177447   -0.931326
     32          6           0        9.620933    2.513932    1.090103
     33          6           0       10.954270    1.990880    0.587041
     34          7           0        5.833300   -0.581029    0.219650
     35          6           0        7.185843   -0.828395    0.237451
     36          6           0        7.537682   -2.212686    0.273848
     37          6           0        6.294432   -2.870929    0.146656
     38          6           0        5.339615   -1.802918    0.117910
     39          6           0        8.976509   -2.719262    0.529698
     40          6           0        5.681540   -4.160615    0.125676
     41          8           0        6.156285   -5.288399    0.157737
     42          6           0        4.152722   -3.825585    0.092956
     43          6           0        3.510139   -4.585479   -1.079032
     44          8           0        3.225324   -4.115131   -2.170653
     45          8           0        3.293145   -5.936174   -0.738750
     46          6           0        2.403405   -6.728379   -1.647173
     47          6           0       -2.412668   -3.808302   -0.644289
     48          6           0       -3.576284   -2.928113   -0.341734
     49          6           0       -4.631342   -2.646770   -1.119826
     50          6           0       -4.894402   -3.225616   -2.453783
     51          6           0       -5.764398   -1.708788   -0.569337
     52          6           0       -7.209074   -2.251151   -0.317768
     53          6           0       -7.431968   -2.644154    1.123942
     54          6           0       -8.713857   -2.017954    1.770122
     55          6           0       -9.180276   -2.904179    2.922209
     56          6           0       -8.378754   -0.633257    2.385787
     57          6           0       -9.551952    0.383189    2.177888
     58          6           0       -8.995445    1.853345    1.918641
     59          6           0       -8.661235    2.251644    0.509420
     60          6           0       -7.232310    2.920578    0.483748
     61          6           0       -9.722462    3.243983   -0.190238
     62          6           0      -10.452711    2.541452   -1.338159
     63          6           0      -11.921041    3.164559   -1.475009
     64          6           0      -12.985224    2.030193   -1.354902
     65          6           0      -14.089406    2.165806   -2.408139
     66          6           0      -13.515685    1.917929    0.115267
     67          1           0        0.156666    1.833464   -0.018187
     68          1           0        5.414231    5.393880    0.050681
     69          1           0        9.006695    0.238234    0.093480
     70          1           0        1.226459   -2.834933   -0.619513
     71          1           0       -0.014251   -0.564780    0.937776
     72          1           0       -0.372880    0.107570   -1.815810
     73          1           0       -1.374753   -0.720493   -0.625679
     74          1           0       -0.299877   -1.694263   -1.725531
     75          1           0        0.712598   -2.102341    2.139688
     76          1           0        2.289198   -2.910301    2.000030
     77          1           0       -0.045134   -4.025860    2.527770
     78          1           0        1.287422   -4.845623    1.778506
     79          1           0       -0.183165    4.127981    0.990203
     80          1           0       -0.530160    3.725126   -0.670906
     81          1           0       -0.253179    5.407168   -0.272206
     82          1           0        0.928571    7.127210   -0.766533
     83          1           0        1.765094    8.268951    0.333368
     84          1           0        1.134443    6.970928    1.081798
     85          1           0        7.818052    4.440457    1.081305
     86          1           0        9.095219    2.664852   -1.018033
     87          1           0        7.411990    5.328151   -1.659398
     88          1           0        9.080781    4.809657   -1.471659
     89          1           0        8.405736    6.123966   -0.429345
     90          1           0        9.095052    1.884327    1.808225
     91          1           0        9.933476    3.457989    1.535272
     92          1           0       11.742319    2.711074    0.809540
     93          1           0       10.971172    1.813426   -0.489082
     94          1           0       11.170601    1.018602    1.028114
     95          1           0        9.338458   -2.921291   -0.478720
     96          1           0        8.989572   -3.553643    1.231348
     97          1           0        9.611751   -1.937442    0.947485
     98          1           0        3.663924   -4.077357    1.034512
     99          1           0        2.854624   -6.846943   -2.632023
    100          1           0        1.500594   -6.170262   -1.895221
    101          1           0        2.117891   -7.669186   -1.176056
    102          1           0       -2.657151   -4.865168   -0.749424
    103          1           0       -1.786001   -3.520953   -1.488595
    104          1           0       -3.412272   -2.361639    0.575285
    105          1           0       -5.672666   -3.982731   -2.360380
    106          1           0       -3.999204   -3.737437   -2.807387
    107          1           0       -4.919542   -2.421979   -3.189842
    108          1           0       -5.951738   -0.956397   -1.334975
    109          1           0       -5.439907   -1.151703    0.310705
    110          1           0       -7.464374   -3.167391   -0.849874
    111          1           0       -7.895439   -1.447173   -0.584779
    112          1           0       -6.498409   -2.386639    1.624776
    113          1           0       -7.389370   -3.732482    1.078601
    114          1           0       -9.482065   -1.947174    1.000151
    115          1           0      -10.136834   -3.270770    2.552159
    116          1           0       -9.316875   -2.254311    3.786578
    117          1           0       -8.436078   -3.679272    3.110188
    118          1           0       -7.536634   -0.289075    1.783885
    119          1           0       -8.056897   -0.671897    3.426445
    120          1           0      -10.232857    0.522244    3.017187
    121          1           0      -10.079212    0.162734    1.249236
    122          1           0       -8.062806    1.934848    2.477725
    123          1           0       -9.495470    2.706117    2.376890
    124          1           0       -8.501074    1.351619   -0.084114
    125          1           0       -7.030223    3.573192   -0.367194
    126          1           0       -6.511415    2.104951    0.445205
    127          1           0       -7.216127    3.624728    1.315252
    128          1           0       -9.175248    4.051390   -0.676966
    129          1           0      -10.439981    3.578421    0.559619
    130          1           0      -10.490040    1.468910   -1.146969
    131          1           0       -9.940582    2.732810   -2.281383
    132          1           0      -11.996922    3.603566   -2.470684
    133          1           0      -12.026725    3.922752   -0.699415
    134          1           0      -12.521092    1.084919   -1.635080
    135          1           0      -14.202839    3.223314   -2.646793
    136          1           0      -14.981393    1.761455   -1.929983
    137          1           0      -13.936156    1.596152   -3.325057
    138          1           0      -13.170603    2.785282    0.678666
    139          1           0      -13.136506    1.025882    0.612309
    140          1           0      -14.596242    1.815134    0.217630
 ---------------------------------------------------------------------

 SCF Done:  E(RZINDO/S) =  -474.572391356     A.U. after   19 cycles

 Excitation energies and oscillator strengths:

 Excited State   1:      Singlet-A      1.2332 eV 1005.39 nm  f=0.6450  <S**2>=0.000
     175 ->178         0.18855
     176 ->177         0.66398
 This state for optimization and/or second-order correction.
 Total Energy, E(CIS/TDA) =  -474.527072268
 Copying the excited state density for this state as the 1-particle RhoCI density.

 Excited State   2:      Singlet-A      1.8928 eV  655.03 nm  f=0.0855  <S**2>=0.000
     175 ->177         0.57975
     176 ->178        -0.37001

 Excited State   3:      Singlet-A      2.9332 eV  422.69 nm  f=0.1539  <S**2>=0.000
     168 ->177        -0.28900
     168 ->178         0.10581
     168 ->179         0.30950
     168 ->180        -0.15725
     168 ->186         0.12887
     171 ->177         0.13053
     175 ->177         0.15052
     176 ->178         0.29786
     176 ->179         0.22351

 Excited State   4:      Singlet-A      2.9708 eV  417.34 nm  f=0.5264  <S**2>=0.000
     168 ->177         0.23157
     168 ->179        -0.23130
     168 ->180         0.11232
     171 ->177         0.11679
     174 ->177         0.15992
     175 ->177         0.25058
     176 ->178         0.44892

 Excited State   5:      Singlet-A      3.0329 eV  408.80 nm  f=0.0444  <S**2>=0.000
     170 ->179         0.11503
     170 ->180         0.16218
     174 ->177        -0.14669
     176 ->179         0.54685
     176 ->180         0.18826

 The electronic state is 1-A.
 Alpha  occ. eigenvalues --   -1.86612  -1.84014  -1.81481  -1.74452  -1.71443
 Alpha  occ. eigenvalues --   -1.68715  -1.65910  -1.60881  -1.58611  -1.58092
 Alpha  occ. eigenvalues --   -1.54745  -1.52237  -1.50720  -1.49443  -1.48267
 Alpha  occ. eigenvalues --   -1.46685  -1.43195  -1.41310  -1.40326  -1.38816
 Alpha  occ. eigenvalues --   -1.37383  -1.34792  -1.33570  -1.32178  -1.28581
 Alpha  occ. eigenvalues --   -1.27763  -1.26138  -1.23155  -1.20692  -1.18863
 Alpha  occ. eigenvalues --   -1.17090  -1.15822  -1.14386  -1.13896  -1.13020
 Alpha  occ. eigenvalues --   -1.11245  -1.09890  -1.09484  -1.05169  -1.03919
 Alpha  occ. eigenvalues --   -1.03349  -1.02332  -0.98492  -0.98024  -0.96751
 Alpha  occ. eigenvalues --   -0.96090  -0.94814  -0.94472  -0.93256  -0.92873
 Alpha  occ. eigenvalues --   -0.92003  -0.89411  -0.89219  -0.88233  -0.86868
 Alpha  occ. eigenvalues --   -0.86721  -0.85274  -0.84129  -0.82672  -0.80941
 Alpha  occ. eigenvalues --   -0.80178  -0.78692  -0.76625  -0.76561  -0.75950
 Alpha  occ. eigenvalues --   -0.75859  -0.75698  -0.74587  -0.74073  -0.73218
 Alpha  occ. eigenvalues --   -0.72498  -0.71696  -0.71560  -0.70875  -0.70769
 Alpha  occ. eigenvalues --   -0.70120  -0.69039  -0.68474  -0.68147  -0.67986
 Alpha  occ. eigenvalues --   -0.67669  -0.66926  -0.66427  -0.66277  -0.65578
 Alpha  occ. eigenvalues --   -0.65288  -0.65092  -0.64849  -0.64660  -0.64155
 Alpha  occ. eigenvalues --   -0.63853  -0.62822  -0.62391  -0.62056  -0.61936
 Alpha  occ. eigenvalues --   -0.61638  -0.61380  -0.60368  -0.60012  -0.59892
 Alpha  occ. eigenvalues --   -0.59310  -0.59070  -0.58863  -0.58693  -0.58222
 Alpha  occ. eigenvalues --   -0.58149  -0.57630  -0.57578  -0.57402  -0.57175
 Alpha  occ. eigenvalues --   -0.56564  -0.55583  -0.55343  -0.54973  -0.54513
 Alpha  occ. eigenvalues --   -0.54505  -0.53824  -0.53118  -0.52939  -0.52747
 Alpha  occ. eigenvalues --   -0.52485  -0.52114  -0.51536  -0.51457  -0.51241
 Alpha  occ. eigenvalues --   -0.50733  -0.50639  -0.50543  -0.50252  -0.49916
 Alpha  occ. eigenvalues --   -0.49887  -0.49656  -0.49451  -0.49243  -0.49160
 Alpha  occ. eigenvalues --   -0.48569  -0.48305  -0.48157  -0.47900  -0.47735
 Alpha  occ. eigenvalues --   -0.47278  -0.47038  -0.46797  -0.46612  -0.46490
 Alpha  occ. eigenvalues --   -0.46054  -0.45828  -0.45801  -0.45692  -0.44991
 Alpha  occ. eigenvalues --   -0.44818  -0.44571  -0.44144  -0.44042  -0.43973
 Alpha  occ. eigenvalues --   -0.43576  -0.42968  -0.42808  -0.42387  -0.41848
 Alpha  occ. eigenvalues --   -0.41591  -0.41562  -0.41199  -0.38959  -0.38887
 Alpha  occ. eigenvalues --   -0.38531  -0.37211  -0.35687  -0.34949  -0.34488
 Alpha  occ. eigenvalues --   -0.33521  -0.32980  -0.32517  -0.31136  -0.26427
 Alpha  occ. eigenvalues --   -0.21637
 Alpha virt. eigenvalues --   -0.08640  -0.01497  -0.00567   0.01404   0.01995
 Alpha virt. eigenvalues --    0.02859   0.03103   0.03406   0.04481   0.05397
 Alpha virt. eigenvalues --    0.06585   0.06962   0.07569   0.07863   0.07976

 Mulliken charges:
               1
     1  Mg   0.428377
     2  C   -0.066405
     3  C   -0.074379
     4  C   -0.057053
     5  C   -0.068699
     6  N   -0.289810
     7  C    0.159582
     8  C    0.011596
     9  C   -0.003793
    10  C    0.115989
    11  C   -0.051493
    12  C   -0.019099
    13  C   -0.000540
    14  C    0.474014
    15  O   -0.507954
    16  O   -0.287687
    17  N   -0.311949
    18  C    0.101753
    19  C   -0.021652
    20  C   -0.088818
    21  C    0.117755
    22  C   -0.043268
    23  C    0.343105
    24  O   -0.534766
    25  C   -0.029542
    26  N   -0.262114
    27  C    0.122485
    28  C    0.003689
    29  C    0.008379
    30  C    0.151819
    31  C   -0.052163
    32  C   -0.035466
    33  C   -0.055340
    34  N   -0.342131
    35  C    0.116381
    36  C    0.045109
    37  C   -0.051545
    38  C    0.145608
    39  C   -0.036457
    40  C    0.340272
    41  O   -0.509243
    42  C    0.048677
    43  C    0.479786
    44  O   -0.510645
    45  O   -0.276261
    46  C    0.073013
    47  C    0.105685
    48  C   -0.082666
    49  C   -0.003621
    50  C   -0.043185
    51  C   -0.030247
    52  C   -0.034921
    53  C   -0.042160
    54  C   -0.014253
    55  C   -0.063812
    56  C   -0.028665
    57  C   -0.038449
    58  C   -0.044537
    59  C   -0.020150
    60  C   -0.066685
    61  C   -0.039887
    62  C   -0.045589
    63  C   -0.042867
    64  C   -0.012733
    65  C   -0.058958
    66  C   -0.058719
    67  H    0.021071
    68  H    0.038910
    69  H    0.008423
    70  H    0.049563
    71  H    0.032161
    72  H    0.032759
    73  H    0.016970
    74  H    0.030017
    75  H    0.019333
    76  H    0.026626
    77  H    0.034167
    78  H    0.029678
    79  H    0.029904
    80  H    0.022018
    81  H    0.024522
    82  H    0.049051
    83  H    0.023425
    84  H    0.037543
    85  H    0.032621
    86  H    0.038707
    87  H    0.028512
    88  H    0.018976
    89  H    0.029422
    90  H    0.031629
    91  H    0.016227
    92  H    0.020745
    93  H    0.017991
    94  H    0.016961
    95  H    0.042201
    96  H    0.042247
    97  H    0.022571
    98  H    0.061366
    99  H    0.042919
   100  H    0.045418
   101  H    0.042529
   102  H    0.054769
   103  H    0.050967
   104  H    0.031394
   105  H    0.043959
   106  H    0.009185
   107  H    0.037945
   108  H    0.010973
   109  H    0.023332
   110  H    0.022630
   111  H    0.018439
   112  H    0.018393
   113  H    0.012538
   114  H    0.029173
   115  H    0.018629
   116  H    0.021741
   117  H    0.027580
   118  H    0.013127
   119  H    0.030884
   120  H    0.026468
   121  H    0.024350
   122  H    0.003579
   123  H    0.018641
   124  H    0.017854
   125  H    0.009836
   126  H    0.022157
   127  H    0.021377
   128  H    0.024091
   129  H    0.028730
   130  H    0.024629
   131  H    0.018647
   132  H    0.017070
   133  H    0.029156
   134  H    0.018133
   135  H    0.020030
   136  H    0.014572
   137  H    0.020358
   138  H    0.020090
   139  H    0.014109
   140  H    0.020586
 Sum of Mulliken charges =  -0.00000

 Dipole moment (field-independent basis, Debye):
    X=             -4.3877    Y=              2.3712    Z=              4.5984  Tot=              6.7838
 N-N= 4.444219275025D+03 E-N= 0.000000000000D+00  KE=-9.563003911097D+03
 Leave Link  601 at Wed Apr 27 04:13:21 2022, MaxMem=  6710886400 cpu:               0.8 elap:               0.0
 (Enter /sw/apps/gaussian-16.0/g16/l9999.exe)
 1\1\GINC-BP1-COMPUTE148\SP\RZINDO CIS\STO-3G\C55H74Mg1N4O6\OF15641\27-
 Apr-2022\0\\#p ZINDO=(nstates=5)\\step_1051_chromophore_24 ZINDO\\0,1\
 Mg,0,-0.779,43.989,24.353\C,0,1.728,43.33,26.791\C,0,-3.081,43.621,26.
 728\C,0,-2.802,44.351,21.924\C,0,1.964,44.12,22.171\N,0,-0.649,43.319,
 26.536\C,0,0.447,43.381,27.292\C,0,0.02,43.394,28.774\C,0,-1.567,43.36
 1,28.735\C,0,-1.822,43.438,27.235\C,0,-2.266,42.119,29.289\C,0,0.54,44
 .635,29.441\C,0,1.117,44.503,30.844\C,0,0.824,43.242,31.658\O,0,1.653,

 Normal termination of Gaussian 16 at Wed Apr 27 04:13:21 2022.
