 Gaussian 16, Revision A.03,
 Gaussian 16:  ES64L-G16RevA.03 25-Dec-2016

 ------------------------------
 #p blyp/Def2SVP td=(nstates=5)
 ------------------------------

 ---------------------------------------------------
 step_1201_chromophore_12 TDDFT with blyp functional
 ---------------------------------------------------
 Symbolic Z-matrix:
 Charge =  0 Multiplicity = 1

                         Standard orientation:
 ---------------------------------------------------------------------
 Center     Atomic      Atomic             Coordinates (Angstroms)
 Number     Number       Type             X           Y           Z
 ---------------------------------------------------------------------
      1         12           0       -3.862328    0.604896   -0.093985
      2          6           0       -3.237734   -2.834475    0.438377
      3          6           0       -0.686203    1.125321   -0.080136
      4          6           0       -4.672184    3.689979   -0.968896
      5          6           0       -7.346483   -0.204368    0.134591
      6          7           0       -2.166435   -0.677544    0.075142
      7          6           0       -2.086776   -2.057910    0.344414
      8          6           0       -0.609150   -2.491804    0.350161
      9          6           0        0.111972   -1.161396    0.434798
     10          6           0       -0.921764   -0.211127    0.041617
     11          6           0        0.611375   -0.695673    1.866573
     12          6           0       -0.315019   -3.296404   -0.946434
     13          6           0        0.851508   -4.265215   -0.841218
     14          6           0        2.046352   -3.995405   -1.833793
     15          8           0        1.969157   -3.449213   -2.962244
     16          8           0        3.181014   -4.520788   -1.284153
     17          7           0       -2.727453    2.222164   -0.459149
     18          6           0       -1.392326    2.272074   -0.391902
     19          6           0       -0.887839    3.581546   -0.776722
     20          6           0       -2.054353    4.365865   -1.081609
     21          6           0       -3.211529    3.425079   -0.918671
     22          6           0        0.589211    3.979021   -0.773481
     23          6           0       -2.130370    5.832265   -1.502628
     24          8           0       -3.179408    6.323530   -1.844233
     25          6           0       -0.862225    6.691826   -1.598573
     26          7           0       -5.781125    1.510733   -0.422592
     27          6           0       -5.747108    2.850341   -0.770308
     28          6           0       -7.115120    3.431649   -0.739633
     29          6           0       -7.986673    2.205671   -0.338468
     30          6           0       -7.005660    1.076203   -0.187620
     31          6           0       -7.232233    4.633092    0.192449
     32          6           0       -9.160342    1.923019   -1.268060
     33          6           0       -8.850958    1.156429   -2.633245
     34          7           0       -5.075532   -1.169405    0.282629
     35          6           0       -6.465861   -1.285766    0.313723
     36          6           0       -6.778290   -2.640607    0.549756
     37          6           0       -5.568449   -3.321197    0.515769
     38          6           0       -4.578642   -2.360494    0.368363
     39          6           0       -8.138777   -3.100808    0.959092
     40          6           0       -4.880820   -4.613231    0.716057
     41          8           0       -5.336474   -5.725908    0.946321
     42          6           0       -3.378727   -4.355062    0.555189
     43          6           0       -2.614711   -4.881695    1.764130
     44          8           0       -2.358431   -4.262731    2.800143
     45          8           0       -2.205281   -6.221465    1.618629
     46          6           0       -1.558026   -6.934696    2.776228
     47          6           0        4.447673   -4.385029   -2.119811
     48          6           0        5.590279   -4.236286   -1.175140
     49          6           0        6.827444   -3.623614   -1.398347
     50          6           0        7.105354   -2.931585   -2.768766
     51          6           0        8.003755   -3.724904   -0.433962
     52          6           0        8.542515   -2.378151   -0.008184
     53          6           0        9.874529   -1.936304   -0.599645
     54          6           0        9.762176   -0.416565   -1.064180
     55          6           0       10.719740    0.023528   -2.161806
     56          6           0        9.736136    0.599181    0.096735
     57          6           0        8.341143    1.245519    0.229004
     58          6           0        8.344195    2.275201    1.395348
     59          6           0        7.375510    3.418441    1.067776
     60          6           0        8.189938    4.468436    0.249181
     61          6           0        6.759236    4.047780    2.355899
     62          6           0        5.323150    3.491213    2.621818
     63          6           0        4.165087    4.115960    1.844360
     64          6           0        3.050650    4.701385    2.711310
     65          6           0        1.933598    3.540234    2.783619
     66          6           0        2.476804    5.979040    2.125250
     67          1           0        0.394672    1.269213   -0.140394
     68          1           0       -4.911524    4.704558   -1.291927
     69          1           0       -8.419633   -0.382425    0.228997
     70          1           0       -0.390560   -3.125817    1.210021
     71          1           0        0.989456   -1.040097   -0.200660
     72          1           0        1.683543   -0.498366    1.864306
     73          1           0        0.525248   -1.595388    2.474209
     74          1           0        0.129086    0.164300    2.332754
     75          1           0       -0.220398   -2.564203   -1.748104
     76          1           0       -1.166950   -3.867523   -1.315136
     77          1           0        0.451350   -5.260366   -1.036998
     78          1           0        1.206350   -4.163921    0.183967
     79          1           0        0.923540    4.303294   -1.758817
     80          1           0        1.117413    3.119144   -0.361924
     81          1           0        0.763853    4.809297   -0.088497
     82          1           0       -0.261905    6.592019   -0.695416
     83          1           0       -1.223733    7.715148   -1.697444
     84          1           0       -0.241341    6.253288   -2.379539
     85          1           0       -7.226029    3.681906   -1.794588
     86          1           0       -8.447989    2.351145    0.638317
     87          1           0       -6.819334    4.371807    1.166090
     88          1           0       -8.277441    4.903758    0.339798
     89          1           0       -6.707363    5.468074   -0.272715
     90          1           0       -9.461727    2.899824   -1.647559
     91          1           0       -9.973575    1.497505   -0.678723
     92          1           0       -9.041725    1.795396   -3.496318
     93          1           0       -9.558693    0.337072   -2.758711
     94          1           0       -7.821303    0.838240   -2.799615
     95          1           0       -8.743884   -2.870885    0.082803
     96          1           0       -8.504612   -2.692720    1.902074
     97          1           0       -7.953415   -4.165366    1.102709
     98          1           0       -3.068078   -4.900933   -0.336107
     99          1           0       -0.534963   -6.567241    2.704395
    100          1           0       -1.654506   -8.012117    2.909412
    101          1           0       -2.064494   -6.487123    3.631339
    102          1           0        4.335645   -3.601738   -2.869065
    103          1           0        4.696091   -5.315082   -2.631811
    104          1           0        5.533953   -4.933933   -0.339332
    105          1           0        6.401844   -2.126101   -2.980517
    106          1           0        6.980823   -3.616247   -3.608289
    107          1           0        8.117217   -2.538371   -2.860525
    108          1           0        8.831302   -4.102792   -1.034867
    109          1           0        7.743124   -4.333973    0.431498
    110          1           0        8.561618   -2.489659    1.075692
    111          1           0        7.811596   -1.626740   -0.308161
    112          1           0       10.186828   -2.475764   -1.493218
    113          1           0       10.635995   -2.052098    0.171992
    114          1           0        8.806211   -0.457737   -1.585588
    115          1           0       11.542769   -0.688264   -2.232513
    116          1           0       11.033498    1.066401   -2.161358
    117          1           0       10.125721   -0.220211   -3.042033
    118          1           0       10.521275    1.334151   -0.076095
    119          1           0        9.961123    0.039962    1.006232
    120          1           0        7.564320    0.541238    0.526770
    121          1           0        8.226922    1.692296   -0.758632
    122          1           0        9.349894    2.584365    1.680892
    123          1           0        8.067779    1.745746    2.306608
    124          1           0        6.560550    3.039179    0.451304
    125          1           0        8.988512    4.083307   -0.385653
    126          1           0        8.549088    5.257083    0.910338
    127          1           0        7.401563    4.856070   -0.394589
    128          1           0        6.707097    5.125626    2.203112
    129          1           0        7.450846    3.904703    3.186736
    130          1           0        5.087431    3.557237    3.684314
    131          1           0        5.310054    2.426269    2.387660
    132          1           0        3.831858    3.362879    1.130399
    133          1           0        4.543337    4.872904    1.157261
    134          1           0        3.451465    4.890023    3.706537
    135          1           0        1.871616    3.017982    1.829171
    136          1           0        0.980197    4.051388    2.914338
    137          1           0        2.003806    2.883116    3.650035
    138          1           0        2.839726    6.108822    1.105425
    139          1           0        2.713161    6.741533    2.867936
    140          1           0        1.392102    6.074991    2.183805
 ---------------------------------------------------------------------

 SCF Done:  E(RB-LYP) =  -3007.37804229     A.U. after   20 cycles

 Excitation energies and oscillator strengths:

 Excited State   1:      Singlet-A      1.8213 eV  680.75 nm  f=0.3302  <S**2>=0.000
     245 -> 248        0.15365
     246 -> 247        0.69672
     246 <- 247       -0.16185
 This state for optimization and/or second-order correction.
 Total Energy, E(TD-HF/TD-DFT) =  -3007.31111157
 Copying the excited state density for this state as the 1-particle RhoCI density.

 Excited State   2:      Singlet-A      1.9714 eV  628.92 nm  f=0.0184  <S**2>=0.000
     244 -> 247        0.63659
     245 -> 247        0.29502

 Excited State   3:      Singlet-A      2.0829 eV  595.25 nm  f=0.0820  <S**2>=0.000
     244 -> 247       -0.30351
     245 -> 247        0.58588
     246 -> 248       -0.19368
     246 -> 249        0.11095

 Excited State   4:      Singlet-A      2.0883 eV  593.72 nm  f=0.0023  <S**2>=0.000
     243 -> 247        0.70563

 Excited State   5:      Singlet-A      2.3997 eV  516.67 nm  f=0.0003  <S**2>=0.000
     241 -> 247        0.69973
     242 -> 247       -0.10082

 The electronic state is 1-A.
 Alpha  occ. eigenvalues --  -46.26441 -18.82961 -18.80739 -18.77280 -18.76583
 Alpha  occ. eigenvalues --  -18.75749 -18.75382 -14.02914 -14.02360 -14.00965
 Alpha  occ. eigenvalues --  -13.99650 -10.04883 -10.04094  -9.99961  -9.99495
 Alpha  occ. eigenvalues --   -9.98637  -9.97594  -9.96455  -9.96356  -9.95520
 Alpha  occ. eigenvalues --   -9.95494  -9.95272  -9.95269  -9.94426  -9.94366
 Alpha  occ. eigenvalues --   -9.94285  -9.94124  -9.94120  -9.94029  -9.93894
 Alpha  occ. eigenvalues --   -9.93420  -9.93374  -9.93273  -9.93066  -9.93033
 Alpha  occ. eigenvalues --   -9.92819  -9.92794  -9.92701  -9.92675  -9.92656
 Alpha  occ. eigenvalues --   -9.92553  -9.92529  -9.92504  -9.92282  -9.92218
 Alpha  occ. eigenvalues --   -9.92182  -9.92013  -9.91963  -9.91927  -9.91908
 Alpha  occ. eigenvalues --   -9.91724  -9.91702  -9.91658  -9.91640  -9.91500
 Alpha  occ. eigenvalues --   -9.91469  -9.91406  -9.91365  -9.91305  -9.91292
 Alpha  occ. eigenvalues --   -9.91072  -9.91036  -9.91008  -9.90998  -9.90769
 Alpha  occ. eigenvalues --   -9.90267  -2.91137  -1.71582  -1.70996  -1.70860
 Alpha  occ. eigenvalues --   -0.97009  -0.95514  -0.92480  -0.90961  -0.88782
 Alpha  occ. eigenvalues --   -0.87994  -0.87144  -0.86514  -0.86126  -0.85391
 Alpha  occ. eigenvalues --   -0.75258  -0.74222  -0.73298  -0.73164  -0.72359
 Alpha  occ. eigenvalues --   -0.72327  -0.71921  -0.71396  -0.71289  -0.70295
 Alpha  occ. eigenvalues --   -0.69933  -0.69610  -0.68591  -0.67163  -0.67115
 Alpha  occ. eigenvalues --   -0.66495  -0.65359  -0.65143  -0.64733  -0.64566
 Alpha  occ. eigenvalues --   -0.64309  -0.62535  -0.62169  -0.61499  -0.61240
 Alpha  occ. eigenvalues --   -0.60736  -0.60528  -0.60033  -0.59622  -0.59184
 Alpha  occ. eigenvalues --   -0.58264  -0.57926  -0.56940  -0.55711  -0.55164
 Alpha  occ. eigenvalues --   -0.53670  -0.53385  -0.52775  -0.52233  -0.51456
 Alpha  occ. eigenvalues --   -0.51359  -0.50958  -0.50757  -0.50550  -0.50079
 Alpha  occ. eigenvalues --   -0.49873  -0.49729  -0.48906  -0.47618  -0.46975
 Alpha  occ. eigenvalues --   -0.46604  -0.46089  -0.45727  -0.44558  -0.44015
 Alpha  occ. eigenvalues --   -0.43943  -0.43403  -0.42826  -0.42647  -0.42477
 Alpha  occ. eigenvalues --   -0.42255  -0.42053  -0.41748  -0.41464  -0.41308
 Alpha  occ. eigenvalues --   -0.41055  -0.40696  -0.40403  -0.40381  -0.40000
 Alpha  occ. eigenvalues --   -0.39891  -0.39633  -0.39544  -0.39471  -0.39341
 Alpha  occ. eigenvalues --   -0.39150  -0.38941  -0.38718  -0.38492  -0.38250
 Alpha  occ. eigenvalues --   -0.37906  -0.37678  -0.37585  -0.37388  -0.37301
 Alpha  occ. eigenvalues --   -0.37158  -0.37049  -0.36946  -0.36696  -0.36671
 Alpha  occ. eigenvalues --   -0.36616  -0.36260  -0.36145  -0.36001  -0.35689
 Alpha  occ. eigenvalues --   -0.35457  -0.35332  -0.35146  -0.34980  -0.34877
 Alpha  occ. eigenvalues --   -0.34742  -0.34662  -0.34569  -0.34030  -0.33920
 Alpha  occ. eigenvalues --   -0.33788  -0.33689  -0.33560  -0.33453  -0.33338
 Alpha  occ. eigenvalues --   -0.33158  -0.33119  -0.32606  -0.32496  -0.32389
 Alpha  occ. eigenvalues --   -0.32235  -0.31954  -0.31720  -0.31571  -0.31435
 Alpha  occ. eigenvalues --   -0.31206  -0.31120  -0.31006  -0.30861  -0.30707
 Alpha  occ. eigenvalues --   -0.30418  -0.30259  -0.30177  -0.29917  -0.29833
 Alpha  occ. eigenvalues --   -0.29744  -0.29524  -0.29306  -0.29210  -0.29123
 Alpha  occ. eigenvalues --   -0.28697  -0.28599  -0.28449  -0.27989  -0.27802
 Alpha  occ. eigenvalues --   -0.27765  -0.27594  -0.27530  -0.27270  -0.27019
 Alpha  occ. eigenvalues --   -0.26432  -0.25953  -0.25840  -0.25727  -0.25550
 Alpha  occ. eigenvalues --   -0.25469  -0.25094  -0.24046  -0.23545  -0.23455
 Alpha  occ. eigenvalues --   -0.22625  -0.22166  -0.21938  -0.21558  -0.20858
 Alpha  occ. eigenvalues --   -0.20152  -0.20071  -0.18928  -0.18541  -0.17115
 Alpha  occ. eigenvalues --   -0.15503
 Alpha virt. eigenvalues --   -0.11333  -0.06275  -0.05417  -0.04379  -0.03544
 Alpha virt. eigenvalues --   -0.03032  -0.02633  -0.01424  -0.00610   0.00354
 Alpha virt. eigenvalues --    0.01174   0.01391   0.01895   0.01963   0.02530

 Mulliken charges:
               1
     1  Mg   0.691614
     2  C    0.035231
     3  C   -0.054073
     4  C   -0.049619
     5  C   -0.091175
     6  N   -0.234288
     7  C   -0.083207
     8  C    0.051511
     9  C    0.029586
    10  C   -0.026992
    11  C    0.117245
    12  C    0.108679
    13  C    0.130307
    14  C    0.098316
    15  O   -0.216880
    16  O   -0.272284
    17  N   -0.308970
    18  C    0.143545
    19  C   -0.139501
    20  C    0.025546
    21  C    0.074673
    22  C    0.169496
    23  C   -0.097466
    24  O   -0.146970
    25  C    0.135559
    26  N   -0.207050
    27  C    0.020599
    28  C    0.049201
    29  C    0.067648
    30  C   -0.004520
    31  C    0.143626
    32  C    0.068006
    33  C    0.047922
    34  N   -0.186944
    35  C    0.133303
    36  C   -0.229610
    37  C    0.104240
    38  C    0.020716
    39  C    0.174605
    40  C   -0.068529
    41  O   -0.128778
    42  C    0.090004
    43  C    0.117513
    44  O   -0.196679
    45  O   -0.310409
    46  C    0.217859
    47  C    0.310214
    48  C   -0.121008
    49  C   -0.162890
    50  C    0.103413
    51  C    0.197770
    52  C    0.035135
    53  C    0.108597
    54  C   -0.133966
    55  C    0.136205
    56  C    0.121488
    57  C    0.032809
    58  C    0.115423
    59  C   -0.090088
    60  C    0.105488
    61  C    0.134112
    62  C    0.065827
    63  C    0.101982
    64  C   -0.106811
    65  C    0.085481
    66  C    0.128282
    67  H   -0.077458
    68  H   -0.041131
    69  H   -0.074345
    70  H   -0.017809
    71  H   -0.023145
    72  H   -0.014687
    73  H   -0.010860
    74  H    0.021037
    75  H   -0.021425
    76  H   -0.029037
    77  H    0.021396
    78  H   -0.003572
    79  H    0.003933
    80  H   -0.004085
    81  H    0.002062
    82  H   -0.009827
    83  H    0.004842
    84  H    0.010967
    85  H   -0.025405
    86  H   -0.036851
    87  H   -0.006625
    88  H   -0.013561
    89  H    0.006049
    90  H   -0.021499
    91  H   -0.014308
    92  H   -0.018667
    93  H   -0.006602
    94  H    0.011555
    95  H    0.005547
    96  H    0.010988
    97  H    0.004566
    98  H    0.012421
    99  H    0.012390
   100  H    0.033954
   101  H    0.016714
   102  H    0.011367
   103  H    0.013976
   104  H   -0.028831
   105  H    0.010533
   106  H    0.000447
   107  H   -0.010744
   108  H   -0.032065
   109  H   -0.034063
   110  H   -0.026026
   111  H   -0.003609
   112  H   -0.035358
   113  H   -0.028388
   114  H   -0.038714
   115  H   -0.025335
   116  H   -0.005095
   117  H   -0.031361
   118  H   -0.030527
   119  H   -0.043180
   120  H   -0.007503
   121  H   -0.019376
   122  H   -0.041505
   123  H   -0.052606
   124  H   -0.035489
   125  H   -0.012888
   126  H   -0.009525
   127  H   -0.021786
   128  H   -0.044529
   129  H   -0.036346
   130  H   -0.036185
   131  H   -0.036996
   132  H   -0.037404
   133  H   -0.046490
   134  H   -0.026857
   135  H   -0.012038
   136  H   -0.026745
   137  H   -0.007138
   138  H    0.003015
   139  H   -0.021256
   140  H   -0.020969
 Sum of Mulliken charges =  -0.00000

 Dipole moment (field-independent basis, Debye):
    X=              4.8234    Y=              1.4324    Z=              0.9239  Tot=              5.1158
 Quadrupole moment (field-independent basis, Debye-Ang):
   XX=           -373.6494   YY=           -421.8545   ZZ=           -411.0697
   XY=            -25.8976   XZ=              0.0205   YZ=              7.7400

 Normal termination of Gaussian 16 at Wed Apr 27 13:55:36 2022.
