 Gaussian 16, Revision A.03,
 Gaussian 16:  ES64L-G16RevA.03 25-Dec-2016

 -----------------------------------
 #p cam-b3lyp/Def2SVP td=(nstates=5)
 -----------------------------------

 --------------------------------------------------------
 step_1201_chromophore_12 TDDFT with cam-b3lyp functional
 --------------------------------------------------------
 Symbolic Z-matrix:
 Charge =  0 Multiplicity = 1

                         Standard orientation:
 ---------------------------------------------------------------------
 Center     Atomic      Atomic             Coordinates (Angstroms)
 Number     Number       Type             X           Y           Z
 ---------------------------------------------------------------------
      1         12           0       -3.862328    0.604896   -0.093985
      2          6           0       -3.237734   -2.834475    0.438377
      3          6           0       -0.686203    1.125321   -0.080136
      4          6           0       -4.672184    3.689979   -0.968896
      5          6           0       -7.346483   -0.204368    0.134591
      6          7           0       -2.166435   -0.677544    0.075142
      7          6           0       -2.086776   -2.057910    0.344414
      8          6           0       -0.609150   -2.491804    0.350161
      9          6           0        0.111972   -1.161396    0.434798
     10          6           0       -0.921764   -0.211127    0.041617
     11          6           0        0.611375   -0.695673    1.866573
     12          6           0       -0.315019   -3.296404   -0.946434
     13          6           0        0.851508   -4.265215   -0.841218
     14          6           0        2.046352   -3.995405   -1.833793
     15          8           0        1.969157   -3.449213   -2.962244
     16          8           0        3.181014   -4.520788   -1.284153
     17          7           0       -2.727453    2.222164   -0.459149
     18          6           0       -1.392326    2.272074   -0.391902
     19          6           0       -0.887839    3.581546   -0.776722
     20          6           0       -2.054353    4.365865   -1.081609
     21          6           0       -3.211529    3.425079   -0.918671
     22          6           0        0.589211    3.979021   -0.773481
     23          6           0       -2.130370    5.832265   -1.502628
     24          8           0       -3.179408    6.323530   -1.844233
     25          6           0       -0.862225    6.691826   -1.598573
     26          7           0       -5.781125    1.510733   -0.422592
     27          6           0       -5.747108    2.850341   -0.770308
     28          6           0       -7.115120    3.431649   -0.739633
     29          6           0       -7.986673    2.205671   -0.338468
     30          6           0       -7.005660    1.076203   -0.187620
     31          6           0       -7.232233    4.633092    0.192449
     32          6           0       -9.160342    1.923019   -1.268060
     33          6           0       -8.850958    1.156429   -2.633245
     34          7           0       -5.075532   -1.169405    0.282629
     35          6           0       -6.465861   -1.285766    0.313723
     36          6           0       -6.778290   -2.640607    0.549756
     37          6           0       -5.568449   -3.321197    0.515769
     38          6           0       -4.578642   -2.360494    0.368363
     39          6           0       -8.138777   -3.100808    0.959092
     40          6           0       -4.880820   -4.613231    0.716057
     41          8           0       -5.336474   -5.725908    0.946321
     42          6           0       -3.378727   -4.355062    0.555189
     43          6           0       -2.614711   -4.881695    1.764130
     44          8           0       -2.358431   -4.262731    2.800143
     45          8           0       -2.205281   -6.221465    1.618629
     46          6           0       -1.558026   -6.934696    2.776228
     47          6           0        4.447673   -4.385029   -2.119811
     48          6           0        5.590279   -4.236286   -1.175140
     49          6           0        6.827444   -3.623614   -1.398347
     50          6           0        7.105354   -2.931585   -2.768766
     51          6           0        8.003755   -3.724904   -0.433962
     52          6           0        8.542515   -2.378151   -0.008184
     53          6           0        9.874529   -1.936304   -0.599645
     54          6           0        9.762176   -0.416565   -1.064180
     55          6           0       10.719740    0.023528   -2.161806
     56          6           0        9.736136    0.599181    0.096735
     57          6           0        8.341143    1.245519    0.229004
     58          6           0        8.344195    2.275201    1.395348
     59          6           0        7.375510    3.418441    1.067776
     60          6           0        8.189938    4.468436    0.249181
     61          6           0        6.759236    4.047780    2.355899
     62          6           0        5.323150    3.491213    2.621818
     63          6           0        4.165087    4.115960    1.844360
     64          6           0        3.050650    4.701385    2.711310
     65          6           0        1.933598    3.540234    2.783619
     66          6           0        2.476804    5.979040    2.125250
     67          1           0        0.394672    1.269213   -0.140394
     68          1           0       -4.911524    4.704558   -1.291927
     69          1           0       -8.419633   -0.382425    0.228997
     70          1           0       -0.390560   -3.125817    1.210021
     71          1           0        0.989456   -1.040097   -0.200660
     72          1           0        1.683543   -0.498366    1.864306
     73          1           0        0.525248   -1.595388    2.474209
     74          1           0        0.129086    0.164300    2.332754
     75          1           0       -0.220398   -2.564203   -1.748104
     76          1           0       -1.166950   -3.867523   -1.315136
     77          1           0        0.451350   -5.260366   -1.036998
     78          1           0        1.206350   -4.163921    0.183967
     79          1           0        0.923540    4.303294   -1.758817
     80          1           0        1.117413    3.119144   -0.361924
     81          1           0        0.763853    4.809297   -0.088497
     82          1           0       -0.261905    6.592019   -0.695416
     83          1           0       -1.223733    7.715148   -1.697444
     84          1           0       -0.241341    6.253288   -2.379539
     85          1           0       -7.226029    3.681906   -1.794588
     86          1           0       -8.447989    2.351145    0.638317
     87          1           0       -6.819334    4.371807    1.166090
     88          1           0       -8.277441    4.903758    0.339798
     89          1           0       -6.707363    5.468074   -0.272715
     90          1           0       -9.461727    2.899824   -1.647559
     91          1           0       -9.973575    1.497505   -0.678723
     92          1           0       -9.041725    1.795396   -3.496318
     93          1           0       -9.558693    0.337072   -2.758711
     94          1           0       -7.821303    0.838240   -2.799615
     95          1           0       -8.743884   -2.870885    0.082803
     96          1           0       -8.504612   -2.692720    1.902074
     97          1           0       -7.953415   -4.165366    1.102709
     98          1           0       -3.068078   -4.900933   -0.336107
     99          1           0       -0.534963   -6.567241    2.704395
    100          1           0       -1.654506   -8.012117    2.909412
    101          1           0       -2.064494   -6.487123    3.631339
    102          1           0        4.335645   -3.601738   -2.869065
    103          1           0        4.696091   -5.315082   -2.631811
    104          1           0        5.533953   -4.933933   -0.339332
    105          1           0        6.401844   -2.126101   -2.980517
    106          1           0        6.980823   -3.616247   -3.608289
    107          1           0        8.117217   -2.538371   -2.860525
    108          1           0        8.831302   -4.102792   -1.034867
    109          1           0        7.743124   -4.333973    0.431498
    110          1           0        8.561618   -2.489659    1.075692
    111          1           0        7.811596   -1.626740   -0.308161
    112          1           0       10.186828   -2.475764   -1.493218
    113          1           0       10.635995   -2.052098    0.171992
    114          1           0        8.806211   -0.457737   -1.585588
    115          1           0       11.542769   -0.688264   -2.232513
    116          1           0       11.033498    1.066401   -2.161358
    117          1           0       10.125721   -0.220211   -3.042033
    118          1           0       10.521275    1.334151   -0.076095
    119          1           0        9.961123    0.039962    1.006232
    120          1           0        7.564320    0.541238    0.526770
    121          1           0        8.226922    1.692296   -0.758632
    122          1           0        9.349894    2.584365    1.680892
    123          1           0        8.067779    1.745746    2.306608
    124          1           0        6.560550    3.039179    0.451304
    125          1           0        8.988512    4.083307   -0.385653
    126          1           0        8.549088    5.257083    0.910338
    127          1           0        7.401563    4.856070   -0.394589
    128          1           0        6.707097    5.125626    2.203112
    129          1           0        7.450846    3.904703    3.186736
    130          1           0        5.087431    3.557237    3.684314
    131          1           0        5.310054    2.426269    2.387660
    132          1           0        3.831858    3.362879    1.130399
    133          1           0        4.543337    4.872904    1.157261
    134          1           0        3.451465    4.890023    3.706537
    135          1           0        1.871616    3.017982    1.829171
    136          1           0        0.980197    4.051388    2.914338
    137          1           0        2.003806    2.883116    3.650035
    138          1           0        2.839726    6.108822    1.105425
    139          1           0        2.713161    6.741533    2.867936
    140          1           0        1.392102    6.074991    2.183805
 ---------------------------------------------------------------------

 SCF Done:  E(RCAM-B3LYP) =  -3007.17864081     A.U. after   17 cycles

 Excitation energies and oscillator strengths:

 Excited State   1:      Singlet-A      1.6952 eV  731.39 nm  f=0.4247  <S**2>=0.000
     245 -> 248        0.15863
     246 -> 247        0.69021
     245 <- 248        0.10191
 This state for optimization and/or second-order correction.
 Total Energy, E(TD-HF/TD-DFT) =  -3007.11634410
 Copying the excited state density for this state as the 1-particle RhoCI density.

 Excited State   2:      Singlet-A      2.2603 eV  548.53 nm  f=0.1386  <S**2>=0.000
     245 -> 247        0.64802
     246 -> 248       -0.26431

 Excited State   3:      Singlet-A      3.3465 eV  370.49 nm  f=0.0017  <S**2>=0.000
     244 -> 247        0.68528

 Excited State   4:      Singlet-A      3.5732 eV  346.98 nm  f=0.0409  <S**2>=0.000
     240 -> 247       -0.10853
     241 -> 247       -0.21674
     241 -> 249        0.18144
     241 -> 250        0.12168
     242 -> 247        0.53183
     246 -> 248        0.27120

 Excited State   5:      Singlet-A      3.5880 eV  345.56 nm  f=0.1086  <S**2>=0.000
     241 -> 247        0.51253
     241 -> 249       -0.17300
     241 -> 250       -0.14178
     242 -> 247        0.16523
     245 -> 247        0.11131
     246 -> 248        0.32832

 The electronic state is 1-A.
 Alpha  occ. eigenvalues --  -46.87946 -19.25886 -19.23625 -19.20210 -19.19764
 Alpha  occ. eigenvalues --  -19.19093 -19.18594 -14.41888 -14.41102 -14.39514
 Alpha  occ. eigenvalues --  -14.37935 -10.40290 -10.39746 -10.35250 -10.34824
 Alpha  occ. eigenvalues --  -10.32835 -10.31662 -10.31114 -10.30859 -10.29939
 Alpha  occ. eigenvalues --  -10.29930 -10.29661 -10.29454 -10.28927 -10.28825
 Alpha  occ. eigenvalues --  -10.28652 -10.28323 -10.28174 -10.28057 -10.27830
 Alpha  occ. eigenvalues --  -10.27650 -10.27575 -10.27502 -10.27477 -10.26790
 Alpha  occ. eigenvalues --  -10.26591 -10.26587 -10.26571 -10.26568 -10.26495
 Alpha  occ. eigenvalues --  -10.26460 -10.26379 -10.26369 -10.26312 -10.26259
 Alpha  occ. eigenvalues --  -10.26216 -10.25843 -10.25710 -10.25696 -10.25652
 Alpha  occ. eigenvalues --  -10.25617 -10.25519 -10.25317 -10.25262 -10.25246
 Alpha  occ. eigenvalues --  -10.25167 -10.25151 -10.25086 -10.25037 -10.25009
 Alpha  occ. eigenvalues --  -10.24799 -10.24736 -10.24635 -10.24625 -10.24467
 Alpha  occ. eigenvalues --  -10.24244  -3.16551  -1.91472  -1.90990  -1.90869
 Alpha  occ. eigenvalues --   -1.15403  -1.14063  -1.11054  -1.09382  -1.06587
 Alpha  occ. eigenvalues --   -1.05852  -1.04928  -1.04190  -1.03745  -1.02995
 Alpha  occ. eigenvalues --   -0.92409  -0.91144  -0.90146  -0.90000  -0.89117
 Alpha  occ. eigenvalues --   -0.88983  -0.88574  -0.88002  -0.87926  -0.87009
 Alpha  occ. eigenvalues --   -0.86516  -0.85975  -0.84924  -0.83316  -0.83270
 Alpha  occ. eigenvalues --   -0.82663  -0.81375  -0.81192  -0.80657  -0.80382
 Alpha  occ. eigenvalues --   -0.80137  -0.78294  -0.77856  -0.76928  -0.76683
 Alpha  occ. eigenvalues --   -0.76141  -0.75976  -0.75299  -0.74958  -0.74478
 Alpha  occ. eigenvalues --   -0.73306  -0.72956  -0.71855  -0.70524  -0.69770
 Alpha  occ. eigenvalues --   -0.68352  -0.67977  -0.67278  -0.66590  -0.65714
 Alpha  occ. eigenvalues --   -0.65590  -0.65054  -0.64716  -0.64706  -0.64025
 Alpha  occ. eigenvalues --   -0.63913  -0.63563  -0.62811  -0.61258  -0.60590
 Alpha  occ. eigenvalues --   -0.60162  -0.59788  -0.59287  -0.57874  -0.57535
 Alpha  occ. eigenvalues --   -0.57172  -0.56850  -0.55834  -0.55716  -0.55570
 Alpha  occ. eigenvalues --   -0.55256  -0.55213  -0.54736  -0.54555  -0.54454
 Alpha  occ. eigenvalues --   -0.53782  -0.53750  -0.53325  -0.53104  -0.52883
 Alpha  occ. eigenvalues --   -0.52471  -0.52444  -0.52313  -0.52166  -0.51976
 Alpha  occ. eigenvalues --   -0.51782  -0.51485  -0.51150  -0.50977  -0.50659
 Alpha  occ. eigenvalues --   -0.50278  -0.50043  -0.49957  -0.49877  -0.49746
 Alpha  occ. eigenvalues --   -0.49655  -0.49449  -0.49198  -0.48941  -0.48833
 Alpha  occ. eigenvalues --   -0.48792  -0.48747  -0.48457  -0.48184  -0.48020
 Alpha  occ. eigenvalues --   -0.47666  -0.47575  -0.47421  -0.47008  -0.46848
 Alpha  occ. eigenvalues --   -0.46664  -0.46490  -0.46376  -0.45819  -0.45690
 Alpha  occ. eigenvalues --   -0.45644  -0.45452  -0.45377  -0.45311  -0.44960
 Alpha  occ. eigenvalues --   -0.44898  -0.44839  -0.44494  -0.44440  -0.44201
 Alpha  occ. eigenvalues --   -0.44097  -0.43594  -0.43305  -0.43031  -0.42939
 Alpha  occ. eigenvalues --   -0.42803  -0.42583  -0.42519  -0.42380  -0.42092
 Alpha  occ. eigenvalues --   -0.41881  -0.41544  -0.41456  -0.41444  -0.41031
 Alpha  occ. eigenvalues --   -0.40976  -0.40647  -0.40353  -0.40277  -0.40167
 Alpha  occ. eigenvalues --   -0.39813  -0.39700  -0.39682  -0.39422  -0.39002
 Alpha  occ. eigenvalues --   -0.38812  -0.38698  -0.38385  -0.38090  -0.37885
 Alpha  occ. eigenvalues --   -0.37834  -0.36868  -0.36631  -0.36522  -0.36428
 Alpha  occ. eigenvalues --   -0.36400  -0.35676  -0.35668  -0.34298  -0.33999
 Alpha  occ. eigenvalues --   -0.33899  -0.33606  -0.32746  -0.31337  -0.31181
 Alpha  occ. eigenvalues --   -0.30602  -0.30266  -0.29642  -0.29294  -0.23949
 Alpha  occ. eigenvalues --   -0.20765
 Alpha virt. eigenvalues --   -0.08579  -0.00778   0.00994   0.02568   0.03935
 Alpha virt. eigenvalues --    0.04053   0.04688   0.04988   0.05320   0.07021
 Alpha virt. eigenvalues --    0.07336   0.07968   0.08203   0.08816   0.08973

 Mulliken charges:
               1
     1  Mg   0.828191
     2  C    0.004190
     3  C   -0.074629
     4  C   -0.069739
     5  C   -0.094721
     6  N   -0.303092
     7  C   -0.040296
     8  C   -0.002631
     9  C   -0.033226
    10  C    0.005232
    11  C    0.063982
    12  C    0.055672
    13  C    0.061800
    14  C    0.181029
    15  O   -0.261660
    16  O   -0.338673
    17  N   -0.399496
    18  C    0.152051
    19  C   -0.143058
    20  C   -0.043569
    21  C    0.102967
    22  C    0.126649
    23  C   -0.018236
    24  O   -0.187559
    25  C    0.059935
    26  N   -0.282392
    27  C    0.048946
    28  C   -0.020118
    29  C    0.012366
    30  C    0.014481
    31  C    0.085807
    32  C    0.012338
    33  C   -0.013229
    34  N   -0.275669
    35  C    0.132948
    36  C   -0.217614
    37  C    0.017456
    38  C    0.059159
    39  C    0.119621
    40  C    0.036365
    41  O   -0.167164
    42  C    0.014039
    43  C    0.207749
    44  O   -0.233368
    45  O   -0.376599
    46  C    0.181454
    47  C    0.278448
    48  C   -0.139540
    49  C   -0.181378
    50  C    0.041731
    51  C    0.135802
    52  C   -0.021380
    53  C    0.055266
    54  C   -0.183908
    55  C    0.076074
    56  C    0.066841
    57  C   -0.017964
    58  C    0.061710
    59  C   -0.146850
    60  C    0.049994
    61  C    0.078938
    62  C    0.013300
    63  C    0.047604
    64  C   -0.164920
    65  C    0.037577
    66  C    0.063901
    67  H   -0.045823
    68  H   -0.002051
    69  H   -0.036987
    70  H    0.015452
    71  H    0.013054
    72  H    0.009773
    73  H    0.014431
    74  H    0.045028
    75  H    0.014238
    76  H    0.002700
    77  H    0.052876
    78  H    0.029011
    79  H    0.031091
    80  H    0.017015
    81  H    0.023001
    82  H    0.016342
    83  H    0.039273
    84  H    0.036740
    85  H    0.009960
    86  H    0.000537
    87  H    0.018193
    88  H    0.011289
    89  H    0.029305
    90  H    0.007550
    91  H    0.012896
    92  H    0.005464
    93  H    0.017023
    94  H    0.034159
    95  H    0.028651
    96  H    0.036747
    97  H    0.031468
    98  H    0.053780
    99  H    0.033559
   100  H    0.056045
   101  H    0.041768
   102  H    0.042889
   103  H    0.040446
   104  H    0.004841
   105  H    0.034802
   106  H    0.026062
   107  H    0.010440
   108  H   -0.000743
   109  H   -0.001513
   110  H    0.003892
   111  H    0.021359
   112  H   -0.008128
   113  H    0.001247
   114  H   -0.009535
   115  H    0.000222
   116  H    0.019278
   117  H   -0.007699
   118  H   -0.002368
   119  H   -0.014668
   120  H    0.018506
   121  H    0.005539
   122  H   -0.011721
   123  H   -0.022317
   124  H   -0.005064
   125  H    0.010017
   126  H    0.014085
   127  H    0.001493
   128  H   -0.014523
   129  H   -0.005936
   130  H   -0.007237
   131  H   -0.009392
   132  H   -0.010282
   133  H   -0.018426
   134  H    0.005252
   135  H    0.000808
   136  H   -0.003056
   137  H    0.017143
   138  H    0.023590
   139  H    0.006032
   140  H    0.002172
 Sum of Mulliken charges =  -0.00000

 Dipole moment (field-independent basis, Debye):
    X=              5.3551    Y=              1.8364    Z=              0.9447  Tot=              5.7395
 Quadrupole moment (field-independent basis, Debye-Ang):
   XX=           -373.8701   YY=           -418.1030   ZZ=           -411.1383
   XY=            -26.4836   XZ=             -0.1269   YZ=              6.7165

 Normal termination of Gaussian 16 at Wed Apr 27 12:54:00 2022.
