 Gaussian 16, Revision A.03,
 Gaussian 16:  ES64L-G16RevA.03 25-Dec-2016

 ---------------------------------
 #p PBE1PBE/Def2SVP td=(nstates=5)
 ---------------------------------

 ------------------------------------------------------
 step_1201_chromophore_12 TDDFT with PBE1PBE functional
 ------------------------------------------------------
 Symbolic Z-matrix:
 Charge =  0 Multiplicity = 1

                         Standard orientation:
 ---------------------------------------------------------------------
 Center     Atomic      Atomic             Coordinates (Angstroms)
 Number     Number       Type             X           Y           Z
 ---------------------------------------------------------------------
      1         12           0       -3.862328    0.604896   -0.093985
      2          6           0       -3.237734   -2.834475    0.438377
      3          6           0       -0.686203    1.125321   -0.080136
      4          6           0       -4.672184    3.689979   -0.968896
      5          6           0       -7.346483   -0.204368    0.134591
      6          7           0       -2.166435   -0.677544    0.075142
      7          6           0       -2.086776   -2.057910    0.344414
      8          6           0       -0.609150   -2.491804    0.350161
      9          6           0        0.111972   -1.161396    0.434798
     10          6           0       -0.921764   -0.211127    0.041617
     11          6           0        0.611375   -0.695673    1.866573
     12          6           0       -0.315019   -3.296404   -0.946434
     13          6           0        0.851508   -4.265215   -0.841218
     14          6           0        2.046352   -3.995405   -1.833793
     15          8           0        1.969157   -3.449213   -2.962244
     16          8           0        3.181014   -4.520788   -1.284153
     17          7           0       -2.727453    2.222164   -0.459149
     18          6           0       -1.392326    2.272074   -0.391902
     19          6           0       -0.887839    3.581546   -0.776722
     20          6           0       -2.054353    4.365865   -1.081609
     21          6           0       -3.211529    3.425079   -0.918671
     22          6           0        0.589211    3.979021   -0.773481
     23          6           0       -2.130370    5.832265   -1.502628
     24          8           0       -3.179408    6.323530   -1.844233
     25          6           0       -0.862225    6.691826   -1.598573
     26          7           0       -5.781125    1.510733   -0.422592
     27          6           0       -5.747108    2.850341   -0.770308
     28          6           0       -7.115120    3.431649   -0.739633
     29          6           0       -7.986673    2.205671   -0.338468
     30          6           0       -7.005660    1.076203   -0.187620
     31          6           0       -7.232233    4.633092    0.192449
     32          6           0       -9.160342    1.923019   -1.268060
     33          6           0       -8.850958    1.156429   -2.633245
     34          7           0       -5.075532   -1.169405    0.282629
     35          6           0       -6.465861   -1.285766    0.313723
     36          6           0       -6.778290   -2.640607    0.549756
     37          6           0       -5.568449   -3.321197    0.515769
     38          6           0       -4.578642   -2.360494    0.368363
     39          6           0       -8.138777   -3.100808    0.959092
     40          6           0       -4.880820   -4.613231    0.716057
     41          8           0       -5.336474   -5.725908    0.946321
     42          6           0       -3.378727   -4.355062    0.555189
     43          6           0       -2.614711   -4.881695    1.764130
     44          8           0       -2.358431   -4.262731    2.800143
     45          8           0       -2.205281   -6.221465    1.618629
     46          6           0       -1.558026   -6.934696    2.776228
     47          6           0        4.447673   -4.385029   -2.119811
     48          6           0        5.590279   -4.236286   -1.175140
     49          6           0        6.827444   -3.623614   -1.398347
     50          6           0        7.105354   -2.931585   -2.768766
     51          6           0        8.003755   -3.724904   -0.433962
     52          6           0        8.542515   -2.378151   -0.008184
     53          6           0        9.874529   -1.936304   -0.599645
     54          6           0        9.762176   -0.416565   -1.064180
     55          6           0       10.719740    0.023528   -2.161806
     56          6           0        9.736136    0.599181    0.096735
     57          6           0        8.341143    1.245519    0.229004
     58          6           0        8.344195    2.275201    1.395348
     59          6           0        7.375510    3.418441    1.067776
     60          6           0        8.189938    4.468436    0.249181
     61          6           0        6.759236    4.047780    2.355899
     62          6           0        5.323150    3.491213    2.621818
     63          6           0        4.165087    4.115960    1.844360
     64          6           0        3.050650    4.701385    2.711310
     65          6           0        1.933598    3.540234    2.783619
     66          6           0        2.476804    5.979040    2.125250
     67          1           0        0.394672    1.269213   -0.140394
     68          1           0       -4.911524    4.704558   -1.291927
     69          1           0       -8.419633   -0.382425    0.228997
     70          1           0       -0.390560   -3.125817    1.210021
     71          1           0        0.989456   -1.040097   -0.200660
     72          1           0        1.683543   -0.498366    1.864306
     73          1           0        0.525248   -1.595388    2.474209
     74          1           0        0.129086    0.164300    2.332754
     75          1           0       -0.220398   -2.564203   -1.748104
     76          1           0       -1.166950   -3.867523   -1.315136
     77          1           0        0.451350   -5.260366   -1.036998
     78          1           0        1.206350   -4.163921    0.183967
     79          1           0        0.923540    4.303294   -1.758817
     80          1           0        1.117413    3.119144   -0.361924
     81          1           0        0.763853    4.809297   -0.088497
     82          1           0       -0.261905    6.592019   -0.695416
     83          1           0       -1.223733    7.715148   -1.697444
     84          1           0       -0.241341    6.253288   -2.379539
     85          1           0       -7.226029    3.681906   -1.794588
     86          1           0       -8.447989    2.351145    0.638317
     87          1           0       -6.819334    4.371807    1.166090
     88          1           0       -8.277441    4.903758    0.339798
     89          1           0       -6.707363    5.468074   -0.272715
     90          1           0       -9.461727    2.899824   -1.647559
     91          1           0       -9.973575    1.497505   -0.678723
     92          1           0       -9.041725    1.795396   -3.496318
     93          1           0       -9.558693    0.337072   -2.758711
     94          1           0       -7.821303    0.838240   -2.799615
     95          1           0       -8.743884   -2.870885    0.082803
     96          1           0       -8.504612   -2.692720    1.902074
     97          1           0       -7.953415   -4.165366    1.102709
     98          1           0       -3.068078   -4.900933   -0.336107
     99          1           0       -0.534963   -6.567241    2.704395
    100          1           0       -1.654506   -8.012117    2.909412
    101          1           0       -2.064494   -6.487123    3.631339
    102          1           0        4.335645   -3.601738   -2.869065
    103          1           0        4.696091   -5.315082   -2.631811
    104          1           0        5.533953   -4.933933   -0.339332
    105          1           0        6.401844   -2.126101   -2.980517
    106          1           0        6.980823   -3.616247   -3.608289
    107          1           0        8.117217   -2.538371   -2.860525
    108          1           0        8.831302   -4.102792   -1.034867
    109          1           0        7.743124   -4.333973    0.431498
    110          1           0        8.561618   -2.489659    1.075692
    111          1           0        7.811596   -1.626740   -0.308161
    112          1           0       10.186828   -2.475764   -1.493218
    113          1           0       10.635995   -2.052098    0.171992
    114          1           0        8.806211   -0.457737   -1.585588
    115          1           0       11.542769   -0.688264   -2.232513
    116          1           0       11.033498    1.066401   -2.161358
    117          1           0       10.125721   -0.220211   -3.042033
    118          1           0       10.521275    1.334151   -0.076095
    119          1           0        9.961123    0.039962    1.006232
    120          1           0        7.564320    0.541238    0.526770
    121          1           0        8.226922    1.692296   -0.758632
    122          1           0        9.349894    2.584365    1.680892
    123          1           0        8.067779    1.745746    2.306608
    124          1           0        6.560550    3.039179    0.451304
    125          1           0        8.988512    4.083307   -0.385653
    126          1           0        8.549088    5.257083    0.910338
    127          1           0        7.401563    4.856070   -0.394589
    128          1           0        6.707097    5.125626    2.203112
    129          1           0        7.450846    3.904703    3.186736
    130          1           0        5.087431    3.557237    3.684314
    131          1           0        5.310054    2.426269    2.387660
    132          1           0        3.831858    3.362879    1.130399
    133          1           0        4.543337    4.872904    1.157261
    134          1           0        3.451465    4.890023    3.706537
    135          1           0        1.871616    3.017982    1.829171
    136          1           0        0.980197    4.051388    2.914338
    137          1           0        2.003806    2.883116    3.650035
    138          1           0        2.839726    6.108822    1.105425
    139          1           0        2.713161    6.741533    2.867936
    140          1           0        1.392102    6.074991    2.183805
 ---------------------------------------------------------------------

 SCF Done:  E(RPBE1PBE) =  -3005.36736354     A.U. after   15 cycles

 Excitation energies and oscillator strengths:

 Excited State   1:      Singlet-A      1.8577 eV  667.40 nm  f=0.4073  <S**2>=0.000
     245 -> 248        0.14894
     246 -> 247        0.69844
     246 <- 247       -0.12037
 This state for optimization and/or second-order correction.
 Total Energy, E(TD-HF/TD-DFT) =  -3005.29909371
 Copying the excited state density for this state as the 1-particle RhoCI density.

 Excited State   2:      Singlet-A      2.2709 eV  545.98 nm  f=0.1313  <S**2>=0.000
     245 -> 247        0.65734
     246 -> 248       -0.23498

 Excited State   3:      Singlet-A      2.9984 eV  413.50 nm  f=0.0024  <S**2>=0.000
     242 -> 247        0.25505
     243 -> 247        0.20735
     244 -> 247        0.60917

 Excited State   4:      Singlet-A      3.0813 eV  402.37 nm  f=0.0033  <S**2>=0.000
     241 -> 247       -0.10276
     242 -> 247        0.62116
     242 -> 249       -0.10671
     244 -> 247       -0.25873

 Excited State   5:      Singlet-A      3.2162 eV  385.50 nm  f=0.0003  <S**2>=0.000
     240 -> 247        0.33954
     241 -> 247        0.58426

 The electronic state is 1-A.
 Alpha  occ. eigenvalues --  -46.91334 -19.26603 -19.24313 -19.20554 -19.19989
 Alpha  occ. eigenvalues --  -19.19230 -19.18830 -14.41362 -14.40639 -14.39115
 Alpha  occ. eigenvalues --  -14.37622 -10.37371 -10.36773 -10.32332 -10.31989
 Alpha  occ. eigenvalues --  -10.30231 -10.28887 -10.28780 -10.28667 -10.27627
 Alpha  occ. eigenvalues --  -10.27529 -10.27241 -10.27200 -10.26516 -10.26445
 Alpha  occ. eigenvalues --  -10.26364 -10.26137 -10.25986 -10.25588 -10.25553
 Alpha  occ. eigenvalues --  -10.25378 -10.25310 -10.25195 -10.24862 -10.24435
 Alpha  occ. eigenvalues --  -10.24385 -10.24251 -10.24194 -10.24179 -10.24156
 Alpha  occ. eigenvalues --  -10.24126 -10.24046 -10.24017 -10.23776 -10.23763
 Alpha  occ. eigenvalues --  -10.23613 -10.23506 -10.23394 -10.23294 -10.23253
 Alpha  occ. eigenvalues --  -10.23217 -10.23117 -10.22885 -10.22728 -10.22725
 Alpha  occ. eigenvalues --  -10.22703 -10.22695 -10.22614 -10.22434 -10.22387
 Alpha  occ. eigenvalues --  -10.22342 -10.22288 -10.22034 -10.22034 -10.22023
 Alpha  occ. eigenvalues --  -10.22014  -3.13519  -1.86382  -1.85877  -1.85760
 Alpha  occ. eigenvalues --   -1.10226  -1.08791  -1.05741  -1.04135  -1.01462
 Alpha  occ. eigenvalues --   -1.00676  -0.99558  -0.98845  -0.98428  -0.97653
 Alpha  occ. eigenvalues --   -0.86769  -0.85247  -0.84337  -0.84128  -0.83347
 Alpha  occ. eigenvalues --   -0.83230  -0.82882  -0.82315  -0.82062  -0.81244
 Alpha  occ. eigenvalues --   -0.80855  -0.80199  -0.79145  -0.77648  -0.77448
 Alpha  occ. eigenvalues --   -0.76925  -0.75535  -0.75365  -0.74885  -0.74576
 Alpha  occ. eigenvalues --   -0.74452  -0.72573  -0.72098  -0.71239  -0.70828
 Alpha  occ. eigenvalues --   -0.70454  -0.70049  -0.69657  -0.69060  -0.68642
 Alpha  occ. eigenvalues --   -0.67671  -0.67384  -0.66253  -0.64843  -0.64178
 Alpha  occ. eigenvalues --   -0.62731  -0.62200  -0.61766  -0.60848  -0.60085
 Alpha  occ. eigenvalues --   -0.59851  -0.59552  -0.59275  -0.58811  -0.58602
 Alpha  occ. eigenvalues --   -0.58119  -0.58014  -0.56992  -0.55864  -0.55032
 Alpha  occ. eigenvalues --   -0.54620  -0.54317  -0.53888  -0.52543  -0.51945
 Alpha  occ. eigenvalues --   -0.51596  -0.51454  -0.50397  -0.50158  -0.50060
 Alpha  occ. eigenvalues --   -0.49720  -0.49679  -0.49224  -0.49135  -0.48945
 Alpha  occ. eigenvalues --   -0.48295  -0.48157  -0.47907  -0.47632  -0.47471
 Alpha  occ. eigenvalues --   -0.47032  -0.46853  -0.46782  -0.46631  -0.46503
 Alpha  occ. eigenvalues --   -0.46362  -0.46031  -0.45689  -0.45529  -0.45362
 Alpha  occ. eigenvalues --   -0.44905  -0.44593  -0.44467  -0.44400  -0.44236
 Alpha  occ. eigenvalues --   -0.44157  -0.44052  -0.43763  -0.43523  -0.43429
 Alpha  occ. eigenvalues --   -0.43386  -0.43339  -0.43052  -0.42777  -0.42588
 Alpha  occ. eigenvalues --   -0.42389  -0.42209  -0.41996  -0.41678  -0.41454
 Alpha  occ. eigenvalues --   -0.41362  -0.41200  -0.40967  -0.40573  -0.40398
 Alpha  occ. eigenvalues --   -0.40371  -0.40186  -0.40120  -0.40028  -0.39667
 Alpha  occ. eigenvalues --   -0.39625  -0.39508  -0.39212  -0.39146  -0.38971
 Alpha  occ. eigenvalues --   -0.38857  -0.38443  -0.38160  -0.37826  -0.37733
 Alpha  occ. eigenvalues --   -0.37642  -0.37366  -0.37313  -0.37150  -0.36950
 Alpha  occ. eigenvalues --   -0.36671  -0.36399  -0.36292  -0.36216  -0.35897
 Alpha  occ. eigenvalues --   -0.35770  -0.35563  -0.35267  -0.35002  -0.34938
 Alpha  occ. eigenvalues --   -0.34692  -0.34512  -0.34470  -0.34362  -0.33748
 Alpha  occ. eigenvalues --   -0.33739  -0.33541  -0.33189  -0.32888  -0.32842
 Alpha  occ. eigenvalues --   -0.32690  -0.31871  -0.31670  -0.31526  -0.31343
 Alpha  occ. eigenvalues --   -0.31238  -0.30592  -0.30535  -0.29143  -0.28898
 Alpha  occ. eigenvalues --   -0.28879  -0.28694  -0.28354  -0.26883  -0.26038
 Alpha  occ. eigenvalues --   -0.25810  -0.25482  -0.24987  -0.24956  -0.20842
 Alpha  occ. eigenvalues --   -0.18426
 Alpha virt. eigenvalues --   -0.10983  -0.04411  -0.03182  -0.01825  -0.00463
 Alpha virt. eigenvalues --    0.00123   0.00385   0.01093   0.01746   0.03173
 Alpha virt. eigenvalues --    0.03954   0.04073   0.04857   0.05023   0.05446

 Mulliken charges:
               1
     1  Mg   0.981029
     2  C   -0.016382
     3  C   -0.086364
     4  C   -0.063590
     5  C   -0.079002
     6  N   -0.407563
     7  C    0.039685
     8  C   -0.084462
     9  C   -0.111890
    10  C    0.058311
    11  C    0.010248
    12  C    0.018185
    13  C   -0.017094
    14  C    0.245737
    15  O   -0.293297
    16  O   -0.366966
    17  N   -0.517941
    18  C    0.179749
    19  C   -0.166365
    20  C   -0.096596
    21  C    0.142567
    22  C    0.059379
    23  C    0.035450
    24  O   -0.225176
    25  C   -0.015758
    26  N   -0.396065
    27  C    0.084301
    28  C   -0.107348
    29  C   -0.059507
    30  C    0.058463
    31  C    0.023281
    32  C   -0.052762
    33  C   -0.082272
    34  N   -0.406864
    35  C    0.154053
    36  C   -0.231844
    37  C   -0.034612
    38  C    0.117116
    39  C    0.060126
    40  C    0.139438
    41  O   -0.213332
    42  C   -0.096018
    43  C    0.296325
    44  O   -0.266837
    45  O   -0.408035
    46  C    0.127427
    47  C    0.234828
    48  C   -0.149205
    49  C   -0.223606
    50  C   -0.022698
    51  C    0.068971
    52  C   -0.083076
    53  C   -0.001026
    54  C   -0.269173
    55  C    0.014428
    56  C    0.015569
    57  C   -0.087145
    58  C    0.013010
    59  C   -0.235967
    60  C   -0.010029
    61  C    0.023942
    62  C   -0.050782
    63  C   -0.002046
    64  C   -0.260030
    65  C   -0.025381
    66  C    0.003527
    67  H   -0.012110
    68  H    0.030261
    69  H   -0.004724
    70  H    0.053185
    71  H    0.049434
    72  H    0.037222
    73  H    0.042805
    74  H    0.072151
    75  H    0.045948
    76  H    0.037444
    77  H    0.083926
    78  H    0.060490
    79  H    0.058754
    80  H    0.046128
    81  H    0.057306
    82  H    0.044028
    83  H    0.065699
    84  H    0.064119
    85  H    0.048471
    86  H    0.039049
    87  H    0.046834
    88  H    0.040380
    89  H    0.057211
    90  H    0.042587
    91  H    0.043297
    92  H    0.033193
    93  H    0.044698
    94  H    0.062139
    95  H    0.056464
    96  H    0.064209
    97  H    0.061405
    98  H    0.089137
    99  H    0.055861
   100  H    0.076884
   101  H    0.062538
   102  H    0.067510
   103  H    0.067575
   104  H    0.034652
   105  H    0.061340
   106  H    0.053871
   107  H    0.040560
   108  H    0.035800
   109  H    0.029558
   110  H    0.036695
   111  H    0.055978
   112  H    0.022390
   113  H    0.034532
   114  H    0.030333
   115  H    0.028786
   116  H    0.045357
   117  H    0.020963
   118  H    0.029509
   119  H    0.019295
   120  H    0.052030
   121  H    0.038938
   122  H    0.019751
   123  H    0.010898
   124  H    0.033044
   125  H    0.037335
   126  H    0.041362
   127  H    0.030305
   128  H    0.018882
   129  H    0.025879
   130  H    0.025163
   131  H    0.024493
   132  H    0.021166
   133  H    0.014144
   134  H    0.041303
   135  H    0.031510
   136  H    0.025439
   137  H    0.044172
   138  H    0.048791
   139  H    0.034462
   140  H    0.028770
 Sum of Mulliken charges =  -0.00000

 Dipole moment (field-independent basis, Debye):
    X=              5.1924    Y=              1.7926    Z=              1.0033  Tot=              5.5840
 Quadrupole moment (field-independent basis, Debye-Ang):
   XX=           -367.0675   YY=           -415.8846   ZZ=           -408.5155
   XY=            -27.2150   XZ=             -0.2080   YZ=              6.7049

 Normal termination of Gaussian 16 at Wed Apr 27 13:12:51 2022.
