 Gaussian 16, Revision A.03,
 Gaussian 16:  ES64L-G16RevA.03 25-Dec-2016

 --------------------------------
 #p wB97XD/Def2SVP td=(nstates=5)
 --------------------------------

 -----------------------------------------------------
 step_1201_chromophore_12 TDDFT with wB97XD functional
 -----------------------------------------------------
 Symbolic Z-matrix:
 Charge =  0 Multiplicity = 1

                         Standard orientation:
 ---------------------------------------------------------------------
 Center     Atomic      Atomic             Coordinates (Angstroms)
 Number     Number       Type             X           Y           Z
 ---------------------------------------------------------------------
      1         12           0       -3.862328    0.604896   -0.093985
      2          6           0       -3.237734   -2.834475    0.438377
      3          6           0       -0.686203    1.125321   -0.080136
      4          6           0       -4.672184    3.689979   -0.968896
      5          6           0       -7.346483   -0.204368    0.134591
      6          7           0       -2.166435   -0.677544    0.075142
      7          6           0       -2.086776   -2.057910    0.344414
      8          6           0       -0.609150   -2.491804    0.350161
      9          6           0        0.111972   -1.161396    0.434798
     10          6           0       -0.921764   -0.211127    0.041617
     11          6           0        0.611375   -0.695673    1.866573
     12          6           0       -0.315019   -3.296404   -0.946434
     13          6           0        0.851508   -4.265215   -0.841218
     14          6           0        2.046352   -3.995405   -1.833793
     15          8           0        1.969157   -3.449213   -2.962244
     16          8           0        3.181014   -4.520788   -1.284153
     17          7           0       -2.727453    2.222164   -0.459149
     18          6           0       -1.392326    2.272074   -0.391902
     19          6           0       -0.887839    3.581546   -0.776722
     20          6           0       -2.054353    4.365865   -1.081609
     21          6           0       -3.211529    3.425079   -0.918671
     22          6           0        0.589211    3.979021   -0.773481
     23          6           0       -2.130370    5.832265   -1.502628
     24          8           0       -3.179408    6.323530   -1.844233
     25          6           0       -0.862225    6.691826   -1.598573
     26          7           0       -5.781125    1.510733   -0.422592
     27          6           0       -5.747108    2.850341   -0.770308
     28          6           0       -7.115120    3.431649   -0.739633
     29          6           0       -7.986673    2.205671   -0.338468
     30          6           0       -7.005660    1.076203   -0.187620
     31          6           0       -7.232233    4.633092    0.192449
     32          6           0       -9.160342    1.923019   -1.268060
     33          6           0       -8.850958    1.156429   -2.633245
     34          7           0       -5.075532   -1.169405    0.282629
     35          6           0       -6.465861   -1.285766    0.313723
     36          6           0       -6.778290   -2.640607    0.549756
     37          6           0       -5.568449   -3.321197    0.515769
     38          6           0       -4.578642   -2.360494    0.368363
     39          6           0       -8.138777   -3.100808    0.959092
     40          6           0       -4.880820   -4.613231    0.716057
     41          8           0       -5.336474   -5.725908    0.946321
     42          6           0       -3.378727   -4.355062    0.555189
     43          6           0       -2.614711   -4.881695    1.764130
     44          8           0       -2.358431   -4.262731    2.800143
     45          8           0       -2.205281   -6.221465    1.618629
     46          6           0       -1.558026   -6.934696    2.776228
     47          6           0        4.447673   -4.385029   -2.119811
     48          6           0        5.590279   -4.236286   -1.175140
     49          6           0        6.827444   -3.623614   -1.398347
     50          6           0        7.105354   -2.931585   -2.768766
     51          6           0        8.003755   -3.724904   -0.433962
     52          6           0        8.542515   -2.378151   -0.008184
     53          6           0        9.874529   -1.936304   -0.599645
     54          6           0        9.762176   -0.416565   -1.064180
     55          6           0       10.719740    0.023528   -2.161806
     56          6           0        9.736136    0.599181    0.096735
     57          6           0        8.341143    1.245519    0.229004
     58          6           0        8.344195    2.275201    1.395348
     59          6           0        7.375510    3.418441    1.067776
     60          6           0        8.189938    4.468436    0.249181
     61          6           0        6.759236    4.047780    2.355899
     62          6           0        5.323150    3.491213    2.621818
     63          6           0        4.165087    4.115960    1.844360
     64          6           0        3.050650    4.701385    2.711310
     65          6           0        1.933598    3.540234    2.783619
     66          6           0        2.476804    5.979040    2.125250
     67          1           0        0.394672    1.269213   -0.140394
     68          1           0       -4.911524    4.704558   -1.291927
     69          1           0       -8.419633   -0.382425    0.228997
     70          1           0       -0.390560   -3.125817    1.210021
     71          1           0        0.989456   -1.040097   -0.200660
     72          1           0        1.683543   -0.498366    1.864306
     73          1           0        0.525248   -1.595388    2.474209
     74          1           0        0.129086    0.164300    2.332754
     75          1           0       -0.220398   -2.564203   -1.748104
     76          1           0       -1.166950   -3.867523   -1.315136
     77          1           0        0.451350   -5.260366   -1.036998
     78          1           0        1.206350   -4.163921    0.183967
     79          1           0        0.923540    4.303294   -1.758817
     80          1           0        1.117413    3.119144   -0.361924
     81          1           0        0.763853    4.809297   -0.088497
     82          1           0       -0.261905    6.592019   -0.695416
     83          1           0       -1.223733    7.715148   -1.697444
     84          1           0       -0.241341    6.253288   -2.379539
     85          1           0       -7.226029    3.681906   -1.794588
     86          1           0       -8.447989    2.351145    0.638317
     87          1           0       -6.819334    4.371807    1.166090
     88          1           0       -8.277441    4.903758    0.339798
     89          1           0       -6.707363    5.468074   -0.272715
     90          1           0       -9.461727    2.899824   -1.647559
     91          1           0       -9.973575    1.497505   -0.678723
     92          1           0       -9.041725    1.795396   -3.496318
     93          1           0       -9.558693    0.337072   -2.758711
     94          1           0       -7.821303    0.838240   -2.799615
     95          1           0       -8.743884   -2.870885    0.082803
     96          1           0       -8.504612   -2.692720    1.902074
     97          1           0       -7.953415   -4.165366    1.102709
     98          1           0       -3.068078   -4.900933   -0.336107
     99          1           0       -0.534963   -6.567241    2.704395
    100          1           0       -1.654506   -8.012117    2.909412
    101          1           0       -2.064494   -6.487123    3.631339
    102          1           0        4.335645   -3.601738   -2.869065
    103          1           0        4.696091   -5.315082   -2.631811
    104          1           0        5.533953   -4.933933   -0.339332
    105          1           0        6.401844   -2.126101   -2.980517
    106          1           0        6.980823   -3.616247   -3.608289
    107          1           0        8.117217   -2.538371   -2.860525
    108          1           0        8.831302   -4.102792   -1.034867
    109          1           0        7.743124   -4.333973    0.431498
    110          1           0        8.561618   -2.489659    1.075692
    111          1           0        7.811596   -1.626740   -0.308161
    112          1           0       10.186828   -2.475764   -1.493218
    113          1           0       10.635995   -2.052098    0.171992
    114          1           0        8.806211   -0.457737   -1.585588
    115          1           0       11.542769   -0.688264   -2.232513
    116          1           0       11.033498    1.066401   -2.161358
    117          1           0       10.125721   -0.220211   -3.042033
    118          1           0       10.521275    1.334151   -0.076095
    119          1           0        9.961123    0.039962    1.006232
    120          1           0        7.564320    0.541238    0.526770
    121          1           0        8.226922    1.692296   -0.758632
    122          1           0        9.349894    2.584365    1.680892
    123          1           0        8.067779    1.745746    2.306608
    124          1           0        6.560550    3.039179    0.451304
    125          1           0        8.988512    4.083307   -0.385653
    126          1           0        8.549088    5.257083    0.910338
    127          1           0        7.401563    4.856070   -0.394589
    128          1           0        6.707097    5.125626    2.203112
    129          1           0        7.450846    3.904703    3.186736
    130          1           0        5.087431    3.557237    3.684314
    131          1           0        5.310054    2.426269    2.387660
    132          1           0        3.831858    3.362879    1.130399
    133          1           0        4.543337    4.872904    1.157261
    134          1           0        3.451465    4.890023    3.706537
    135          1           0        1.871616    3.017982    1.829171
    136          1           0        0.980197    4.051388    2.914338
    137          1           0        2.003806    2.883116    3.650035
    138          1           0        2.839726    6.108822    1.105425
    139          1           0        2.713161    6.741533    2.867936
    140          1           0        1.392102    6.074991    2.183805
 ---------------------------------------------------------------------

 SCF Done:  E(RwB97XD) =  -3007.88090231     A.U. after   19 cycles

 Excitation energies and oscillator strengths:

 Excited State   1:      Singlet-A      1.6370 eV  757.39 nm  f=0.4238  <S**2>=0.000
     245 -> 248        0.16448
     246 -> 247        0.68783
     245 <- 248        0.11094
 This state for optimization and/or second-order correction.
 Total Energy, E(TD-HF/TD-DFT) =  -3007.82074371
 Copying the excited state density for this state as the 1-particle RhoCI density.

 Excited State   2:      Singlet-A      2.2033 eV  562.72 nm  f=0.1354  <S**2>=0.000
     245 -> 247        0.64639
     246 -> 248       -0.26726

 Excited State   3:      Singlet-A      3.3727 eV  367.61 nm  f=0.0011  <S**2>=0.000
     244 -> 247        0.67711

 Excited State   4:      Singlet-A      3.5944 eV  344.93 nm  f=0.0968  <S**2>=0.000
     241 -> 249        0.14752
     242 -> 247        0.54264
     245 -> 247       -0.10178
     246 -> 248       -0.35457

 Excited State   5:      Singlet-A      3.6165 eV  342.83 nm  f=0.0980  <S**2>=0.000
     241 -> 247        0.51071
     241 -> 249        0.16827
     241 -> 250        0.14106
     242 -> 247        0.14526
     242 -> 249        0.18083
     242 -> 250        0.11366
     245 -> 247        0.10268
     246 -> 248        0.27903

 The electronic state is 1-A.
 Alpha  occ. eigenvalues --  -46.94270 -19.31151 -19.28881 -19.25188 -19.24705
 Alpha  occ. eigenvalues --  -19.24116 -19.23632 -14.46512 -14.45666 -14.44115
 Alpha  occ. eigenvalues --  -14.42513 -10.44130 -10.43619 -10.39225 -10.38835
 Alpha  occ. eigenvalues --  -10.36746 -10.35411 -10.35214 -10.34906 -10.33963
 Alpha  occ. eigenvalues --  -10.33917 -10.33695 -10.33391 -10.33121 -10.32879
 Alpha  occ. eigenvalues --  -10.32714 -10.32311 -10.32251 -10.31967 -10.31859
 Alpha  occ. eigenvalues --  -10.31792 -10.31705 -10.31487 -10.31426 -10.30652
 Alpha  occ. eigenvalues --  -10.30595 -10.30582 -10.30564 -10.30556 -10.30544
 Alpha  occ. eigenvalues --  -10.30432 -10.30391 -10.30296 -10.30264 -10.30155
 Alpha  occ. eigenvalues --  -10.30140 -10.29827 -10.29703 -10.29692 -10.29665
 Alpha  occ. eigenvalues --  -10.29523 -10.29489 -10.29256 -10.29107 -10.29105
 Alpha  occ. eigenvalues --  -10.29086 -10.29075 -10.29010 -10.28902 -10.28858
 Alpha  occ. eigenvalues --  -10.28729 -10.28675 -10.28471 -10.28458 -10.28401
 Alpha  occ. eigenvalues --  -10.28271  -3.20300  -1.93916  -1.93412  -1.93288
 Alpha  occ. eigenvalues --   -1.17607  -1.16217  -1.13278  -1.11607  -1.08799
 Alpha  occ. eigenvalues --   -1.08061  -1.06932  -1.06191  -1.05766  -1.05042
 Alpha  occ. eigenvalues --   -0.94379  -0.92933  -0.91971  -0.91807  -0.90926
 Alpha  occ. eigenvalues --   -0.90889  -0.90453  -0.89893  -0.89742  -0.88963
 Alpha  occ. eigenvalues --   -0.88453  -0.87853  -0.86803  -0.85220  -0.85120
 Alpha  occ. eigenvalues --   -0.84579  -0.83284  -0.83067  -0.82543  -0.82246
 Alpha  occ. eigenvalues --   -0.82089  -0.80256  -0.79776  -0.78827  -0.78528
 Alpha  occ. eigenvalues --   -0.78070  -0.77788  -0.77228  -0.76774  -0.76325
 Alpha  occ. eigenvalues --   -0.75248  -0.74924  -0.73807  -0.72456  -0.71686
 Alpha  occ. eigenvalues --   -0.70335  -0.69858  -0.69297  -0.68485  -0.67629
 Alpha  occ. eigenvalues --   -0.67495  -0.67020  -0.66670  -0.66526  -0.66028
 Alpha  occ. eigenvalues --   -0.65750  -0.65545  -0.64647  -0.63275  -0.62528
 Alpha  occ. eigenvalues --   -0.62111  -0.61802  -0.61287  -0.59866  -0.59480
 Alpha  occ. eigenvalues --   -0.59075  -0.58854  -0.57785  -0.57602  -0.57492
 Alpha  occ. eigenvalues --   -0.57185  -0.57129  -0.56645  -0.56531  -0.56369
 Alpha  occ. eigenvalues --   -0.55665  -0.55645  -0.55282  -0.55030  -0.54835
 Alpha  occ. eigenvalues --   -0.54401  -0.54366  -0.54200  -0.54066  -0.53883
 Alpha  occ. eigenvalues --   -0.53694  -0.53395  -0.53046  -0.52899  -0.52575
 Alpha  occ. eigenvalues --   -0.52190  -0.51975  -0.51884  -0.51765  -0.51672
 Alpha  occ. eigenvalues --   -0.51572  -0.51366  -0.51110  -0.50860  -0.50731
 Alpha  occ. eigenvalues --   -0.50694  -0.50639  -0.50376  -0.50089  -0.49907
 Alpha  occ. eigenvalues --   -0.49591  -0.49471  -0.49376  -0.48937  -0.48721
 Alpha  occ. eigenvalues --   -0.48581  -0.48411  -0.48244  -0.47730  -0.47589
 Alpha  occ. eigenvalues --   -0.47538  -0.47367  -0.47271  -0.47230  -0.46854
 Alpha  occ. eigenvalues --   -0.46798  -0.46725  -0.46418  -0.46359  -0.46101
 Alpha  occ. eigenvalues --   -0.46013  -0.45540  -0.45285  -0.44920  -0.44856
 Alpha  occ. eigenvalues --   -0.44757  -0.44595  -0.44407  -0.44263  -0.44017
 Alpha  occ. eigenvalues --   -0.43776  -0.43459  -0.43335  -0.43328  -0.42933
 Alpha  occ. eigenvalues --   -0.42896  -0.42556  -0.42242  -0.42132  -0.42031
 Alpha  occ. eigenvalues --   -0.41721  -0.41652  -0.41542  -0.41290  -0.40859
 Alpha  occ. eigenvalues --   -0.40686  -0.40584  -0.40235  -0.39931  -0.39795
 Alpha  occ. eigenvalues --   -0.39712  -0.38896  -0.38605  -0.38517  -0.38377
 Alpha  occ. eigenvalues --   -0.38263  -0.37695  -0.37517  -0.36218  -0.35924
 Alpha  occ. eigenvalues --   -0.35736  -0.35579  -0.35009  -0.33494  -0.33186
 Alpha  occ. eigenvalues --   -0.32623  -0.32420  -0.31701  -0.31443  -0.25865
 Alpha  occ. eigenvalues --   -0.22566
 Alpha virt. eigenvalues --   -0.06937   0.01155   0.03045   0.04670   0.06238
 Alpha virt. eigenvalues --    0.06980   0.07005   0.07209   0.08042   0.09612
 Alpha virt. eigenvalues --    0.10610   0.10644   0.11570   0.11854   0.12203

 Mulliken charges:
               1
     1  Mg   0.970022
     2  C   -0.012699
     3  C   -0.091241
     4  C   -0.078606
     5  C   -0.100525
     6  N   -0.375066
     7  C    0.002788
     8  C   -0.049787
     9  C   -0.089083
    10  C    0.040980
    11  C    0.019617
    12  C    0.022774
    13  C    0.001202
    14  C    0.236116
    15  O   -0.291657
    16  O   -0.367409
    17  N   -0.485789
    18  C    0.171531
    19  C   -0.158897
    20  C   -0.088248
    21  C    0.130552
    22  C    0.087503
    23  C    0.030172
    24  O   -0.219488
    25  C   -0.000732
    26  N   -0.358148
    27  C    0.071793
    28  C   -0.078127
    29  C   -0.038093
    30  C    0.042409
    31  C    0.035742
    32  C   -0.036831
    33  C   -0.067006
    34  N   -0.365270
    35  C    0.145224
    36  C   -0.226410
    37  C   -0.031053
    38  C    0.098205
    39  C    0.070826
    40  C    0.117444
    41  O   -0.203495
    42  C   -0.059575
    43  C    0.274200
    44  O   -0.261319
    45  O   -0.407918
    46  C    0.143590
    47  C    0.250407
    48  C   -0.158957
    49  C   -0.209870
    50  C   -0.008149
    51  C    0.088397
    52  C   -0.060573
    53  C    0.009198
    54  C   -0.228784
    55  C    0.026183
    56  C    0.027096
    57  C   -0.064761
    58  C    0.023844
    59  C   -0.202930
    60  C    0.001698
    61  C    0.037011
    62  C   -0.031190
    63  C    0.011929
    64  C   -0.228830
    65  C   -0.003377
    66  C    0.013988
    67  H   -0.023649
    68  H    0.022736
    69  H   -0.010446
    70  H    0.037589
    71  H    0.040509
    72  H    0.032080
    73  H    0.037077
    74  H    0.065506
    75  H    0.038458
    76  H    0.027441
    77  H    0.079757
    78  H    0.053704
    79  H    0.054967
    80  H    0.035365
    81  H    0.040871
    82  H    0.037330
    83  H    0.065164
    84  H    0.058047
    85  H    0.037449
    86  H    0.029228
    87  H    0.040250
    88  H    0.034491
    89  H    0.051277
    90  H    0.032561
    91  H    0.037417
    92  H    0.027572
    93  H    0.039265
    94  H    0.054086
    95  H    0.050429
    96  H    0.059866
    97  H    0.056567
    98  H    0.083607
    99  H    0.051670
   100  H    0.074197
   101  H    0.057915
   102  H    0.062953
   103  H    0.062768
   104  H    0.031776
   105  H    0.056176
   106  H    0.049118
   107  H    0.030266
   108  H    0.024496
   109  H    0.025032
   110  H    0.030446
   111  H    0.036458
   112  H    0.012787
   113  H    0.027210
   114  H    0.009356
   115  H    0.022651
   116  H    0.040786
   117  H    0.014432
   118  H    0.019900
   119  H    0.009115
   120  H    0.042577
   121  H    0.026991
   122  H    0.010903
   123  H    0.002198
   124  H    0.018585
   125  H    0.031211
   126  H    0.035392
   127  H    0.023503
   128  H    0.009013
   129  H    0.019295
   130  H    0.016487
   131  H    0.014373
   132  H    0.011694
   133  H    0.001987
   134  H    0.031139
   135  H    0.013908
   136  H    0.017526
   137  H    0.039835
   138  H    0.042826
   139  H    0.030023
   140  H    0.021902
 Sum of Mulliken charges =  -0.00000

 Dipole moment (field-independent basis, Debye):
    X=              5.4714    Y=              1.9234    Z=              1.0035  Tot=              5.8858
 Quadrupole moment (field-independent basis, Debye-Ang):
   XX=           -368.9434   YY=           -413.7828   ZZ=           -408.2502
   XY=            -26.8459   XZ=             -0.2853   YZ=              6.3429

 Normal termination of Gaussian 16 at Wed Apr 27 13:43:20 2022.
