 Gaussian 16, Revision A.03,
 Gaussian 16:  ES64L-G16RevA.03 25-Dec-2016

 --------------------
 #p ZINDO=(nstates=5)
 --------------------

 ------------------------------
 step_1201_chromophore_12 ZINDO
 ------------------------------
 Symbolic Z-matrix:
 Charge =  0 Multiplicity = 1

                         Standard orientation:
 ---------------------------------------------------------------------
 Center     Atomic      Atomic             Coordinates (Angstroms)
 Number     Number       Type             X           Y           Z
 ---------------------------------------------------------------------
      1         12           0       -3.862328    0.604896   -0.093985
      2          6           0       -3.237734   -2.834475    0.438377
      3          6           0       -0.686203    1.125321   -0.080136
      4          6           0       -4.672184    3.689979   -0.968896
      5          6           0       -7.346483   -0.204368    0.134591
      6          7           0       -2.166435   -0.677544    0.075142
      7          6           0       -2.086776   -2.057910    0.344414
      8          6           0       -0.609150   -2.491804    0.350161
      9          6           0        0.111972   -1.161396    0.434798
     10          6           0       -0.921764   -0.211127    0.041617
     11          6           0        0.611375   -0.695673    1.866573
     12          6           0       -0.315019   -3.296404   -0.946434
     13          6           0        0.851508   -4.265215   -0.841218
     14          6           0        2.046352   -3.995405   -1.833793
     15          8           0        1.969157   -3.449213   -2.962244
     16          8           0        3.181014   -4.520788   -1.284153
     17          7           0       -2.727453    2.222164   -0.459149
     18          6           0       -1.392326    2.272074   -0.391902
     19          6           0       -0.887839    3.581546   -0.776722
     20          6           0       -2.054353    4.365865   -1.081609
     21          6           0       -3.211529    3.425079   -0.918671
     22          6           0        0.589211    3.979021   -0.773481
     23          6           0       -2.130370    5.832265   -1.502628
     24          8           0       -3.179408    6.323530   -1.844233
     25          6           0       -0.862225    6.691826   -1.598573
     26          7           0       -5.781125    1.510733   -0.422592
     27          6           0       -5.747108    2.850341   -0.770308
     28          6           0       -7.115120    3.431649   -0.739633
     29          6           0       -7.986673    2.205671   -0.338468
     30          6           0       -7.005660    1.076203   -0.187620
     31          6           0       -7.232233    4.633092    0.192449
     32          6           0       -9.160342    1.923019   -1.268060
     33          6           0       -8.850958    1.156429   -2.633245
     34          7           0       -5.075532   -1.169405    0.282629
     35          6           0       -6.465861   -1.285766    0.313723
     36          6           0       -6.778290   -2.640607    0.549756
     37          6           0       -5.568449   -3.321197    0.515769
     38          6           0       -4.578642   -2.360494    0.368363
     39          6           0       -8.138777   -3.100808    0.959092
     40          6           0       -4.880820   -4.613231    0.716057
     41          8           0       -5.336474   -5.725908    0.946321
     42          6           0       -3.378727   -4.355062    0.555189
     43          6           0       -2.614711   -4.881695    1.764130
     44          8           0       -2.358431   -4.262731    2.800143
     45          8           0       -2.205281   -6.221465    1.618629
     46          6           0       -1.558026   -6.934696    2.776228
     47          6           0        4.447673   -4.385029   -2.119811
     48          6           0        5.590279   -4.236286   -1.175140
     49          6           0        6.827444   -3.623614   -1.398347
     50          6           0        7.105354   -2.931585   -2.768766
     51          6           0        8.003755   -3.724904   -0.433962
     52          6           0        8.542515   -2.378151   -0.008184
     53          6           0        9.874529   -1.936304   -0.599645
     54          6           0        9.762176   -0.416565   -1.064180
     55          6           0       10.719740    0.023528   -2.161806
     56          6           0        9.736136    0.599181    0.096735
     57          6           0        8.341143    1.245519    0.229004
     58          6           0        8.344195    2.275201    1.395348
     59          6           0        7.375510    3.418441    1.067776
     60          6           0        8.189938    4.468436    0.249181
     61          6           0        6.759236    4.047780    2.355899
     62          6           0        5.323150    3.491213    2.621818
     63          6           0        4.165087    4.115960    1.844360
     64          6           0        3.050650    4.701385    2.711310
     65          6           0        1.933598    3.540234    2.783619
     66          6           0        2.476804    5.979040    2.125250
     67          1           0        0.394672    1.269213   -0.140394
     68          1           0       -4.911524    4.704558   -1.291927
     69          1           0       -8.419633   -0.382425    0.228997
     70          1           0       -0.390560   -3.125817    1.210021
     71          1           0        0.989456   -1.040097   -0.200660
     72          1           0        1.683543   -0.498366    1.864306
     73          1           0        0.525248   -1.595388    2.474209
     74          1           0        0.129086    0.164300    2.332754
     75          1           0       -0.220398   -2.564203   -1.748104
     76          1           0       -1.166950   -3.867523   -1.315136
     77          1           0        0.451350   -5.260366   -1.036998
     78          1           0        1.206350   -4.163921    0.183967
     79          1           0        0.923540    4.303294   -1.758817
     80          1           0        1.117413    3.119144   -0.361924
     81          1           0        0.763853    4.809297   -0.088497
     82          1           0       -0.261905    6.592019   -0.695416
     83          1           0       -1.223733    7.715148   -1.697444
     84          1           0       -0.241341    6.253288   -2.379539
     85          1           0       -7.226029    3.681906   -1.794588
     86          1           0       -8.447989    2.351145    0.638317
     87          1           0       -6.819334    4.371807    1.166090
     88          1           0       -8.277441    4.903758    0.339798
     89          1           0       -6.707363    5.468074   -0.272715
     90          1           0       -9.461727    2.899824   -1.647559
     91          1           0       -9.973575    1.497505   -0.678723
     92          1           0       -9.041725    1.795396   -3.496318
     93          1           0       -9.558693    0.337072   -2.758711
     94          1           0       -7.821303    0.838240   -2.799615
     95          1           0       -8.743884   -2.870885    0.082803
     96          1           0       -8.504612   -2.692720    1.902074
     97          1           0       -7.953415   -4.165366    1.102709
     98          1           0       -3.068078   -4.900933   -0.336107
     99          1           0       -0.534963   -6.567241    2.704395
    100          1           0       -1.654506   -8.012117    2.909412
    101          1           0       -2.064494   -6.487123    3.631339
    102          1           0        4.335645   -3.601738   -2.869065
    103          1           0        4.696091   -5.315082   -2.631811
    104          1           0        5.533953   -4.933933   -0.339332
    105          1           0        6.401844   -2.126101   -2.980517
    106          1           0        6.980823   -3.616247   -3.608289
    107          1           0        8.117217   -2.538371   -2.860525
    108          1           0        8.831302   -4.102792   -1.034867
    109          1           0        7.743124   -4.333973    0.431498
    110          1           0        8.561618   -2.489659    1.075692
    111          1           0        7.811596   -1.626740   -0.308161
    112          1           0       10.186828   -2.475764   -1.493218
    113          1           0       10.635995   -2.052098    0.171992
    114          1           0        8.806211   -0.457737   -1.585588
    115          1           0       11.542769   -0.688264   -2.232513
    116          1           0       11.033498    1.066401   -2.161358
    117          1           0       10.125721   -0.220211   -3.042033
    118          1           0       10.521275    1.334151   -0.076095
    119          1           0        9.961123    0.039962    1.006232
    120          1           0        7.564320    0.541238    0.526770
    121          1           0        8.226922    1.692296   -0.758632
    122          1           0        9.349894    2.584365    1.680892
    123          1           0        8.067779    1.745746    2.306608
    124          1           0        6.560550    3.039179    0.451304
    125          1           0        8.988512    4.083307   -0.385653
    126          1           0        8.549088    5.257083    0.910338
    127          1           0        7.401563    4.856070   -0.394589
    128          1           0        6.707097    5.125626    2.203112
    129          1           0        7.450846    3.904703    3.186736
    130          1           0        5.087431    3.557237    3.684314
    131          1           0        5.310054    2.426269    2.387660
    132          1           0        3.831858    3.362879    1.130399
    133          1           0        4.543337    4.872904    1.157261
    134          1           0        3.451465    4.890023    3.706537
    135          1           0        1.871616    3.017982    1.829171
    136          1           0        0.980197    4.051388    2.914338
    137          1           0        2.003806    2.883116    3.650035
    138          1           0        2.839726    6.108822    1.105425
    139          1           0        2.713161    6.741533    2.867936
    140          1           0        1.392102    6.074991    2.183805
 ---------------------------------------------------------------------

 SCF Done:  E(RZINDO/S) =  -474.451398867     A.U. after   19 cycles

 Excitation energies and oscillator strengths:

 Excited State   1:      Singlet-A      1.2228 eV 1013.91 nm  f=0.6561  <S**2>=0.000
     175 ->178        -0.17679
     176 ->177         0.66643
 This state for optimization and/or second-order correction.
 Total Energy, E(CIS/TDA) =  -474.406460410
 Copying the excited state density for this state as the 1-particle RhoCI density.

 Excited State   2:      Singlet-A      1.9621 eV  631.89 nm  f=0.0764  <S**2>=0.000
     175 ->177         0.56791
     176 ->178         0.39247

 Excited State   3:      Singlet-A      3.0401 eV  407.83 nm  f=0.4166  <S**2>=0.000
     169 ->177        -0.12626
     169 ->179        -0.15546
     169 ->181         0.11520
     173 ->177        -0.10737
     175 ->177        -0.23960
     176 ->178         0.37777
     176 ->179         0.35043
     176 ->182         0.11626

 Excited State   4:      Singlet-A      3.0482 eV  406.74 nm  f=0.0680  <S**2>=0.000
     168 ->177         0.25075
     168 ->178         0.14763
     168 ->179        -0.34479
     168 ->181        -0.27032
     168 ->182         0.13211
     168 ->186        -0.20447
     168 ->187         0.11313
     168 ->192         0.11173
     171 ->177        -0.10524
     176 ->178         0.15366
     176 ->179        -0.13611

 Excited State   5:      Singlet-A      3.0666 eV  404.31 nm  f=0.1243  <S**2>=0.000
     167 ->179        -0.10180
     169 ->177        -0.26066
     169 ->178        -0.10950
     169 ->179        -0.30555
     169 ->181         0.22010
     169 ->182        -0.16634
     169 ->186        -0.16537
     169 ->187        -0.10189
     175 ->177         0.12722
     176 ->178        -0.19883
     176 ->179        -0.20454

 The electronic state is 1-A.
 Alpha  occ. eigenvalues --   -1.86649  -1.84408  -1.82296  -1.73745  -1.69654
 Alpha  occ. eigenvalues --   -1.69315  -1.66882  -1.62578  -1.59694  -1.58169
 Alpha  occ. eigenvalues --   -1.56041  -1.51027  -1.48988  -1.48223  -1.45329
 Alpha  occ. eigenvalues --   -1.43873  -1.42695  -1.41649  -1.39489  -1.38071
 Alpha  occ. eigenvalues --   -1.36836  -1.34413  -1.34074  -1.32578  -1.28531
 Alpha  occ. eigenvalues --   -1.27424  -1.24896  -1.21899  -1.20526  -1.18112
 Alpha  occ. eigenvalues --   -1.16785  -1.15990  -1.15628  -1.14550  -1.13609
 Alpha  occ. eigenvalues --   -1.12891  -1.11037  -1.10004  -1.05302  -1.04160
 Alpha  occ. eigenvalues --   -1.02717  -1.01552  -0.98627  -0.98146  -0.96920
 Alpha  occ. eigenvalues --   -0.96189  -0.95218  -0.94739  -0.92819  -0.92117
 Alpha  occ. eigenvalues --   -0.90694  -0.90371  -0.89761  -0.88056  -0.87637
 Alpha  occ. eigenvalues --   -0.85193  -0.83873  -0.83236  -0.81930  -0.80272
 Alpha  occ. eigenvalues --   -0.79585  -0.78244  -0.78159  -0.77202  -0.76396
 Alpha  occ. eigenvalues --   -0.75428  -0.75007  -0.74583  -0.73661  -0.73189
 Alpha  occ. eigenvalues --   -0.72723  -0.72002  -0.71409  -0.71241  -0.70670
 Alpha  occ. eigenvalues --   -0.69960  -0.69098  -0.69028  -0.68238  -0.67628
 Alpha  occ. eigenvalues --   -0.67335  -0.66825  -0.66524  -0.66065  -0.65687
 Alpha  occ. eigenvalues --   -0.65647  -0.65529  -0.64590  -0.63974  -0.63894
 Alpha  occ. eigenvalues --   -0.63189  -0.62917  -0.62738  -0.61983  -0.61717
 Alpha  occ. eigenvalues --   -0.61263  -0.61055  -0.60831  -0.60657  -0.60497
 Alpha  occ. eigenvalues --   -0.60157  -0.59769  -0.59184  -0.59055  -0.58766
 Alpha  occ. eigenvalues --   -0.58177  -0.57953  -0.57255  -0.56951  -0.56522
 Alpha  occ. eigenvalues --   -0.56298  -0.56156  -0.55285  -0.54709  -0.54549
 Alpha  occ. eigenvalues --   -0.54399  -0.54021  -0.53613  -0.53004  -0.52802
 Alpha  occ. eigenvalues --   -0.52730  -0.52323  -0.51961  -0.51524  -0.51518
 Alpha  occ. eigenvalues --   -0.51229  -0.50801  -0.50512  -0.50287  -0.50000
 Alpha  occ. eigenvalues --   -0.49483  -0.49135  -0.48999  -0.48845  -0.48706
 Alpha  occ. eigenvalues --   -0.48610  -0.48482  -0.48149  -0.47816  -0.47492
 Alpha  occ. eigenvalues --   -0.47192  -0.46878  -0.46736  -0.46528  -0.46280
 Alpha  occ. eigenvalues --   -0.46203  -0.45965  -0.45823  -0.45684  -0.45391
 Alpha  occ. eigenvalues --   -0.45283  -0.45105  -0.44786  -0.44567  -0.44204
 Alpha  occ. eigenvalues --   -0.43994  -0.43570  -0.43327  -0.42552  -0.42233
 Alpha  occ. eigenvalues --   -0.41861  -0.41540  -0.41446  -0.39411  -0.38627
 Alpha  occ. eigenvalues --   -0.38293  -0.36415  -0.35572  -0.34720  -0.34364
 Alpha  occ. eigenvalues --   -0.33237  -0.32243  -0.32033  -0.31680  -0.26566
 Alpha  occ. eigenvalues --   -0.21375
 Alpha virt. eigenvalues --   -0.08484  -0.01167  -0.00032   0.01067   0.01402
 Alpha virt. eigenvalues --    0.02667   0.03319   0.03476   0.03692   0.05261
 Alpha virt. eigenvalues --    0.06615   0.06885   0.07147   0.07603   0.08222

 Mulliken charges:
               1
     1  Mg   0.422405
     2  C   -0.046626
     3  C   -0.084342
     4  C   -0.072849
     5  C   -0.065797
     6  N   -0.290233
     7  C    0.101940
     8  C    0.016866
     9  C    0.016436
    10  C    0.174454
    11  C   -0.052991
    12  C   -0.026503
    13  C    0.006338
    14  C    0.461051
    15  O   -0.527596
    16  O   -0.266192
    17  N   -0.308965
    18  C    0.129498
    19  C    0.000664
    20  C   -0.048806
    21  C    0.119874
    22  C   -0.043985
    23  C    0.325832
    24  O   -0.512397
    25  C   -0.033862
    26  N   -0.275514
    27  C    0.138618
    28  C    0.003921
    29  C    0.006490
    30  C    0.135578
    31  C   -0.043641
    32  C   -0.030853
    33  C   -0.061271
    34  N   -0.324268
    35  C    0.076760
    36  C    0.029938
    37  C   -0.065595
    38  C    0.129335
    39  C   -0.046523
    40  C    0.336194
    41  O   -0.525149
    42  C    0.064942
    43  C    0.483316
    44  O   -0.524714
    45  O   -0.290673
    46  C    0.069912
    47  C    0.107242
    48  C   -0.100211
    49  C   -0.015574
    50  C   -0.047058
    51  C   -0.017985
    52  C   -0.031319
    53  C   -0.032033
    54  C   -0.026471
    55  C   -0.063200
    56  C   -0.035294
    57  C   -0.039846
    58  C   -0.037938
    59  C   -0.011849
    60  C   -0.061648
    61  C   -0.034031
    62  C   -0.034936
    63  C   -0.029875
    64  C   -0.009240
    65  C   -0.066918
    66  C   -0.060245
    67  H   -0.002587
    68  H    0.044663
    69  H    0.023637
    70  H    0.037264
    71  H    0.031844
    72  H    0.015092
    73  H    0.020337
    74  H    0.038363
    75  H    0.031112
    76  H    0.020208
    77  H    0.051722
    78  H    0.040570
    79  H    0.036848
    80  H    0.029111
    81  H    0.030042
    82  H    0.028248
    83  H    0.047018
    84  H    0.045030
    85  H    0.037056
    86  H    0.024038
    87  H    0.026308
    88  H    0.013679
    89  H    0.028617
    90  H    0.012454
    91  H    0.026084
    92  H    0.012712
    93  H    0.019517
    94  H    0.030383
    95  H    0.034430
    96  H    0.038977
    97  H    0.029836
    98  H    0.060938
    99  H    0.037968
   100  H    0.054758
   101  H    0.045406
   102  H    0.062250
   103  H    0.050136
   104  H    0.029879
   105  H    0.028442
   106  H    0.024174
   107  H    0.021347
   108  H    0.029634
   109  H    0.027182
   110  H    0.019259
   111  H    0.023789
   112  H    0.022373
   113  H    0.018986
   114  H    0.013933
   115  H    0.017122
   116  H    0.031007
   117  H    0.009717
   118  H    0.024736
   119  H    0.013437
   120  H    0.029097
   121  H    0.026678
   122  H    0.020221
   123  H    0.005366
   124  H    0.023950
   125  H    0.024020
   126  H    0.024021
   127  H    0.009864
   128  H    0.014280
   129  H    0.021199
   130  H    0.013550
   131  H    0.013192
   132  H    0.014501
   133  H    0.008511
   134  H    0.028486
   135  H    0.025563
   136  H    0.007661
   137  H    0.024293
   138  H    0.030043
   139  H    0.017480
   140  H    0.016345
 Sum of Mulliken charges =  -0.00000

 Dipole moment (field-independent basis, Debye):
    X=              7.1827    Y=              2.5287    Z=             -0.0308  Tot=              7.6149
 N-N= 4.570831059982D+03 E-N= 0.000000000000D+00  KE=-9.816097466102D+03
 Leave Link  601 at Wed Apr 27 13:55:43 2022, MaxMem=  6710886400 cpu:               0.8 elap:               0.1
 (Enter /sw/apps/gaussian-16.0/g16/l9999.exe)
 1\1\GINC-BP1-COMPUTE146\SP\RZINDO CIS\STO-3G\C55H74Mg1N4O6\OF15641\27-
 Apr-2022\0\\#p ZINDO=(nstates=5)\\step_1201_chromophore_12 ZINDO\\0,1\
 Mg,0,46.7,16.326,28.463\C,0,44.647,15.514,31.225\C,0,48.474,18.185,30.
 401\C,0,48.691,16.634,25.84\C,0,44.453,14.361,26.479\N,0,46.637,16.747
 ,30.553\C,0,45.696,16.375,31.533\C,0,46.131,16.94,32.898\C,0,47.18,17.
 959,32.5\C,0,47.51,17.563,31.136\C,0,46.724,19.476,32.416\C,0,46.671,1
 5.777,33.776\C,0,46.585,16.02,35.274\C,0,47.963,16.016,36.04\O,0,48.99

 Normal termination of Gaussian 16 at Wed Apr 27 13:55:43 2022.
