 Gaussian 16, Revision A.03,
 Gaussian 16:  ES64L-G16RevA.03 25-Dec-2016

 ------------------------------
 #p blyp/Def2SVP td=(nstates=5)
 ------------------------------

 -------------------------------------------------
 step_151_chromophore_5 TDDFT with blyp functional
 -------------------------------------------------
 Symbolic Z-matrix:
 Charge =  0 Multiplicity = 1

                         Standard orientation:
 ---------------------------------------------------------------------
 Center     Atomic      Atomic             Coordinates (Angstroms)
 Number     Number       Type             X           Y           Z
 ---------------------------------------------------------------------
      1         12           0        5.369230    0.460551   -0.560133
      2          6           0        3.800301   -2.766109   -0.254277
      3          6           0        2.870936    1.323203   -2.793612
      4          6           0        6.270578    3.640156   -0.217757
      5          6           0        7.199824   -0.378192    2.406479
      6          7           0        3.639678   -0.544258   -1.375149
      7          6           0        3.174835   -1.805294   -1.105448
      8          6           0        1.928380   -2.164046   -1.984900
      9          6           0        1.899895   -0.990563   -3.017251
     10          6           0        2.903562   -0.009716   -2.402824
     11          6           0        2.046952   -1.229692   -4.594795
     12          6           0        0.602169   -2.394938   -1.132394
     13          6           0       -0.205710   -3.646150   -1.468693
     14          6           0       -1.782606   -3.361250   -1.643551
     15          8           0       -2.434050   -3.316624   -2.702884
     16          8           0       -2.351999   -2.945903   -0.462297
     17          7           0        4.725792    2.281478   -1.430980
     18          6           0        3.703466    2.392908   -2.311175
     19          6           0        3.612116    3.798469   -2.764387
     20          6           0        4.561614    4.514382   -2.020089
     21          6           0        5.175679    3.532671   -1.091470
     22          6           0        2.599796    4.382247   -3.750660
     23          6           0        4.732410    6.062980   -1.993180
     24          8           0        4.136918    6.715109   -2.813008
     25          6           0        5.641294    6.819772   -0.999388
     26          7           0        6.535782    1.509050    0.900204
     27          6           0        6.970987    2.846293    0.649026
     28          6           0        7.811337    3.332443    1.905186
     29          6           0        8.060059    2.021485    2.723570
     30          6           0        7.202355    0.981117    1.979077
     31          6           0        9.096220    4.115895    1.407936
     32          6           0        7.685502    2.082951    4.231720
     33          6           0        6.171015    2.067502    4.482219
     34          7           0        5.581732   -1.248424    0.775869
     35          6           0        6.351055   -1.444421    1.895577
     36          6           0        6.088688   -2.733606    2.512596
     37          6           0        5.014293   -3.246530    1.657137
     38          6           0        4.840843   -2.309875    0.589296
     39          6           0        6.861389   -3.450441    3.582892
     40          6           0        4.175186   -4.414821    1.435206
     41          8           0        4.164139   -5.511294    1.988486
     42          6           0        3.281519   -4.114650    0.204599
     43          6           0        3.400012   -5.225514   -0.753731
     44          8           0        2.421743   -5.950972   -0.964302
     45          8           0        4.684712   -5.331287   -1.306430
     46          6           0        4.793628   -6.486739   -2.184255
     47          6           0       -3.728359   -2.383524   -0.388453
     48          6           0       -3.700092   -1.009589    0.082712
     49          6           0       -4.144261   -0.499383    1.224030
     50          6           0       -4.938383   -1.315969    2.315547
     51          6           0       -3.674754    0.892688    1.537336
     52          6           0       -4.437186    2.048991    0.849592
     53          6           0       -5.616804    2.531814    1.734511
     54          6           0       -6.982336    2.522787    0.996095
     55          6           0       -7.728602    3.906342    1.257002
     56          6           0       -7.901050    1.322599    1.457476
     57          6           0       -8.157924    0.438154    0.192716
     58          6           0       -9.123893   -0.680704    0.489894
     59          6           0      -10.538661   -0.457472   -0.061831
     60          6           0      -10.546549   -0.944180   -1.484952
     61          6           0      -11.697259   -0.993817    0.834914
     62          6           0      -12.717024    0.081023    1.331352
     63          6           0      -13.994733   -0.015755    0.449870
     64          6           0      -14.635106    1.429941    0.259627
     65          6           0      -15.400598    1.881940    1.559061
     66          6           0      -15.490140    1.466163   -1.007972
     67          1           0        2.063612    1.632769   -3.460508
     68          1           0        6.710075    4.637096   -0.275068
     69          1           0        7.757744   -0.635763    3.307629
     70          1           0        2.207495   -3.069993   -2.520908
     71          1           0        0.899797   -0.562624   -2.961342
     72          1           0        2.503180   -2.209176   -4.741956
     73          1           0        2.648074   -0.432627   -5.031758
     74          1           0        1.071975   -1.275272   -5.081853
     75          1           0       -0.133307   -1.647595   -1.428995
     76          1           0        0.852089   -2.319859   -0.074763
     77          1           0        0.018514   -4.274709   -0.606355
     78          1           0        0.137336   -4.076814   -2.409103
     79          1           0        1.964923    3.609808   -4.185576
     80          1           0        3.187350    4.756350   -4.589113
     81          1           0        2.009795    5.213432   -3.366119
     82          1           0        6.657892    6.667224   -1.362651
     83          1           0        5.501274    6.403997   -0.001590
     84          1           0        5.495210    7.895573   -0.915030
     85          1           0        7.137886    4.009432    2.430083
     86          1           0        9.067735    1.621501    2.615144
     87          1           0        9.072410    5.131939    1.801161
     88          1           0        9.229919    4.088893    0.326749
     89          1           0        9.961892    3.730110    1.946161
     90          1           0        7.939636    3.104589    4.511852
     91          1           0        8.190849    1.310486    4.811230
     92          1           0        5.898075    2.931715    5.088549
     93          1           0        5.839567    1.190261    5.037719
     94          1           0        5.616697    2.189672    3.551445
     95          1           0        6.158227   -3.951525    4.247792
     96          1           0        7.348227   -2.629798    4.109487
     97          1           0        7.594260   -4.125935    3.141092
     98          1           0        2.225658   -3.939550    0.409172
     99          1           0        3.801777   -6.872525   -2.419230
    100          1           0        5.263528   -7.302409   -1.634170
    101          1           0        5.442917   -6.326018   -3.044360
    102          1           0       -4.188135   -3.030515    0.357897
    103          1           0       -4.207482   -2.437386   -1.365954
    104          1           0       -3.021270   -0.354736   -0.463236
    105          1           0       -4.708019   -0.858086    3.278369
    106          1           0       -4.794333   -2.395530    2.282761
    107          1           0       -6.014226   -1.227835    2.169087
    108          1           0       -2.631017    0.926740    1.223959
    109          1           0       -3.781338    1.105807    2.600876
    110          1           0       -4.794011    1.791806   -0.147331
    111          1           0       -3.671784    2.824234    0.821648
    112          1           0       -5.278129    3.459296    2.197181
    113          1           0       -5.824776    1.902427    2.600138
    114          1           0       -6.794278    2.595937   -0.075064
    115          1           0       -8.756861    3.621970    1.478805
    116          1           0       -7.714978    4.635614    0.446718
    117          1           0       -7.319966    4.448023    2.110575
    118          1           0       -8.897750    1.544159    1.837666
    119          1           0       -7.409421    0.716913    2.219024
    120          1           0       -7.176449    0.023220   -0.036230
    121          1           0       -8.461890    1.039110   -0.664212
    122          1           0       -9.120297   -0.865623    1.563413
    123          1           0       -8.588280   -1.516048    0.037540
    124          1           0      -10.717134    0.610839   -0.190902
    125          1           0      -10.873906   -1.981950   -1.410954
    126          1           0       -9.543318   -0.801600   -1.886930
    127          1           0      -11.154414   -0.335651   -2.155071
    128          1           0      -11.208919   -1.336664    1.746726
    129          1           0      -12.258255   -1.780328    0.330239
    130          1           0      -12.137621    1.002691    1.283961
    131          1           0      -13.145073   -0.063416    2.322987
    132          1           0      -14.787288   -0.561889    0.961913
    133          1           0      -13.839293   -0.498992   -0.514822
    134          1           0      -13.887900    2.207926    0.103171
    135          1           0      -14.894078    2.725042    2.030093
    136          1           0      -15.443648    1.184271    2.396316
    137          1           0      -16.424408    2.124490    1.272418
    138          1           0      -15.309755    2.409638   -1.524250
    139          1           0      -16.547901    1.300258   -0.802332
    140          1           0      -15.113221    0.805535   -1.788794
 ---------------------------------------------------------------------

 SCF Done:  E(RB-LYP) =  -3007.36162140     A.U. after   21 cycles

 Excitation energies and oscillator strengths:

 Excited State   1:      Singlet-A      1.7798 eV  696.62 nm  f=0.2469  <S**2>=0.000
     243 -> 247        0.16344
     245 -> 247       -0.12356
     245 -> 248        0.18613
     246 -> 247        0.65812
     246 <- 247       -0.14588
 This state for optimization and/or second-order correction.
 Total Energy, E(TD-HF/TD-DFT) =  -3007.29621504
 Copying the excited state density for this state as the 1-particle RhoCI density.

 Excited State   2:      Singlet-A      1.8443 eV  672.27 nm  f=0.0672  <S**2>=0.000
     243 -> 247        0.51253
     245 -> 247       -0.42357
     246 -> 247       -0.19401

 Excited State   3:      Singlet-A      1.8585 eV  667.11 nm  f=0.0053  <S**2>=0.000
     244 -> 247        0.70060

 Excited State   4:      Singlet-A      2.0475 eV  605.55 nm  f=0.0616  <S**2>=0.000
     243 -> 247        0.44406
     245 -> 247        0.47994
     246 -> 248       -0.24586

 Excited State   5:      Singlet-A      2.2193 eV  558.68 nm  f=0.0007  <S**2>=0.000
     242 -> 247        0.70332

 The electronic state is 1-A.
 Alpha  occ. eigenvalues --  -46.28377 -18.82940 -18.81051 -18.77451 -18.76275
 Alpha  occ. eigenvalues --  -18.75858 -18.75639 -14.04173 -14.03460 -14.01558
 Alpha  occ. eigenvalues --  -14.01223 -10.04484 -10.04110 -10.00530  -9.99664
 Alpha  occ. eigenvalues --   -9.97339  -9.97259  -9.97217  -9.96955  -9.96863
 Alpha  occ. eigenvalues --   -9.96817  -9.96297  -9.96191  -9.96038  -9.95288
 Alpha  occ. eigenvalues --   -9.94669  -9.94414  -9.94256  -9.94234  -9.94175
 Alpha  occ. eigenvalues --   -9.94137  -9.94089  -9.93955  -9.93568  -9.93534
 Alpha  occ. eigenvalues --   -9.93525  -9.93298  -9.93236  -9.93212  -9.93083
 Alpha  occ. eigenvalues --   -9.93064  -9.92980  -9.92913  -9.92882  -9.92842
 Alpha  occ. eigenvalues --   -9.92645  -9.92289  -9.92152  -9.91906  -9.91793
 Alpha  occ. eigenvalues --   -9.91761  -9.91658  -9.91557  -9.91408  -9.91380
 Alpha  occ. eigenvalues --   -9.91102  -9.91062  -9.91051  -9.90904  -9.90888
 Alpha  occ. eigenvalues --   -9.90828  -9.90806  -9.90572  -9.90553  -9.90476
 Alpha  occ. eigenvalues --   -9.90401  -2.92870  -1.73281  -1.72720  -1.72616
 Alpha  occ. eigenvalues --   -0.97392  -0.96117  -0.92782  -0.91050  -0.90159
 Alpha  occ. eigenvalues --   -0.87929  -0.87034  -0.86112  -0.85516  -0.84113
 Alpha  occ. eigenvalues --   -0.75925  -0.74039  -0.73283  -0.72638  -0.72348
 Alpha  occ. eigenvalues --   -0.71751  -0.71538  -0.70663  -0.70590  -0.70091
 Alpha  occ. eigenvalues --   -0.69414  -0.68863  -0.68219  -0.67341  -0.67282
 Alpha  occ. eigenvalues --   -0.66563  -0.65663  -0.65143  -0.64823  -0.64584
 Alpha  occ. eigenvalues --   -0.63981  -0.62436  -0.61981  -0.61739  -0.61086
 Alpha  occ. eigenvalues --   -0.60864  -0.60105  -0.60020  -0.59118  -0.58675
 Alpha  occ. eigenvalues --   -0.57994  -0.57708  -0.56914  -0.55285  -0.54964
 Alpha  occ. eigenvalues --   -0.53936  -0.53357  -0.52610  -0.52370  -0.51356
 Alpha  occ. eigenvalues --   -0.50976  -0.50824  -0.50695  -0.50291  -0.50027
 Alpha  occ. eigenvalues --   -0.49572  -0.49176  -0.49000  -0.48475  -0.46247
 Alpha  occ. eigenvalues --   -0.46188  -0.45879  -0.45706  -0.45338  -0.44555
 Alpha  occ. eigenvalues --   -0.43753  -0.43738  -0.42913  -0.42809  -0.42567
 Alpha  occ. eigenvalues --   -0.42124  -0.41912  -0.41605  -0.41288  -0.41115
 Alpha  occ. eigenvalues --   -0.41096  -0.41010  -0.40663  -0.40417  -0.39955
 Alpha  occ. eigenvalues --   -0.39715  -0.39607  -0.39512  -0.39304  -0.39108
 Alpha  occ. eigenvalues --   -0.38951  -0.38643  -0.38464  -0.38259  -0.38098
 Alpha  occ. eigenvalues --   -0.37997  -0.37880  -0.37525  -0.37431  -0.37255
 Alpha  occ. eigenvalues --   -0.37076  -0.36923  -0.36809  -0.36733  -0.36547
 Alpha  occ. eigenvalues --   -0.36325  -0.36038  -0.36000  -0.35874  -0.35445
 Alpha  occ. eigenvalues --   -0.35284  -0.35069  -0.34971  -0.34883  -0.34628
 Alpha  occ. eigenvalues --   -0.34511  -0.34312  -0.34271  -0.34150  -0.34094
 Alpha  occ. eigenvalues --   -0.33843  -0.33683  -0.33457  -0.33268  -0.33154
 Alpha  occ. eigenvalues --   -0.32878  -0.32840  -0.32681  -0.32606  -0.32315
 Alpha  occ. eigenvalues --   -0.31812  -0.31799  -0.31779  -0.31496  -0.31449
 Alpha  occ. eigenvalues --   -0.31391  -0.31173  -0.31033  -0.30789  -0.30572
 Alpha  occ. eigenvalues --   -0.30558  -0.30435  -0.30222  -0.29947  -0.29897
 Alpha  occ. eigenvalues --   -0.29781  -0.29670  -0.29441  -0.29346  -0.29176
 Alpha  occ. eigenvalues --   -0.29129  -0.28571  -0.28528  -0.28424  -0.27902
 Alpha  occ. eigenvalues --   -0.27701  -0.27535  -0.27018  -0.26748  -0.26413
 Alpha  occ. eigenvalues --   -0.26290  -0.26207  -0.26042  -0.25868  -0.25617
 Alpha  occ. eigenvalues --   -0.25160  -0.24184  -0.23823  -0.23738  -0.23509
 Alpha  occ. eigenvalues --   -0.23065  -0.22638  -0.22137  -0.21450  -0.20914
 Alpha  occ. eigenvalues --   -0.20498  -0.20181  -0.18865  -0.18813  -0.17514
 Alpha  occ. eigenvalues --   -0.16203
 Alpha virt. eigenvalues --   -0.12035  -0.07382  -0.06211  -0.04819  -0.04044
 Alpha virt. eigenvalues --   -0.03630  -0.03402  -0.02241  -0.01761  -0.00516
 Alpha virt. eigenvalues --    0.00619   0.01505   0.02104   0.02301   0.02965

 Mulliken charges:
               1
     1  Mg   0.702083
     2  C   -0.088195
     3  C   -0.077454
     4  C   -0.028802
     5  C   -0.042457
     6  N   -0.223784
     7  C   -0.062641
     8  C    0.015381
     9  C   -0.007563
    10  C    0.058494
    11  C    0.119786
    12  C    0.089277
    13  C    0.144802
    14  C    0.074520
    15  O   -0.208267
    16  O   -0.294691
    17  N   -0.277684
    18  C    0.118439
    19  C   -0.155291
    20  C    0.032755
    21  C    0.105887
    22  C    0.198237
    23  C   -0.079163
    24  O   -0.152053
    25  C    0.133434
    26  N   -0.265752
    27  C    0.010775
    28  C   -0.002292
    29  C    0.053903
    30  C    0.004924
    31  C    0.131912
    32  C    0.094000
    33  C    0.054715
    34  N   -0.191837
    35  C    0.067245
    36  C   -0.173696
    37  C    0.020998
    38  C    0.093338
    39  C    0.186571
    40  C   -0.037430
    41  O   -0.138472
    42  C    0.145869
    43  C    0.115619
    44  O   -0.181699
    45  O   -0.283892
    46  C    0.208906
    47  C    0.371391
    48  C   -0.105450
    49  C   -0.137169
    50  C    0.125646
    51  C    0.111107
    52  C    0.100215
    53  C    0.098293
    54  C   -0.064856
    55  C    0.079536
    56  C    0.100199
    57  C   -0.009479
    58  C    0.144377
    59  C   -0.069557
    60  C    0.115049
    61  C    0.128203
    62  C    0.070807
    63  C    0.065356
    64  C   -0.095702
    65  C    0.086758
    66  C    0.112240
    67  H   -0.050907
    68  H   -0.077663
    69  H   -0.064198
    70  H   -0.015833
    71  H   -0.024340
    72  H   -0.009373
    73  H   -0.001108
    74  H    0.001958
    75  H   -0.008645
    76  H    0.003507
    77  H    0.010716
    78  H   -0.001739
    79  H   -0.032856
    80  H    0.001279
    81  H    0.016520
    82  H    0.022886
    83  H    0.005382
    84  H   -0.007427
    85  H   -0.010716
    86  H   -0.028008
    87  H   -0.015806
    88  H    0.013351
    89  H   -0.018616
    90  H   -0.025660
    91  H   -0.007973
    92  H   -0.021111
    93  H   -0.003391
    94  H    0.009968
    95  H    0.014986
    96  H   -0.022556
    97  H    0.025952
    98  H   -0.010646
    99  H    0.021757
   100  H    0.006888
   101  H    0.014873
   102  H   -0.025309
   103  H    0.004425
   104  H   -0.044956
   105  H   -0.005802
   106  H   -0.002971
   107  H    0.004803
   108  H   -0.019969
   109  H   -0.035718
   110  H   -0.018603
   111  H   -0.032463
   112  H   -0.033385
   113  H   -0.039920
   114  H   -0.020547
   115  H   -0.025543
   116  H   -0.014316
   117  H   -0.021031
   118  H   -0.024082
   119  H   -0.030290
   120  H   -0.029414
   121  H   -0.020881
   122  H   -0.047126
   123  H   -0.041476
   124  H   -0.042056
   125  H   -0.010386
   126  H   -0.022903
   127  H   -0.022199
   128  H   -0.044983
   129  H   -0.028978
   130  H   -0.022543
   131  H   -0.028927
   132  H   -0.026323
   133  H   -0.025079
   134  H   -0.033926
   135  H   -0.015775
   136  H   -0.017149
   137  H   -0.016913
   138  H   -0.027872
   139  H   -0.007481
   140  H   -0.029104
 Sum of Mulliken charges =  -0.00000

 Dipole moment (field-independent basis, Debye):
    X=              3.8997    Y=              3.6952    Z=              2.0022  Tot=              5.7333
 Quadrupole moment (field-independent basis, Debye-Ang):
   XX=           -358.0062   YY=           -448.4557   ZZ=           -401.5743
   XY=              5.6664   XZ=             -2.3464   YZ=             23.1032

 Normal termination of Gaussian 16 at Thu Apr 28 11:23:36 2022.
