 Gaussian 16, Revision A.03,
 Gaussian 16:  ES64L-G16RevA.03 25-Dec-2016

 -----------------------------------
 #p cam-b3lyp/Def2SVP td=(nstates=5)
 -----------------------------------

 ------------------------------------------------------
 step_151_chromophore_5 TDDFT with cam-b3lyp functional
 ------------------------------------------------------
 Symbolic Z-matrix:
 Charge =  0 Multiplicity = 1

                         Standard orientation:
 ---------------------------------------------------------------------
 Center     Atomic      Atomic             Coordinates (Angstroms)
 Number     Number       Type             X           Y           Z
 ---------------------------------------------------------------------
      1         12           0        5.369230    0.460551   -0.560133
      2          6           0        3.800301   -2.766109   -0.254277
      3          6           0        2.870936    1.323203   -2.793612
      4          6           0        6.270578    3.640156   -0.217757
      5          6           0        7.199824   -0.378192    2.406479
      6          7           0        3.639678   -0.544258   -1.375149
      7          6           0        3.174835   -1.805294   -1.105448
      8          6           0        1.928380   -2.164046   -1.984900
      9          6           0        1.899895   -0.990563   -3.017251
     10          6           0        2.903562   -0.009716   -2.402824
     11          6           0        2.046952   -1.229692   -4.594795
     12          6           0        0.602169   -2.394938   -1.132394
     13          6           0       -0.205710   -3.646150   -1.468693
     14          6           0       -1.782606   -3.361250   -1.643551
     15          8           0       -2.434050   -3.316624   -2.702884
     16          8           0       -2.351999   -2.945903   -0.462297
     17          7           0        4.725792    2.281478   -1.430980
     18          6           0        3.703466    2.392908   -2.311175
     19          6           0        3.612116    3.798469   -2.764387
     20          6           0        4.561614    4.514382   -2.020089
     21          6           0        5.175679    3.532671   -1.091470
     22          6           0        2.599796    4.382247   -3.750660
     23          6           0        4.732410    6.062980   -1.993180
     24          8           0        4.136918    6.715109   -2.813008
     25          6           0        5.641294    6.819772   -0.999388
     26          7           0        6.535782    1.509050    0.900204
     27          6           0        6.970987    2.846293    0.649026
     28          6           0        7.811337    3.332443    1.905186
     29          6           0        8.060059    2.021485    2.723570
     30          6           0        7.202355    0.981117    1.979077
     31          6           0        9.096220    4.115895    1.407936
     32          6           0        7.685502    2.082951    4.231720
     33          6           0        6.171015    2.067502    4.482219
     34          7           0        5.581732   -1.248424    0.775869
     35          6           0        6.351055   -1.444421    1.895577
     36          6           0        6.088688   -2.733606    2.512596
     37          6           0        5.014293   -3.246530    1.657137
     38          6           0        4.840843   -2.309875    0.589296
     39          6           0        6.861389   -3.450441    3.582892
     40          6           0        4.175186   -4.414821    1.435206
     41          8           0        4.164139   -5.511294    1.988486
     42          6           0        3.281519   -4.114650    0.204599
     43          6           0        3.400012   -5.225514   -0.753731
     44          8           0        2.421743   -5.950972   -0.964302
     45          8           0        4.684712   -5.331287   -1.306430
     46          6           0        4.793628   -6.486739   -2.184255
     47          6           0       -3.728359   -2.383524   -0.388453
     48          6           0       -3.700092   -1.009589    0.082712
     49          6           0       -4.144261   -0.499383    1.224030
     50          6           0       -4.938383   -1.315969    2.315547
     51          6           0       -3.674754    0.892688    1.537336
     52          6           0       -4.437186    2.048991    0.849592
     53          6           0       -5.616804    2.531814    1.734511
     54          6           0       -6.982336    2.522787    0.996095
     55          6           0       -7.728602    3.906342    1.257002
     56          6           0       -7.901050    1.322599    1.457476
     57          6           0       -8.157924    0.438154    0.192716
     58          6           0       -9.123893   -0.680704    0.489894
     59          6           0      -10.538661   -0.457472   -0.061831
     60          6           0      -10.546549   -0.944180   -1.484952
     61          6           0      -11.697259   -0.993817    0.834914
     62          6           0      -12.717024    0.081023    1.331352
     63          6           0      -13.994733   -0.015755    0.449870
     64          6           0      -14.635106    1.429941    0.259627
     65          6           0      -15.400598    1.881940    1.559061
     66          6           0      -15.490140    1.466163   -1.007972
     67          1           0        2.063612    1.632769   -3.460508
     68          1           0        6.710075    4.637096   -0.275068
     69          1           0        7.757744   -0.635763    3.307629
     70          1           0        2.207495   -3.069993   -2.520908
     71          1           0        0.899797   -0.562624   -2.961342
     72          1           0        2.503180   -2.209176   -4.741956
     73          1           0        2.648074   -0.432627   -5.031758
     74          1           0        1.071975   -1.275272   -5.081853
     75          1           0       -0.133307   -1.647595   -1.428995
     76          1           0        0.852089   -2.319859   -0.074763
     77          1           0        0.018514   -4.274709   -0.606355
     78          1           0        0.137336   -4.076814   -2.409103
     79          1           0        1.964923    3.609808   -4.185576
     80          1           0        3.187350    4.756350   -4.589113
     81          1           0        2.009795    5.213432   -3.366119
     82          1           0        6.657892    6.667224   -1.362651
     83          1           0        5.501274    6.403997   -0.001590
     84          1           0        5.495210    7.895573   -0.915030
     85          1           0        7.137886    4.009432    2.430083
     86          1           0        9.067735    1.621501    2.615144
     87          1           0        9.072410    5.131939    1.801161
     88          1           0        9.229919    4.088893    0.326749
     89          1           0        9.961892    3.730110    1.946161
     90          1           0        7.939636    3.104589    4.511852
     91          1           0        8.190849    1.310486    4.811230
     92          1           0        5.898075    2.931715    5.088549
     93          1           0        5.839567    1.190261    5.037719
     94          1           0        5.616697    2.189672    3.551445
     95          1           0        6.158227   -3.951525    4.247792
     96          1           0        7.348227   -2.629798    4.109487
     97          1           0        7.594260   -4.125935    3.141092
     98          1           0        2.225658   -3.939550    0.409172
     99          1           0        3.801777   -6.872525   -2.419230
    100          1           0        5.263528   -7.302409   -1.634170
    101          1           0        5.442917   -6.326018   -3.044360
    102          1           0       -4.188135   -3.030515    0.357897
    103          1           0       -4.207482   -2.437386   -1.365954
    104          1           0       -3.021270   -0.354736   -0.463236
    105          1           0       -4.708019   -0.858086    3.278369
    106          1           0       -4.794333   -2.395530    2.282761
    107          1           0       -6.014226   -1.227835    2.169087
    108          1           0       -2.631017    0.926740    1.223959
    109          1           0       -3.781338    1.105807    2.600876
    110          1           0       -4.794011    1.791806   -0.147331
    111          1           0       -3.671784    2.824234    0.821648
    112          1           0       -5.278129    3.459296    2.197181
    113          1           0       -5.824776    1.902427    2.600138
    114          1           0       -6.794278    2.595937   -0.075064
    115          1           0       -8.756861    3.621970    1.478805
    116          1           0       -7.714978    4.635614    0.446718
    117          1           0       -7.319966    4.448023    2.110575
    118          1           0       -8.897750    1.544159    1.837666
    119          1           0       -7.409421    0.716913    2.219024
    120          1           0       -7.176449    0.023220   -0.036230
    121          1           0       -8.461890    1.039110   -0.664212
    122          1           0       -9.120297   -0.865623    1.563413
    123          1           0       -8.588280   -1.516048    0.037540
    124          1           0      -10.717134    0.610839   -0.190902
    125          1           0      -10.873906   -1.981950   -1.410954
    126          1           0       -9.543318   -0.801600   -1.886930
    127          1           0      -11.154414   -0.335651   -2.155071
    128          1           0      -11.208919   -1.336664    1.746726
    129          1           0      -12.258255   -1.780328    0.330239
    130          1           0      -12.137621    1.002691    1.283961
    131          1           0      -13.145073   -0.063416    2.322987
    132          1           0      -14.787288   -0.561889    0.961913
    133          1           0      -13.839293   -0.498992   -0.514822
    134          1           0      -13.887900    2.207926    0.103171
    135          1           0      -14.894078    2.725042    2.030093
    136          1           0      -15.443648    1.184271    2.396316
    137          1           0      -16.424408    2.124490    1.272418
    138          1           0      -15.309755    2.409638   -1.524250
    139          1           0      -16.547901    1.300258   -0.802332
    140          1           0      -15.113221    0.805535   -1.788794
 ---------------------------------------------------------------------

 SCF Done:  E(RCAM-B3LYP) =  -3007.14261445     A.U. after   19 cycles

 Excitation energies and oscillator strengths:

 Excited State   1:      Singlet-A      1.6614 eV  746.25 nm  f=0.3715  <S**2>=0.000
     245 -> 248        0.17219
     246 -> 247        0.68760
     245 <- 248        0.10647
 This state for optimization and/or second-order correction.
 Total Energy, E(TD-HF/TD-DFT) =  -3007.08155768
 Copying the excited state density for this state as the 1-particle RhoCI density.

 Excited State   2:      Singlet-A      2.1827 eV  568.03 nm  f=0.1204  <S**2>=0.000
     245 -> 247        0.64147
     246 -> 248       -0.28626

 Excited State   3:      Singlet-A      3.2643 eV  379.82 nm  f=0.0083  <S**2>=0.000
     244 -> 247        0.67957

 Excited State   4:      Singlet-A      3.3636 eV  368.60 nm  f=0.0807  <S**2>=0.000
     240 -> 247        0.15929
     241 -> 247        0.50387
     241 -> 249        0.22386
     241 -> 251       -0.10996
     245 -> 247       -0.10545
     246 -> 248       -0.28811

 Excited State   5:      Singlet-A      3.4553 eV  358.82 nm  f=0.1278  <S**2>=0.000
     242 -> 247        0.56709
     245 -> 247        0.11816
     246 -> 248        0.35146

 The electronic state is 1-A.
 Alpha  occ. eigenvalues --  -46.90031 -19.25909 -19.23839 -19.20649 -19.19203
 Alpha  occ. eigenvalues --  -19.19052 -19.18907 -14.43010 -14.42474 -14.40109
 Alpha  occ. eigenvalues --  -14.39630 -10.40072 -10.39504 -10.35659 -10.35051
 Alpha  occ. eigenvalues --  -10.31923 -10.31446 -10.31402 -10.31372 -10.31275
 Alpha  occ. eigenvalues --  -10.31183 -10.30673 -10.30545 -10.30366 -10.29374
 Alpha  occ. eigenvalues --  -10.29069 -10.28870 -10.28565 -10.28557 -10.28428
 Alpha  occ. eigenvalues --  -10.28346 -10.28236 -10.28143 -10.27843 -10.27630
 Alpha  occ. eigenvalues --  -10.27505 -10.27451 -10.27342 -10.27284 -10.27051
 Alpha  occ. eigenvalues --  -10.27025 -10.26845 -10.26719 -10.26714 -10.26707
 Alpha  occ. eigenvalues --  -10.26587 -10.26053 -10.25892 -10.25569 -10.25557
 Alpha  occ. eigenvalues --  -10.25530 -10.25365 -10.25282 -10.25260 -10.25069
 Alpha  occ. eigenvalues --  -10.24877 -10.24754 -10.24723 -10.24600 -10.24527
 Alpha  occ. eigenvalues --  -10.24490 -10.24409 -10.24174 -10.24162 -10.24021
 Alpha  occ. eigenvalues --  -10.23981  -3.18415  -1.93305  -1.92839  -1.92735
 Alpha  occ. eigenvalues --   -1.15938  -1.14473  -1.11204  -1.09497  -1.08172
 Alpha  occ. eigenvalues --   -1.05695  -1.04757  -1.03741  -1.03102  -1.01691
 Alpha  occ. eigenvalues --   -0.93137  -0.90912  -0.90088  -0.89378  -0.89116
 Alpha  occ. eigenvalues --   -0.88397  -0.88189  -0.87226  -0.87154  -0.86670
 Alpha  occ. eigenvalues --   -0.85972  -0.85193  -0.84490  -0.83562  -0.83439
 Alpha  occ. eigenvalues --   -0.82623  -0.81817  -0.81043  -0.80680  -0.80466
 Alpha  occ. eigenvalues --   -0.79706  -0.78068  -0.77527  -0.77295  -0.76539
 Alpha  occ. eigenvalues --   -0.76220  -0.75390  -0.75371  -0.74375  -0.73883
 Alpha  occ. eigenvalues --   -0.73033  -0.72682  -0.71826  -0.70051  -0.69665
 Alpha  occ. eigenvalues --   -0.68553  -0.67888  -0.67120  -0.66730  -0.65393
 Alpha  occ. eigenvalues --   -0.65091  -0.64866  -0.64838  -0.64290  -0.64071
 Alpha  occ. eigenvalues --   -0.63355  -0.63139  -0.62693  -0.62359  -0.59890
 Alpha  occ. eigenvalues --   -0.59625  -0.59524  -0.59166  -0.58785  -0.58179
 Alpha  occ. eigenvalues --   -0.57234  -0.57148  -0.55954  -0.55903  -0.55525
 Alpha  occ. eigenvalues --   -0.55316  -0.55146  -0.54535  -0.54344  -0.53983
 Alpha  occ. eigenvalues --   -0.53815  -0.53665  -0.53390  -0.53026  -0.52857
 Alpha  occ. eigenvalues --   -0.52341  -0.52274  -0.52170  -0.51893  -0.51748
 Alpha  occ. eigenvalues --   -0.51682  -0.51432  -0.51152  -0.50707  -0.50506
 Alpha  occ. eigenvalues --   -0.50326  -0.50243  -0.50011  -0.49798  -0.49512
 Alpha  occ. eigenvalues --   -0.49448  -0.49354  -0.49144  -0.49080  -0.48848
 Alpha  occ. eigenvalues --   -0.48804  -0.48417  -0.48006  -0.47946  -0.47622
 Alpha  occ. eigenvalues --   -0.47386  -0.47118  -0.47035  -0.46810  -0.46427
 Alpha  occ. eigenvalues --   -0.46336  -0.46259  -0.46064  -0.46005  -0.45908
 Alpha  occ. eigenvalues --   -0.45696  -0.45438  -0.45316  -0.44959  -0.44831
 Alpha  occ. eigenvalues --   -0.44744  -0.44535  -0.44463  -0.44179  -0.44027
 Alpha  occ. eigenvalues --   -0.43448  -0.43319  -0.43240  -0.43042  -0.42950
 Alpha  occ. eigenvalues --   -0.42858  -0.42730  -0.42681  -0.42539  -0.42173
 Alpha  occ. eigenvalues --   -0.42018  -0.41824  -0.41427  -0.41307  -0.41076
 Alpha  occ. eigenvalues --   -0.40950  -0.40823  -0.40511  -0.40404  -0.40350
 Alpha  occ. eigenvalues --   -0.40237  -0.40141  -0.39586  -0.39329  -0.38895
 Alpha  occ. eigenvalues --   -0.38761  -0.38380  -0.37856  -0.37590  -0.37517
 Alpha  occ. eigenvalues --   -0.37208  -0.36972  -0.36862  -0.36628  -0.36504
 Alpha  occ. eigenvalues --   -0.36269  -0.35405  -0.35043  -0.34387  -0.34136
 Alpha  occ. eigenvalues --   -0.33450  -0.33377  -0.33087  -0.31610  -0.31001
 Alpha  occ. eigenvalues --   -0.30900  -0.30280  -0.29965  -0.29731  -0.24343
 Alpha  occ. eigenvalues --   -0.21495
 Alpha virt. eigenvalues --   -0.09272  -0.02234   0.00351   0.01043   0.02221
 Alpha virt. eigenvalues --    0.03859   0.04333   0.04848   0.05702   0.06719
 Alpha virt. eigenvalues --    0.07565   0.08280   0.08422   0.08441   0.09139

 Mulliken charges:
               1
     1  Mg   0.830176
     2  C   -0.096866
     3  C   -0.085856
     4  C   -0.052116
     5  C   -0.047904
     6  N   -0.298900
     7  C   -0.011843
     8  C   -0.039640
     9  C   -0.058347
    10  C    0.072127
    11  C    0.065835
    12  C    0.037975
    13  C    0.079237
    14  C    0.154830
    15  O   -0.252120
    16  O   -0.360185
    17  N   -0.360442
    18  C    0.123518
    19  C   -0.164566
    20  C   -0.025008
    21  C    0.127747
    22  C    0.145004
    23  C   -0.008554
    24  O   -0.190813
    25  C    0.054409
    26  N   -0.331183
    27  C    0.036230
    28  C   -0.059181
    29  C   -0.002035
    30  C    0.020690
    31  C    0.073019
    32  C    0.037769
    33  C   -0.008049
    34  N   -0.281307
    35  C    0.072872
    36  C   -0.166348
    37  C   -0.057647
    38  C    0.128222
    39  C    0.139258
    40  C    0.061834
    41  O   -0.176873
    42  C    0.052824
    43  C    0.208610
    44  O   -0.222091
    45  O   -0.344845
    46  C    0.166902
    47  C    0.332152
    48  C   -0.124303
    49  C   -0.159051
    50  C    0.072067
    51  C    0.048965
    52  C    0.043168
    53  C    0.048322
    54  C   -0.128821
    55  C    0.029445
    56  C    0.055327
    57  C   -0.052472
    58  C    0.082695
    59  C   -0.126277
    60  C    0.060441
    61  C    0.069498
    62  C    0.021469
    63  C    0.013425
    64  C   -0.152983
    65  C    0.027185
    66  C    0.052115
    67  H   -0.016786
    68  H   -0.045189
    69  H   -0.029528
    70  H    0.016230
    71  H    0.011058
    72  H    0.014084
    73  H    0.023877
    74  H    0.026384
    75  H    0.020214
    76  H    0.033223
    77  H    0.042540
    78  H    0.031037
    79  H   -0.007315
    80  H    0.028650
    81  H    0.043114
    82  H    0.047531
    83  H    0.031606
    84  H    0.027732
    85  H    0.022439
    86  H    0.008653
    87  H    0.008997
    88  H    0.037286
    89  H    0.007257
    90  H    0.004112
    91  H    0.019310
    92  H    0.004340
    93  H    0.021003
    94  H    0.031795
    95  H    0.041417
    96  H   -0.000500
    97  H    0.051954
    98  H    0.030517
    99  H    0.049557
   100  H    0.029403
   101  H    0.037470
   102  H    0.005015
   103  H    0.038507
   104  H   -0.013386
   105  H    0.018108
   106  H    0.022030
   107  H    0.023793
   108  H    0.011686
   109  H   -0.005737
   110  H    0.007771
   111  H   -0.001365
   112  H   -0.002924
   113  H   -0.013694
   114  H    0.010679
   115  H   -0.002560
   116  H    0.009444
   117  H    0.001923
   118  H    0.001871
   119  H   -0.006233
   120  H   -0.004762
   121  H    0.004760
   122  H   -0.018305
   123  H   -0.010096
   124  H   -0.011171
   125  H    0.012725
   126  H    0.000850
   127  H    0.002312
   128  H   -0.013480
   129  H   -0.001327
   130  H    0.002460
   131  H   -0.000373
   132  H    0.001517
   133  H    0.000249
   134  H   -0.003022
   135  H    0.008242
   136  H    0.005904
   137  H    0.007176
   138  H   -0.002276
   139  H    0.015191
   140  H   -0.003703
 Sum of Mulliken charges =  -0.00000

 Dipole moment (field-independent basis, Debye):
    X=              4.1702    Y=              3.9584    Z=              2.0999  Tot=              6.1212
 Quadrupole moment (field-independent basis, Debye-Ang):
   XX=           -354.8145   YY=           -446.0381   ZZ=           -400.5302
   XY=              7.1914   XZ=             -1.3074   YZ=             24.1764

 Normal termination of Gaussian 16 at Thu Apr 28 10:27:04 2022.
