 Gaussian 16, Revision A.03,
 Gaussian 16:  ES64L-G16RevA.03 25-Dec-2016

 ---------------------------------
 #p PBE1PBE/Def2SVP td=(nstates=5)
 ---------------------------------

 ----------------------------------------------------
 step_151_chromophore_5 TDDFT with PBE1PBE functional
 ----------------------------------------------------
 Symbolic Z-matrix:
 Charge =  0 Multiplicity = 1

                         Standard orientation:
 ---------------------------------------------------------------------
 Center     Atomic      Atomic             Coordinates (Angstroms)
 Number     Number       Type             X           Y           Z
 ---------------------------------------------------------------------
      1         12           0        5.369230    0.460551   -0.560133
      2          6           0        3.800301   -2.766109   -0.254277
      3          6           0        2.870936    1.323203   -2.793612
      4          6           0        6.270578    3.640156   -0.217757
      5          6           0        7.199824   -0.378192    2.406479
      6          7           0        3.639678   -0.544258   -1.375149
      7          6           0        3.174835   -1.805294   -1.105448
      8          6           0        1.928380   -2.164046   -1.984900
      9          6           0        1.899895   -0.990563   -3.017251
     10          6           0        2.903562   -0.009716   -2.402824
     11          6           0        2.046952   -1.229692   -4.594795
     12          6           0        0.602169   -2.394938   -1.132394
     13          6           0       -0.205710   -3.646150   -1.468693
     14          6           0       -1.782606   -3.361250   -1.643551
     15          8           0       -2.434050   -3.316624   -2.702884
     16          8           0       -2.351999   -2.945903   -0.462297
     17          7           0        4.725792    2.281478   -1.430980
     18          6           0        3.703466    2.392908   -2.311175
     19          6           0        3.612116    3.798469   -2.764387
     20          6           0        4.561614    4.514382   -2.020089
     21          6           0        5.175679    3.532671   -1.091470
     22          6           0        2.599796    4.382247   -3.750660
     23          6           0        4.732410    6.062980   -1.993180
     24          8           0        4.136918    6.715109   -2.813008
     25          6           0        5.641294    6.819772   -0.999388
     26          7           0        6.535782    1.509050    0.900204
     27          6           0        6.970987    2.846293    0.649026
     28          6           0        7.811337    3.332443    1.905186
     29          6           0        8.060059    2.021485    2.723570
     30          6           0        7.202355    0.981117    1.979077
     31          6           0        9.096220    4.115895    1.407936
     32          6           0        7.685502    2.082951    4.231720
     33          6           0        6.171015    2.067502    4.482219
     34          7           0        5.581732   -1.248424    0.775869
     35          6           0        6.351055   -1.444421    1.895577
     36          6           0        6.088688   -2.733606    2.512596
     37          6           0        5.014293   -3.246530    1.657137
     38          6           0        4.840843   -2.309875    0.589296
     39          6           0        6.861389   -3.450441    3.582892
     40          6           0        4.175186   -4.414821    1.435206
     41          8           0        4.164139   -5.511294    1.988486
     42          6           0        3.281519   -4.114650    0.204599
     43          6           0        3.400012   -5.225514   -0.753731
     44          8           0        2.421743   -5.950972   -0.964302
     45          8           0        4.684712   -5.331287   -1.306430
     46          6           0        4.793628   -6.486739   -2.184255
     47          6           0       -3.728359   -2.383524   -0.388453
     48          6           0       -3.700092   -1.009589    0.082712
     49          6           0       -4.144261   -0.499383    1.224030
     50          6           0       -4.938383   -1.315969    2.315547
     51          6           0       -3.674754    0.892688    1.537336
     52          6           0       -4.437186    2.048991    0.849592
     53          6           0       -5.616804    2.531814    1.734511
     54          6           0       -6.982336    2.522787    0.996095
     55          6           0       -7.728602    3.906342    1.257002
     56          6           0       -7.901050    1.322599    1.457476
     57          6           0       -8.157924    0.438154    0.192716
     58          6           0       -9.123893   -0.680704    0.489894
     59          6           0      -10.538661   -0.457472   -0.061831
     60          6           0      -10.546549   -0.944180   -1.484952
     61          6           0      -11.697259   -0.993817    0.834914
     62          6           0      -12.717024    0.081023    1.331352
     63          6           0      -13.994733   -0.015755    0.449870
     64          6           0      -14.635106    1.429941    0.259627
     65          6           0      -15.400598    1.881940    1.559061
     66          6           0      -15.490140    1.466163   -1.007972
     67          1           0        2.063612    1.632769   -3.460508
     68          1           0        6.710075    4.637096   -0.275068
     69          1           0        7.757744   -0.635763    3.307629
     70          1           0        2.207495   -3.069993   -2.520908
     71          1           0        0.899797   -0.562624   -2.961342
     72          1           0        2.503180   -2.209176   -4.741956
     73          1           0        2.648074   -0.432627   -5.031758
     74          1           0        1.071975   -1.275272   -5.081853
     75          1           0       -0.133307   -1.647595   -1.428995
     76          1           0        0.852089   -2.319859   -0.074763
     77          1           0        0.018514   -4.274709   -0.606355
     78          1           0        0.137336   -4.076814   -2.409103
     79          1           0        1.964923    3.609808   -4.185576
     80          1           0        3.187350    4.756350   -4.589113
     81          1           0        2.009795    5.213432   -3.366119
     82          1           0        6.657892    6.667224   -1.362651
     83          1           0        5.501274    6.403997   -0.001590
     84          1           0        5.495210    7.895573   -0.915030
     85          1           0        7.137886    4.009432    2.430083
     86          1           0        9.067735    1.621501    2.615144
     87          1           0        9.072410    5.131939    1.801161
     88          1           0        9.229919    4.088893    0.326749
     89          1           0        9.961892    3.730110    1.946161
     90          1           0        7.939636    3.104589    4.511852
     91          1           0        8.190849    1.310486    4.811230
     92          1           0        5.898075    2.931715    5.088549
     93          1           0        5.839567    1.190261    5.037719
     94          1           0        5.616697    2.189672    3.551445
     95          1           0        6.158227   -3.951525    4.247792
     96          1           0        7.348227   -2.629798    4.109487
     97          1           0        7.594260   -4.125935    3.141092
     98          1           0        2.225658   -3.939550    0.409172
     99          1           0        3.801777   -6.872525   -2.419230
    100          1           0        5.263528   -7.302409   -1.634170
    101          1           0        5.442917   -6.326018   -3.044360
    102          1           0       -4.188135   -3.030515    0.357897
    103          1           0       -4.207482   -2.437386   -1.365954
    104          1           0       -3.021270   -0.354736   -0.463236
    105          1           0       -4.708019   -0.858086    3.278369
    106          1           0       -4.794333   -2.395530    2.282761
    107          1           0       -6.014226   -1.227835    2.169087
    108          1           0       -2.631017    0.926740    1.223959
    109          1           0       -3.781338    1.105807    2.600876
    110          1           0       -4.794011    1.791806   -0.147331
    111          1           0       -3.671784    2.824234    0.821648
    112          1           0       -5.278129    3.459296    2.197181
    113          1           0       -5.824776    1.902427    2.600138
    114          1           0       -6.794278    2.595937   -0.075064
    115          1           0       -8.756861    3.621970    1.478805
    116          1           0       -7.714978    4.635614    0.446718
    117          1           0       -7.319966    4.448023    2.110575
    118          1           0       -8.897750    1.544159    1.837666
    119          1           0       -7.409421    0.716913    2.219024
    120          1           0       -7.176449    0.023220   -0.036230
    121          1           0       -8.461890    1.039110   -0.664212
    122          1           0       -9.120297   -0.865623    1.563413
    123          1           0       -8.588280   -1.516048    0.037540
    124          1           0      -10.717134    0.610839   -0.190902
    125          1           0      -10.873906   -1.981950   -1.410954
    126          1           0       -9.543318   -0.801600   -1.886930
    127          1           0      -11.154414   -0.335651   -2.155071
    128          1           0      -11.208919   -1.336664    1.746726
    129          1           0      -12.258255   -1.780328    0.330239
    130          1           0      -12.137621    1.002691    1.283961
    131          1           0      -13.145073   -0.063416    2.322987
    132          1           0      -14.787288   -0.561889    0.961913
    133          1           0      -13.839293   -0.498992   -0.514822
    134          1           0      -13.887900    2.207926    0.103171
    135          1           0      -14.894078    2.725042    2.030093
    136          1           0      -15.443648    1.184271    2.396316
    137          1           0      -16.424408    2.124490    1.272418
    138          1           0      -15.309755    2.409638   -1.524250
    139          1           0      -16.547901    1.300258   -0.802332
    140          1           0      -15.113221    0.805535   -1.788794
 ---------------------------------------------------------------------

 SCF Done:  E(RPBE1PBE) =  -3005.33134032     A.U. after   15 cycles

 Excitation energies and oscillator strengths:

 Excited State   1:      Singlet-A      1.8252 eV  679.28 nm  f=0.3547  <S**2>=0.000
     245 -> 248        0.17021
     246 -> 247        0.69447
     246 <- 247       -0.11321
 This state for optimization and/or second-order correction.
 Total Energy, E(TD-HF/TD-DFT) =  -3005.26426457
 Copying the excited state density for this state as the 1-particle RhoCI density.

 Excited State   2:      Singlet-A      2.2005 eV  563.44 nm  f=0.1180  <S**2>=0.000
     245 -> 247        0.65149
     246 -> 248       -0.26348

 Excited State   3:      Singlet-A      2.8667 eV  432.50 nm  f=0.0031  <S**2>=0.000
     240 -> 247        0.14615
     241 -> 247        0.41647
     241 -> 249        0.12264
     243 -> 247        0.50703

 Excited State   4:      Singlet-A      2.9829 eV  415.65 nm  f=0.0011  <S**2>=0.000
     241 -> 247        0.46713
     242 -> 247        0.23547
     243 -> 247       -0.45625

 Excited State   5:      Singlet-A      3.0508 eV  406.40 nm  f=0.0023  <S**2>=0.000
     240 -> 247       -0.12166
     241 -> 247       -0.19059
     242 -> 247        0.63819
     243 -> 247        0.11606

 The electronic state is 1-A.
 Alpha  occ. eigenvalues --  -46.93417 -19.26524 -19.24584 -19.20895 -19.19558
 Alpha  occ. eigenvalues --  -19.19272 -19.19106 -14.42573 -14.41978 -14.39728
 Alpha  occ. eigenvalues --  -14.39247 -10.37079 -10.36623 -10.32864 -10.32166
 Alpha  occ. eigenvalues --  -10.29643 -10.29204 -10.29175 -10.29007 -10.28769
 Alpha  occ. eigenvalues --  -10.28418 -10.28380 -10.28249 -10.28089 -10.27200
 Alpha  occ. eigenvalues --  -10.26677 -10.26509 -10.26376 -10.26204 -10.26190
 Alpha  occ. eigenvalues --  -10.26152 -10.26051 -10.25973 -10.25445 -10.25215
 Alpha  occ. eigenvalues --  -10.25129 -10.25120 -10.25019 -10.24987 -10.24669
 Alpha  occ. eigenvalues --  -10.24608 -10.24330 -10.24214 -10.24085 -10.24043
 Alpha  occ. eigenvalues --  -10.23986 -10.23811 -10.23380 -10.23326 -10.23215
 Alpha  occ. eigenvalues --  -10.23129 -10.22865 -10.22856 -10.22759 -10.22751
 Alpha  occ. eigenvalues --  -10.22387 -10.22348 -10.22269 -10.22168 -10.22067
 Alpha  occ. eigenvalues --  -10.22061 -10.21807 -10.21722 -10.21595 -10.21394
 Alpha  occ. eigenvalues --  -10.21366  -3.15384  -1.88211  -1.87727  -1.87624
 Alpha  occ. eigenvalues --   -1.10656  -1.09320  -1.05986  -1.04207  -1.02980
 Alpha  occ. eigenvalues --   -1.00601  -0.99408  -0.98404  -0.97753  -0.96258
 Alpha  occ. eigenvalues --   -0.87468  -0.85056  -0.84189  -0.83646  -0.83323
 Alpha  occ. eigenvalues --   -0.82705  -0.82302  -0.81521  -0.81287  -0.80953
 Alpha  occ. eigenvalues --   -0.80321  -0.79426  -0.78688  -0.77848  -0.77677
 Alpha  occ. eigenvalues --   -0.76805  -0.75988  -0.75231  -0.74967  -0.74795
 Alpha  occ. eigenvalues --   -0.73891  -0.72377  -0.71783  -0.71582  -0.70806
 Alpha  occ. eigenvalues --   -0.70386  -0.69760  -0.69455  -0.68506  -0.68054
 Alpha  occ. eigenvalues --   -0.67461  -0.67035  -0.66253  -0.64350  -0.63992
 Alpha  occ. eigenvalues --   -0.63042  -0.62105  -0.61558  -0.60979  -0.59919
 Alpha  occ. eigenvalues --   -0.59557  -0.59407  -0.59024  -0.58763  -0.58248
 Alpha  occ. eigenvalues --   -0.57877  -0.57273  -0.57247  -0.56551  -0.54475
 Alpha  occ. eigenvalues --   -0.54053  -0.53934  -0.53793  -0.53402  -0.52675
 Alpha  occ. eigenvalues --   -0.51737  -0.51535  -0.50558  -0.50432  -0.49983
 Alpha  occ. eigenvalues --   -0.49877  -0.49666  -0.49154  -0.48799  -0.48443
 Alpha  occ. eigenvalues --   -0.48325  -0.48078  -0.47936  -0.47498  -0.47402
 Alpha  occ. eigenvalues --   -0.46972  -0.46757  -0.46570  -0.46437  -0.46384
 Alpha  occ. eigenvalues --   -0.46184  -0.45935  -0.45727  -0.45284  -0.45028
 Alpha  occ. eigenvalues --   -0.44907  -0.44815  -0.44601  -0.44417  -0.44101
 Alpha  occ. eigenvalues --   -0.44077  -0.43928  -0.43703  -0.43650  -0.43512
 Alpha  occ. eigenvalues --   -0.43462  -0.43024  -0.42629  -0.42556  -0.42265
 Alpha  occ. eigenvalues --   -0.42075  -0.41795  -0.41706  -0.41538  -0.41084
 Alpha  occ. eigenvalues --   -0.41024  -0.40991  -0.40763  -0.40731  -0.40531
 Alpha  occ. eigenvalues --   -0.40417  -0.40168  -0.40037  -0.39623  -0.39519
 Alpha  occ. eigenvalues --   -0.39422  -0.39240  -0.39086  -0.38956  -0.38790
 Alpha  occ. eigenvalues --   -0.38280  -0.38150  -0.37922  -0.37847  -0.37716
 Alpha  occ. eigenvalues --   -0.37596  -0.37505  -0.37448  -0.37369  -0.37054
 Alpha  occ. eigenvalues --   -0.36909  -0.36515  -0.36313  -0.36159  -0.35963
 Alpha  occ. eigenvalues --   -0.35745  -0.35591  -0.35314  -0.35286  -0.35252
 Alpha  occ. eigenvalues --   -0.35157  -0.34943  -0.34505  -0.34160  -0.33774
 Alpha  occ. eigenvalues --   -0.33572  -0.33157  -0.32605  -0.32588  -0.32346
 Alpha  occ. eigenvalues --   -0.32268  -0.31893  -0.31745  -0.31566  -0.31325
 Alpha  occ. eigenvalues --   -0.31200  -0.30409  -0.29930  -0.29494  -0.29074
 Alpha  occ. eigenvalues --   -0.28717  -0.28397  -0.28238  -0.27217  -0.26016
 Alpha  occ. eigenvalues --   -0.25839  -0.25680  -0.25295  -0.25274  -0.21274
 Alpha  occ. eigenvalues --   -0.19142
 Alpha virt. eigenvalues --   -0.11687  -0.05720  -0.03897  -0.02227  -0.01730
 Alpha virt. eigenvalues --   -0.00635  -0.00314   0.00588   0.01302   0.02538
 Alpha virt. eigenvalues --    0.03686   0.04233   0.04965   0.05125   0.05925

 Mulliken charges:
               1
     1  Mg   0.968400
     2  C   -0.059887
     3  C   -0.071488
     4  C   -0.073695
     5  C   -0.039128
     6  N   -0.403899
     7  C    0.056397
     8  C   -0.110753
     9  C   -0.121561
    10  C    0.099015
    11  C    0.006386
    12  C   -0.017525
    13  C    0.006904
    14  C    0.215327
    15  O   -0.284639
    16  O   -0.386312
    17  N   -0.470315
    18  C    0.146286
    19  C   -0.192646
    20  C   -0.064053
    21  C    0.158075
    22  C    0.085327
    23  C    0.041586
    24  O   -0.223943
    25  C   -0.022399
    26  N   -0.426060
    27  C    0.076816
    28  C   -0.139124
    29  C   -0.072704
    30  C    0.054089
    31  C    0.016329
    32  C   -0.027920
    33  C   -0.078976
    34  N   -0.409336
    35  C    0.094164
    36  C   -0.175660
    37  C   -0.100843
    38  C    0.165445
    39  C    0.080135
    40  C    0.155937
    41  O   -0.222195
    42  C   -0.089340
    43  C    0.299744
    44  O   -0.256862
    45  O   -0.373080
    46  C    0.112730
    47  C    0.285140
    48  C   -0.134579
    49  C   -0.193873
    50  C    0.007215
    51  C   -0.024140
    52  C   -0.020483
    53  C    0.003009
    54  C   -0.218449
    55  C   -0.025826
    56  C    0.001458
    57  C   -0.115316
    58  C    0.021639
    59  C   -0.208003
    60  C    0.001253
    61  C    0.012721
    62  C   -0.040320
    63  C   -0.045647
    64  C   -0.242505
    65  C   -0.029822
    66  C   -0.008202
    67  H    0.014406
    68  H   -0.007553
    69  H    0.001583
    70  H    0.056097
    71  H    0.048562
    72  H    0.042266
    73  H    0.050875
    74  H    0.053014
    75  H    0.055970
    76  H    0.064227
    77  H    0.075290
    78  H    0.062150
    79  H    0.021011
    80  H    0.057469
    81  H    0.069950
    82  H    0.073591
    83  H    0.058273
    84  H    0.055651
    85  H    0.058883
    86  H    0.046009
    87  H    0.036824
    88  H    0.063104
    89  H    0.035201
    90  H    0.039576
    91  H    0.049940
    92  H    0.032605
    93  H    0.049001
    94  H    0.061686
    95  H    0.068571
    96  H    0.028250
    97  H    0.078727
    98  H    0.073329
    99  H    0.070008
   100  H    0.052234
   101  H    0.059323
   102  H    0.034027
   103  H    0.064822
   104  H    0.016510
   105  H    0.044585
   106  H    0.048125
   107  H    0.053878
   108  H    0.044304
   109  H    0.027707
   110  H    0.038776
   111  H    0.032387
   112  H    0.028446
   113  H    0.018118
   114  H    0.046925
   115  H    0.025008
   116  H    0.036419
   117  H    0.028888
   118  H    0.034769
   119  H    0.026957
   120  H    0.032495
   121  H    0.035946
   122  H    0.013204
   123  H    0.023353
   124  H    0.027249
   125  H    0.040402
   126  H    0.029425
   127  H    0.030149
   128  H    0.020561
   129  H    0.030216
   130  H    0.033491
   131  H    0.032051
   132  H    0.035245
   133  H    0.031854
   134  H    0.034820
   135  H    0.035337
   136  H    0.031949
   137  H    0.034240
   138  H    0.025795
   139  H    0.041646
   140  H    0.023799
 Sum of Mulliken charges =  -0.00000

 Dipole moment (field-independent basis, Debye):
    X=              4.1619    Y=              4.0859    Z=              2.0706  Tot=              6.1890
 Quadrupole moment (field-independent basis, Debye-Ang):
   XX=           -351.1704   YY=           -443.2804   ZZ=           -396.6755
   XY=              7.6339   XZ=             -0.5283   YZ=             24.3425

 Normal termination of Gaussian 16 at Thu Apr 28 10:44:42 2022.
