 Gaussian 16, Revision A.03,
 Gaussian 16:  ES64L-G16RevA.03 25-Dec-2016

 --------------------------------
 #p wB97XD/Def2SVP td=(nstates=5)
 --------------------------------

 ---------------------------------------------------
 step_151_chromophore_5 TDDFT with wB97XD functional
 ---------------------------------------------------
 Symbolic Z-matrix:
 Charge =  0 Multiplicity = 1

                         Standard orientation:
 ---------------------------------------------------------------------
 Center     Atomic      Atomic             Coordinates (Angstroms)
 Number     Number       Type             X           Y           Z
 ---------------------------------------------------------------------
      1         12           0        5.369230    0.460551   -0.560133
      2          6           0        3.800301   -2.766109   -0.254277
      3          6           0        2.870936    1.323203   -2.793612
      4          6           0        6.270578    3.640156   -0.217757
      5          6           0        7.199824   -0.378192    2.406479
      6          7           0        3.639678   -0.544258   -1.375149
      7          6           0        3.174835   -1.805294   -1.105448
      8          6           0        1.928380   -2.164046   -1.984900
      9          6           0        1.899895   -0.990563   -3.017251
     10          6           0        2.903562   -0.009716   -2.402824
     11          6           0        2.046952   -1.229692   -4.594795
     12          6           0        0.602169   -2.394938   -1.132394
     13          6           0       -0.205710   -3.646150   -1.468693
     14          6           0       -1.782606   -3.361250   -1.643551
     15          8           0       -2.434050   -3.316624   -2.702884
     16          8           0       -2.351999   -2.945903   -0.462297
     17          7           0        4.725792    2.281478   -1.430980
     18          6           0        3.703466    2.392908   -2.311175
     19          6           0        3.612116    3.798469   -2.764387
     20          6           0        4.561614    4.514382   -2.020089
     21          6           0        5.175679    3.532671   -1.091470
     22          6           0        2.599796    4.382247   -3.750660
     23          6           0        4.732410    6.062980   -1.993180
     24          8           0        4.136918    6.715109   -2.813008
     25          6           0        5.641294    6.819772   -0.999388
     26          7           0        6.535782    1.509050    0.900204
     27          6           0        6.970987    2.846293    0.649026
     28          6           0        7.811337    3.332443    1.905186
     29          6           0        8.060059    2.021485    2.723570
     30          6           0        7.202355    0.981117    1.979077
     31          6           0        9.096220    4.115895    1.407936
     32          6           0        7.685502    2.082951    4.231720
     33          6           0        6.171015    2.067502    4.482219
     34          7           0        5.581732   -1.248424    0.775869
     35          6           0        6.351055   -1.444421    1.895577
     36          6           0        6.088688   -2.733606    2.512596
     37          6           0        5.014293   -3.246530    1.657137
     38          6           0        4.840843   -2.309875    0.589296
     39          6           0        6.861389   -3.450441    3.582892
     40          6           0        4.175186   -4.414821    1.435206
     41          8           0        4.164139   -5.511294    1.988486
     42          6           0        3.281519   -4.114650    0.204599
     43          6           0        3.400012   -5.225514   -0.753731
     44          8           0        2.421743   -5.950972   -0.964302
     45          8           0        4.684712   -5.331287   -1.306430
     46          6           0        4.793628   -6.486739   -2.184255
     47          6           0       -3.728359   -2.383524   -0.388453
     48          6           0       -3.700092   -1.009589    0.082712
     49          6           0       -4.144261   -0.499383    1.224030
     50          6           0       -4.938383   -1.315969    2.315547
     51          6           0       -3.674754    0.892688    1.537336
     52          6           0       -4.437186    2.048991    0.849592
     53          6           0       -5.616804    2.531814    1.734511
     54          6           0       -6.982336    2.522787    0.996095
     55          6           0       -7.728602    3.906342    1.257002
     56          6           0       -7.901050    1.322599    1.457476
     57          6           0       -8.157924    0.438154    0.192716
     58          6           0       -9.123893   -0.680704    0.489894
     59          6           0      -10.538661   -0.457472   -0.061831
     60          6           0      -10.546549   -0.944180   -1.484952
     61          6           0      -11.697259   -0.993817    0.834914
     62          6           0      -12.717024    0.081023    1.331352
     63          6           0      -13.994733   -0.015755    0.449870
     64          6           0      -14.635106    1.429941    0.259627
     65          6           0      -15.400598    1.881940    1.559061
     66          6           0      -15.490140    1.466163   -1.007972
     67          1           0        2.063612    1.632769   -3.460508
     68          1           0        6.710075    4.637096   -0.275068
     69          1           0        7.757744   -0.635763    3.307629
     70          1           0        2.207495   -3.069993   -2.520908
     71          1           0        0.899797   -0.562624   -2.961342
     72          1           0        2.503180   -2.209176   -4.741956
     73          1           0        2.648074   -0.432627   -5.031758
     74          1           0        1.071975   -1.275272   -5.081853
     75          1           0       -0.133307   -1.647595   -1.428995
     76          1           0        0.852089   -2.319859   -0.074763
     77          1           0        0.018514   -4.274709   -0.606355
     78          1           0        0.137336   -4.076814   -2.409103
     79          1           0        1.964923    3.609808   -4.185576
     80          1           0        3.187350    4.756350   -4.589113
     81          1           0        2.009795    5.213432   -3.366119
     82          1           0        6.657892    6.667224   -1.362651
     83          1           0        5.501274    6.403997   -0.001590
     84          1           0        5.495210    7.895573   -0.915030
     85          1           0        7.137886    4.009432    2.430083
     86          1           0        9.067735    1.621501    2.615144
     87          1           0        9.072410    5.131939    1.801161
     88          1           0        9.229919    4.088893    0.326749
     89          1           0        9.961892    3.730110    1.946161
     90          1           0        7.939636    3.104589    4.511852
     91          1           0        8.190849    1.310486    4.811230
     92          1           0        5.898075    2.931715    5.088549
     93          1           0        5.839567    1.190261    5.037719
     94          1           0        5.616697    2.189672    3.551445
     95          1           0        6.158227   -3.951525    4.247792
     96          1           0        7.348227   -2.629798    4.109487
     97          1           0        7.594260   -4.125935    3.141092
     98          1           0        2.225658   -3.939550    0.409172
     99          1           0        3.801777   -6.872525   -2.419230
    100          1           0        5.263528   -7.302409   -1.634170
    101          1           0        5.442917   -6.326018   -3.044360
    102          1           0       -4.188135   -3.030515    0.357897
    103          1           0       -4.207482   -2.437386   -1.365954
    104          1           0       -3.021270   -0.354736   -0.463236
    105          1           0       -4.708019   -0.858086    3.278369
    106          1           0       -4.794333   -2.395530    2.282761
    107          1           0       -6.014226   -1.227835    2.169087
    108          1           0       -2.631017    0.926740    1.223959
    109          1           0       -3.781338    1.105807    2.600876
    110          1           0       -4.794011    1.791806   -0.147331
    111          1           0       -3.671784    2.824234    0.821648
    112          1           0       -5.278129    3.459296    2.197181
    113          1           0       -5.824776    1.902427    2.600138
    114          1           0       -6.794278    2.595937   -0.075064
    115          1           0       -8.756861    3.621970    1.478805
    116          1           0       -7.714978    4.635614    0.446718
    117          1           0       -7.319966    4.448023    2.110575
    118          1           0       -8.897750    1.544159    1.837666
    119          1           0       -7.409421    0.716913    2.219024
    120          1           0       -7.176449    0.023220   -0.036230
    121          1           0       -8.461890    1.039110   -0.664212
    122          1           0       -9.120297   -0.865623    1.563413
    123          1           0       -8.588280   -1.516048    0.037540
    124          1           0      -10.717134    0.610839   -0.190902
    125          1           0      -10.873906   -1.981950   -1.410954
    126          1           0       -9.543318   -0.801600   -1.886930
    127          1           0      -11.154414   -0.335651   -2.155071
    128          1           0      -11.208919   -1.336664    1.746726
    129          1           0      -12.258255   -1.780328    0.330239
    130          1           0      -12.137621    1.002691    1.283961
    131          1           0      -13.145073   -0.063416    2.322987
    132          1           0      -14.787288   -0.561889    0.961913
    133          1           0      -13.839293   -0.498992   -0.514822
    134          1           0      -13.887900    2.207926    0.103171
    135          1           0      -14.894078    2.725042    2.030093
    136          1           0      -15.443648    1.184271    2.396316
    137          1           0      -16.424408    2.124490    1.272418
    138          1           0      -15.309755    2.409638   -1.524250
    139          1           0      -16.547901    1.300258   -0.802332
    140          1           0      -15.113221    0.805535   -1.788794
 ---------------------------------------------------------------------

 SCF Done:  E(RwB97XD) =  -3007.84303223     A.U. after   19 cycles

 Excitation energies and oscillator strengths:

 Excited State   1:      Singlet-A      1.6014 eV  774.23 nm  f=0.3706  <S**2>=0.000
     245 -> 248        0.17874
     246 -> 247        0.68527
     245 <- 248        0.11685
 This state for optimization and/or second-order correction.
 Total Energy, E(TD-HF/TD-DFT) =  -3007.78418260
 Copying the excited state density for this state as the 1-particle RhoCI density.

 Excited State   2:      Singlet-A      2.1272 eV  582.86 nm  f=0.1178  <S**2>=0.000
     245 -> 247        0.64003
     246 -> 248       -0.28869

 Excited State   3:      Singlet-A      3.2904 eV  376.80 nm  f=0.0049  <S**2>=0.000
     243 -> 247        0.13152
     244 -> 247        0.66325

 Excited State   4:      Singlet-A      3.3883 eV  365.92 nm  f=0.0793  <S**2>=0.000
     240 -> 247       -0.33840
     240 -> 249       -0.17811
     241 -> 247        0.40783
     241 -> 249        0.19331
     245 -> 247        0.10437
     246 -> 248        0.27867

 Excited State   5:      Singlet-A      3.4975 eV  354.50 nm  f=0.1726  <S**2>=0.000
     241 -> 247       -0.11824
     242 -> 247        0.54388
     245 -> 247        0.13169
     246 -> 248        0.37473

 The electronic state is 1-A.
 Alpha  occ. eigenvalues --  -46.96373 -19.31144 -19.29104 -19.25611 -19.24192
 Alpha  occ. eigenvalues --  -19.24038 -19.23990 -14.47593 -14.47112 -14.44684
 Alpha  occ. eigenvalues --  -14.44216 -10.43948 -10.43376 -10.39617 -10.39089
 Alpha  occ. eigenvalues --  -10.35965 -10.35474 -10.35422 -10.35288 -10.35274
 Alpha  occ. eigenvalues --  -10.34906 -10.34697 -10.34597 -10.34386 -10.33438
 Alpha  occ. eigenvalues --  -10.33072 -10.33049 -10.32625 -10.32612 -10.32548
 Alpha  occ. eigenvalues --  -10.32469 -10.32280 -10.32186 -10.31934 -10.31551
 Alpha  occ. eigenvalues --  -10.31542 -10.31474 -10.31343 -10.31317 -10.31062
 Alpha  occ. eigenvalues --  -10.30986 -10.30718 -10.30599 -10.30581 -10.30571
 Alpha  occ. eigenvalues --  -10.30438 -10.30065 -10.29801 -10.29666 -10.29482
 Alpha  occ. eigenvalues --  -10.29477 -10.29214 -10.29207 -10.29177 -10.29030
 Alpha  occ. eigenvalues --  -10.28753 -10.28693 -10.28632 -10.28522 -10.28437
 Alpha  occ. eigenvalues --  -10.28418 -10.28221 -10.28079 -10.28003 -10.27830
 Alpha  occ. eigenvalues --  -10.27787  -3.22222  -1.95795  -1.95309  -1.95206
 Alpha  occ. eigenvalues --   -1.18109  -1.16676  -1.13401  -1.11757  -1.10388
 Alpha  occ. eigenvalues --   -1.07922  -1.06781  -1.05756  -1.05116  -1.03698
 Alpha  occ. eigenvalues --   -0.95125  -0.92709  -0.91845  -0.91258  -0.90955
 Alpha  occ. eigenvalues --   -0.90305  -0.89962  -0.89125  -0.88946  -0.88625
 Alpha  occ. eigenvalues --   -0.87922  -0.87064  -0.86336  -0.85501  -0.85313
 Alpha  occ. eigenvalues --   -0.84454  -0.83712  -0.82900  -0.82618  -0.82415
 Alpha  occ. eigenvalues --   -0.81550  -0.80012  -0.79423  -0.79215  -0.78464
 Alpha  occ. eigenvalues --   -0.78058  -0.77335  -0.77149  -0.76184  -0.75715
 Alpha  occ. eigenvalues --   -0.75014  -0.74617  -0.73792  -0.71964  -0.71585
 Alpha  occ. eigenvalues --   -0.70577  -0.69745  -0.69104  -0.68602  -0.67374
 Alpha  occ. eigenvalues --   -0.67054  -0.66848  -0.66686  -0.66259  -0.65899
 Alpha  occ. eigenvalues --   -0.65339  -0.64941  -0.64687  -0.64185  -0.61909
 Alpha  occ. eigenvalues --   -0.61525  -0.61450  -0.61174  -0.60780  -0.60129
 Alpha  occ. eigenvalues --   -0.59203  -0.59031  -0.57912  -0.57854  -0.57426
 Alpha  occ. eigenvalues --   -0.57283  -0.57088  -0.56511  -0.56218  -0.55877
 Alpha  occ. eigenvalues --   -0.55713  -0.55523  -0.55298  -0.54891  -0.54781
 Alpha  occ. eigenvalues --   -0.54270  -0.54169  -0.54076  -0.53812  -0.53712
 Alpha  occ. eigenvalues --   -0.53621  -0.53305  -0.53064  -0.52627  -0.52377
 Alpha  occ. eigenvalues --   -0.52232  -0.52138  -0.51944  -0.51752  -0.51448
 Alpha  occ. eigenvalues --   -0.51369  -0.51272  -0.51011  -0.50980  -0.50775
 Alpha  occ. eigenvalues --   -0.50711  -0.50305  -0.49894  -0.49818  -0.49544
 Alpha  occ. eigenvalues --   -0.49321  -0.49025  -0.49004  -0.48740  -0.48299
 Alpha  occ. eigenvalues --   -0.48236  -0.48159  -0.47967  -0.47931  -0.47773
 Alpha  occ. eigenvalues --   -0.47601  -0.47352  -0.47221  -0.46857  -0.46699
 Alpha  occ. eigenvalues --   -0.46664  -0.46365  -0.46362  -0.46087  -0.45922
 Alpha  occ. eigenvalues --   -0.45392  -0.45259  -0.45099  -0.45047  -0.44921
 Alpha  occ. eigenvalues --   -0.44725  -0.44643  -0.44596  -0.44458  -0.44149
 Alpha  occ. eigenvalues --   -0.43952  -0.43654  -0.43321  -0.43213  -0.42985
 Alpha  occ. eigenvalues --   -0.42813  -0.42677  -0.42371  -0.42336  -0.42255
 Alpha  occ. eigenvalues --   -0.42174  -0.41987  -0.41488  -0.41173  -0.40779
 Alpha  occ. eigenvalues --   -0.40611  -0.40213  -0.39671  -0.39520  -0.39383
 Alpha  occ. eigenvalues --   -0.39175  -0.38923  -0.38804  -0.38670  -0.38332
 Alpha  occ. eigenvalues --   -0.38150  -0.37399  -0.37006  -0.36370  -0.35977
 Alpha  occ. eigenvalues --   -0.35376  -0.35303  -0.35285  -0.33807  -0.32960
 Alpha  occ. eigenvalues --   -0.32891  -0.32435  -0.31961  -0.31929  -0.26253
 Alpha  occ. eigenvalues --   -0.23293
 Alpha virt. eigenvalues --   -0.07623  -0.00276   0.02409   0.04250   0.04376
 Alpha virt. eigenvalues --    0.06065   0.06452   0.07245   0.08113   0.09293
 Alpha virt. eigenvalues --    0.10283   0.10889   0.11658   0.11708   0.12623

 Mulliken charges:
               1
     1  Mg   0.960095
     2  C   -0.087200
     3  C   -0.091470
     4  C   -0.069381
     5  C   -0.055018
     6  N   -0.372379
     7  C    0.033054
     8  C   -0.085873
     9  C   -0.101657
    10  C    0.090017
    11  C    0.019066
    12  C   -0.002551
    13  C    0.020484
    14  C    0.207890
    15  O   -0.282571
    16  O   -0.387031
    17  N   -0.438416
    18  C    0.138728
    19  C   -0.184234
    20  C   -0.059808
    21  C    0.149071
    22  C    0.096915
    23  C    0.035232
    24  O   -0.220341
    25  C   -0.007777
    26  N   -0.397234
    27  C    0.061326
    28  C   -0.114754
    29  C   -0.048981
    30  C    0.044301
    31  C    0.026292
    32  C   -0.014008
    33  C   -0.061970
    34  N   -0.368271
    35  C    0.086336
    36  C   -0.175379
    37  C   -0.099746
    38  C    0.154450
    39  C    0.095766
    40  C    0.137300
    41  O   -0.212539
    42  C   -0.030194
    43  C    0.275689
    44  O   -0.251831
    45  O   -0.374079
    46  C    0.128146
    47  C    0.299775
    48  C   -0.143462
    49  C   -0.186468
    50  C    0.025575
    51  C    0.002081
    52  C   -0.005028
    53  C    0.014951
    54  C   -0.189759
    55  C   -0.011881
    56  C    0.022367
    57  C   -0.092226
    58  C    0.042928
    59  C   -0.179172
    60  C    0.012866
    61  C    0.028183
    62  C   -0.022181
    63  C   -0.026948
    64  C   -0.214144
    65  C   -0.020386
    66  C    0.003895
    67  H    0.007286
    68  H   -0.023000
    69  H   -0.005295
    70  H    0.040635
    71  H    0.037217
    72  H    0.035800
    73  H    0.044650
    74  H    0.048396
    75  H    0.043739
    76  H    0.057729
    77  H    0.068898
    78  H    0.057593
    79  H    0.015657
    80  H    0.052456
    81  H    0.066294
    82  H    0.068588
    83  H    0.051528
    84  H    0.054668
    85  H    0.048402
    86  H    0.036406
    87  H    0.031295
    88  H    0.058007
    89  H    0.029356
    90  H    0.030269
    91  H    0.044216
    92  H    0.027727
    93  H    0.043736
    94  H    0.050763
    95  H    0.064982
    96  H    0.020755
    97  H    0.074822
    98  H    0.059140
    99  H    0.066061
   100  H    0.047686
   101  H    0.055975
   102  H    0.028234
   103  H    0.061913
   104  H    0.011930
   105  H    0.039510
   106  H    0.043398
   107  H    0.043411
   108  H    0.037144
   109  H    0.017789
   110  H    0.028399
   111  H    0.026172
   112  H    0.021846
   113  H    0.004852
   114  H    0.034139
   115  H    0.017445
   116  H    0.031571
   117  H    0.022156
   118  H    0.023097
   119  H    0.011706
   120  H    0.015750
   121  H    0.025877
   122  H    0.002911
   123  H    0.014527
   124  H    0.010683
   125  H    0.033623
   126  H    0.021805
   127  H    0.025337
   128  H    0.012087
   129  H    0.020494
   130  H    0.022440
   131  H    0.024708
   132  H    0.025690
   133  H    0.020184
   134  H    0.023212
   135  H    0.030060
   136  H    0.025558
   137  H    0.028173
   138  H    0.020205
   139  H    0.035656
   140  H    0.017438
 Sum of Mulliken charges =  -0.00000

 Dipole moment (field-independent basis, Debye):
    X=              4.2520    Y=              4.0160    Z=              2.1308  Tot=              6.2248
 Quadrupole moment (field-independent basis, Debye-Ang):
   XX=           -350.0275   YY=           -442.1014   ZZ=           -396.6308
   XY=              7.1118   XZ=             -0.6089   YZ=             24.2970

 Normal termination of Gaussian 16 at Thu Apr 28 11:11:27 2022.
