 Gaussian 16, Revision A.03,
 Gaussian 16:  ES64L-G16RevA.03 25-Dec-2016

 --------------------
 #p ZINDO=(nstates=5)
 --------------------

 ----------------------------
 step_151_chromophore_5 ZINDO
 ----------------------------
 Symbolic Z-matrix:
 Charge =  0 Multiplicity = 1

                         Standard orientation:
 ---------------------------------------------------------------------
 Center     Atomic      Atomic             Coordinates (Angstroms)
 Number     Number       Type             X           Y           Z
 ---------------------------------------------------------------------
      1         12           0        5.369230    0.460551   -0.560133
      2          6           0        3.800301   -2.766109   -0.254277
      3          6           0        2.870936    1.323203   -2.793612
      4          6           0        6.270578    3.640156   -0.217757
      5          6           0        7.199824   -0.378192    2.406479
      6          7           0        3.639678   -0.544258   -1.375149
      7          6           0        3.174835   -1.805294   -1.105448
      8          6           0        1.928380   -2.164046   -1.984900
      9          6           0        1.899895   -0.990563   -3.017251
     10          6           0        2.903562   -0.009716   -2.402824
     11          6           0        2.046952   -1.229692   -4.594795
     12          6           0        0.602169   -2.394938   -1.132394
     13          6           0       -0.205710   -3.646150   -1.468693
     14          6           0       -1.782606   -3.361250   -1.643551
     15          8           0       -2.434050   -3.316624   -2.702884
     16          8           0       -2.351999   -2.945903   -0.462297
     17          7           0        4.725792    2.281478   -1.430980
     18          6           0        3.703466    2.392908   -2.311175
     19          6           0        3.612116    3.798469   -2.764387
     20          6           0        4.561614    4.514382   -2.020089
     21          6           0        5.175679    3.532671   -1.091470
     22          6           0        2.599796    4.382247   -3.750660
     23          6           0        4.732410    6.062980   -1.993180
     24          8           0        4.136918    6.715109   -2.813008
     25          6           0        5.641294    6.819772   -0.999388
     26          7           0        6.535782    1.509050    0.900204
     27          6           0        6.970987    2.846293    0.649026
     28          6           0        7.811337    3.332443    1.905186
     29          6           0        8.060059    2.021485    2.723570
     30          6           0        7.202355    0.981117    1.979077
     31          6           0        9.096220    4.115895    1.407936
     32          6           0        7.685502    2.082951    4.231720
     33          6           0        6.171015    2.067502    4.482219
     34          7           0        5.581732   -1.248424    0.775869
     35          6           0        6.351055   -1.444421    1.895577
     36          6           0        6.088688   -2.733606    2.512596
     37          6           0        5.014293   -3.246530    1.657137
     38          6           0        4.840843   -2.309875    0.589296
     39          6           0        6.861389   -3.450441    3.582892
     40          6           0        4.175186   -4.414821    1.435206
     41          8           0        4.164139   -5.511294    1.988486
     42          6           0        3.281519   -4.114650    0.204599
     43          6           0        3.400012   -5.225514   -0.753731
     44          8           0        2.421743   -5.950972   -0.964302
     45          8           0        4.684712   -5.331287   -1.306430
     46          6           0        4.793628   -6.486739   -2.184255
     47          6           0       -3.728359   -2.383524   -0.388453
     48          6           0       -3.700092   -1.009589    0.082712
     49          6           0       -4.144261   -0.499383    1.224030
     50          6           0       -4.938383   -1.315969    2.315547
     51          6           0       -3.674754    0.892688    1.537336
     52          6           0       -4.437186    2.048991    0.849592
     53          6           0       -5.616804    2.531814    1.734511
     54          6           0       -6.982336    2.522787    0.996095
     55          6           0       -7.728602    3.906342    1.257002
     56          6           0       -7.901050    1.322599    1.457476
     57          6           0       -8.157924    0.438154    0.192716
     58          6           0       -9.123893   -0.680704    0.489894
     59          6           0      -10.538661   -0.457472   -0.061831
     60          6           0      -10.546549   -0.944180   -1.484952
     61          6           0      -11.697259   -0.993817    0.834914
     62          6           0      -12.717024    0.081023    1.331352
     63          6           0      -13.994733   -0.015755    0.449870
     64          6           0      -14.635106    1.429941    0.259627
     65          6           0      -15.400598    1.881940    1.559061
     66          6           0      -15.490140    1.466163   -1.007972
     67          1           0        2.063612    1.632769   -3.460508
     68          1           0        6.710075    4.637096   -0.275068
     69          1           0        7.757744   -0.635763    3.307629
     70          1           0        2.207495   -3.069993   -2.520908
     71          1           0        0.899797   -0.562624   -2.961342
     72          1           0        2.503180   -2.209176   -4.741956
     73          1           0        2.648074   -0.432627   -5.031758
     74          1           0        1.071975   -1.275272   -5.081853
     75          1           0       -0.133307   -1.647595   -1.428995
     76          1           0        0.852089   -2.319859   -0.074763
     77          1           0        0.018514   -4.274709   -0.606355
     78          1           0        0.137336   -4.076814   -2.409103
     79          1           0        1.964923    3.609808   -4.185576
     80          1           0        3.187350    4.756350   -4.589113
     81          1           0        2.009795    5.213432   -3.366119
     82          1           0        6.657892    6.667224   -1.362651
     83          1           0        5.501274    6.403997   -0.001590
     84          1           0        5.495210    7.895573   -0.915030
     85          1           0        7.137886    4.009432    2.430083
     86          1           0        9.067735    1.621501    2.615144
     87          1           0        9.072410    5.131939    1.801161
     88          1           0        9.229919    4.088893    0.326749
     89          1           0        9.961892    3.730110    1.946161
     90          1           0        7.939636    3.104589    4.511852
     91          1           0        8.190849    1.310486    4.811230
     92          1           0        5.898075    2.931715    5.088549
     93          1           0        5.839567    1.190261    5.037719
     94          1           0        5.616697    2.189672    3.551445
     95          1           0        6.158227   -3.951525    4.247792
     96          1           0        7.348227   -2.629798    4.109487
     97          1           0        7.594260   -4.125935    3.141092
     98          1           0        2.225658   -3.939550    0.409172
     99          1           0        3.801777   -6.872525   -2.419230
    100          1           0        5.263528   -7.302409   -1.634170
    101          1           0        5.442917   -6.326018   -3.044360
    102          1           0       -4.188135   -3.030515    0.357897
    103          1           0       -4.207482   -2.437386   -1.365954
    104          1           0       -3.021270   -0.354736   -0.463236
    105          1           0       -4.708019   -0.858086    3.278369
    106          1           0       -4.794333   -2.395530    2.282761
    107          1           0       -6.014226   -1.227835    2.169087
    108          1           0       -2.631017    0.926740    1.223959
    109          1           0       -3.781338    1.105807    2.600876
    110          1           0       -4.794011    1.791806   -0.147331
    111          1           0       -3.671784    2.824234    0.821648
    112          1           0       -5.278129    3.459296    2.197181
    113          1           0       -5.824776    1.902427    2.600138
    114          1           0       -6.794278    2.595937   -0.075064
    115          1           0       -8.756861    3.621970    1.478805
    116          1           0       -7.714978    4.635614    0.446718
    117          1           0       -7.319966    4.448023    2.110575
    118          1           0       -8.897750    1.544159    1.837666
    119          1           0       -7.409421    0.716913    2.219024
    120          1           0       -7.176449    0.023220   -0.036230
    121          1           0       -8.461890    1.039110   -0.664212
    122          1           0       -9.120297   -0.865623    1.563413
    123          1           0       -8.588280   -1.516048    0.037540
    124          1           0      -10.717134    0.610839   -0.190902
    125          1           0      -10.873906   -1.981950   -1.410954
    126          1           0       -9.543318   -0.801600   -1.886930
    127          1           0      -11.154414   -0.335651   -2.155071
    128          1           0      -11.208919   -1.336664    1.746726
    129          1           0      -12.258255   -1.780328    0.330239
    130          1           0      -12.137621    1.002691    1.283961
    131          1           0      -13.145073   -0.063416    2.322987
    132          1           0      -14.787288   -0.561889    0.961913
    133          1           0      -13.839293   -0.498992   -0.514822
    134          1           0      -13.887900    2.207926    0.103171
    135          1           0      -14.894078    2.725042    2.030093
    136          1           0      -15.443648    1.184271    2.396316
    137          1           0      -16.424408    2.124490    1.272418
    138          1           0      -15.309755    2.409638   -1.524250
    139          1           0      -16.547901    1.300258   -0.802332
    140          1           0      -15.113221    0.805535   -1.788794
 ---------------------------------------------------------------------

 SCF Done:  E(RZINDO/S) =  -473.920407174     A.U. after   20 cycles

 Excitation energies and oscillator strengths:

 Excited State   1:      Singlet-A      1.2316 eV 1006.70 nm  f=0.6161  <S**2>=0.000
     175 ->178        -0.18807
     176 ->177         0.66248
 This state for optimization and/or second-order correction.
 Total Energy, E(CIS/TDA) =  -473.875147137
 Copying the excited state density for this state as the 1-particle RhoCI density.

 Excited State   2:      Singlet-A      1.8677 eV  663.84 nm  f=0.0497  <S**2>=0.000
     175 ->177         0.55358
     176 ->178         0.41455

 Excited State   3:      Singlet-A      2.8827 eV  430.10 nm  f=0.4163  <S**2>=0.000
     169 ->177         0.10261
     175 ->177        -0.25069
     176 ->178         0.36749
     176 ->180         0.48441

 Excited State   4:      Singlet-A      2.9254 eV  423.82 nm  f=0.0057  <S**2>=0.000
     168 ->177        -0.15273
     168 ->179         0.18151
     169 ->177        -0.27537
     169 ->179         0.30003
     169 ->181        -0.14890
     169 ->185         0.13557
     170 ->177         0.12721
     170 ->179        -0.12287
     173 ->177         0.13253
     176 ->180         0.23646

 Excited State   5:      Singlet-A      3.0250 eV  409.87 nm  f=0.6638  <S**2>=0.000
     168 ->181         0.10025
     172 ->177         0.14128
     175 ->177         0.27935
     176 ->178        -0.36849
     176 ->180         0.42568

 The electronic state is 1-A.
 Alpha  occ. eigenvalues --   -1.83869  -1.80014  -1.77981  -1.72469  -1.70714
 Alpha  occ. eigenvalues --   -1.69319  -1.66002  -1.60573  -1.59638  -1.58334
 Alpha  occ. eigenvalues --   -1.55051  -1.50488  -1.48392  -1.47014  -1.46868
 Alpha  occ. eigenvalues --   -1.45519  -1.43098  -1.39029  -1.38768  -1.37533
 Alpha  occ. eigenvalues --   -1.35547  -1.33960  -1.33033  -1.31099  -1.27925
 Alpha  occ. eigenvalues --   -1.27518  -1.26031  -1.22060  -1.19810  -1.17970
 Alpha  occ. eigenvalues --   -1.16957  -1.15919  -1.15278  -1.13332  -1.12852
 Alpha  occ. eigenvalues --   -1.12560  -1.09773  -1.09658  -1.05367  -1.04449
 Alpha  occ. eigenvalues --   -1.01465  -1.01102  -0.98458  -0.97988  -0.97230
 Alpha  occ. eigenvalues --   -0.96360  -0.94088  -0.93956  -0.93172  -0.92425
 Alpha  occ. eigenvalues --   -0.90962  -0.89947  -0.87807  -0.87538  -0.86804
 Alpha  occ. eigenvalues --   -0.84661  -0.83860  -0.82855  -0.82177  -0.80975
 Alpha  occ. eigenvalues --   -0.79776  -0.79344  -0.77441  -0.76662  -0.76318
 Alpha  occ. eigenvalues --   -0.76008  -0.75938  -0.75085  -0.74717  -0.73670
 Alpha  occ. eigenvalues --   -0.73233  -0.72847  -0.72443  -0.72165  -0.71039
 Alpha  occ. eigenvalues --   -0.70594  -0.70288  -0.69492  -0.68708  -0.68204
 Alpha  occ. eigenvalues --   -0.67504  -0.66214  -0.66052  -0.65801  -0.65224
 Alpha  occ. eigenvalues --   -0.64622  -0.64323  -0.64129  -0.63658  -0.63395
 Alpha  occ. eigenvalues --   -0.63196  -0.62695  -0.62526  -0.62035  -0.61901
 Alpha  occ. eigenvalues --   -0.61778  -0.61531  -0.61323  -0.60827  -0.60691
 Alpha  occ. eigenvalues --   -0.60418  -0.58614  -0.58186  -0.58017  -0.57613
 Alpha  occ. eigenvalues --   -0.57324  -0.57124  -0.56760  -0.56678  -0.56226
 Alpha  occ. eigenvalues --   -0.56083  -0.56016  -0.55438  -0.55179  -0.55035
 Alpha  occ. eigenvalues --   -0.54811  -0.54130  -0.53705  -0.53317  -0.53230
 Alpha  occ. eigenvalues --   -0.52852  -0.52230  -0.51973  -0.51790  -0.51464
 Alpha  occ. eigenvalues --   -0.51331  -0.51155  -0.51032  -0.50875  -0.50395
 Alpha  occ. eigenvalues --   -0.49972  -0.49778  -0.49430  -0.49286  -0.49138
 Alpha  occ. eigenvalues --   -0.48850  -0.48818  -0.48748  -0.48301  -0.47833
 Alpha  occ. eigenvalues --   -0.47669  -0.47294  -0.47213  -0.46912  -0.46891
 Alpha  occ. eigenvalues --   -0.46507  -0.46150  -0.45924  -0.45842  -0.45750
 Alpha  occ. eigenvalues --   -0.45466  -0.45046  -0.44991  -0.44754  -0.44541
 Alpha  occ. eigenvalues --   -0.43935  -0.43429  -0.43153  -0.42346  -0.41950
 Alpha  occ. eigenvalues --   -0.41590  -0.41401  -0.40910  -0.39020  -0.38785
 Alpha  occ. eigenvalues --   -0.38341  -0.37518  -0.35576  -0.35325  -0.34740
 Alpha  occ. eigenvalues --   -0.33447  -0.33214  -0.32475  -0.32193  -0.27082
 Alpha  occ. eigenvalues --   -0.22293
 Alpha virt. eigenvalues --   -0.09238  -0.02734  -0.00814   0.00090   0.01067
 Alpha virt. eigenvalues --    0.01599   0.01914   0.02532   0.04237   0.04785
 Alpha virt. eigenvalues --    0.05487   0.06436   0.06752   0.07654   0.07716

 Mulliken charges:
               1
     1  Mg   0.434695
     2  C   -0.063813
     3  C   -0.080149
     4  C   -0.042269
     5  C   -0.077052
     6  N   -0.281874
     7  C    0.123114
     8  C   -0.002966
     9  C   -0.007639
    10  C    0.135598
    11  C   -0.049151
    12  C   -0.023553
    13  C    0.011591
    14  C    0.456541
    15  O   -0.520538
    16  O   -0.282938
    17  N   -0.304469
    18  C    0.112183
    19  C    0.028732
    20  C   -0.045406
    21  C    0.100454
    22  C   -0.035832
    23  C    0.323401
    24  O   -0.508344
    25  C   -0.025500
    26  N   -0.285314
    27  C    0.076523
    28  C    0.008351
    29  C    0.006781
    30  C    0.134551
    31  C   -0.057545
    32  C   -0.027751
    33  C   -0.056052
    34  N   -0.312214
    35  C    0.095972
    36  C    0.027006
    37  C   -0.081758
    38  C    0.132957
    39  C   -0.030636
    40  C    0.334367
    41  O   -0.518877
    42  C    0.061052
    43  C    0.492667
    44  O   -0.523559
    45  O   -0.259924
    46  C    0.068165
    47  C    0.115556
    48  C   -0.077380
    49  C   -0.010041
    50  C   -0.049549
    51  C   -0.019503
    52  C   -0.032809
    53  C   -0.038969
    54  C   -0.016137
    55  C   -0.071481
    56  C   -0.035982
    57  C   -0.039753
    58  C   -0.030166
    59  C   -0.008503
    60  C   -0.056512
    61  C   -0.040496
    62  C   -0.043395
    63  C   -0.036509
    64  C   -0.018114
    65  C   -0.062023
    66  C   -0.060022
    67  H    0.034109
    68  H    0.008567
    69  H    0.030294
    70  H    0.032828
    71  H    0.026228
    72  H    0.022053
    73  H    0.029255
    74  H    0.027031
    75  H    0.030202
    76  H    0.033880
    77  H    0.049223
    78  H    0.046521
    79  H    0.017373
    80  H    0.034450
    81  H    0.046144
    82  H    0.039424
    83  H    0.028419
    84  H    0.040021
    85  H    0.037821
    86  H    0.030298
    87  H    0.017529
    88  H    0.035640
    89  H    0.017407
    90  H    0.017005
    91  H    0.031211
    92  H    0.010404
    93  H    0.022479
    94  H    0.027699
    95  H    0.041085
    96  H    0.020526
    97  H    0.046737
    98  H    0.061785
    99  H    0.055669
   100  H    0.033759
   101  H    0.037552
   102  H    0.038138
   103  H    0.059949
   104  H    0.024012
   105  H    0.025636
   106  H    0.031256
   107  H    0.026428
   108  H    0.020909
   109  H    0.018789
   110  H    0.030233
   111  H    0.016227
   112  H    0.019785
   113  H    0.016659
   114  H    0.029349
   115  H    0.015427
   116  H    0.019613
   117  H    0.016009
   118  H    0.025778
   119  H    0.022892
   120  H    0.010304
   121  H    0.024234
   122  H    0.013176
   123  H    0.015183
   124  H    0.015768
   125  H    0.024916
   126  H    0.017129
   127  H    0.014578
   128  H    0.013062
   129  H    0.025894
   130  H    0.028181
   131  H    0.023141
   132  H    0.020044
   133  H    0.023648
   134  H    0.019217
   135  H    0.015075
   136  H    0.018903
   137  H    0.020170
   138  H    0.011083
   139  H    0.026002
   140  H    0.014788
 Sum of Mulliken charges =  -0.00000

 Dipole moment (field-independent basis, Debye):
    X=              5.3088    Y=              4.7608    Z=              3.4765  Tot=              7.9331
 N-N= 4.378087491591D+03 E-N= 0.000000000000D+00  KE=-9.429859414816D+03
 Leave Link  601 at Thu Apr 28 11:23:44 2022, MaxMem=  6710886400 cpu:               0.8 elap:               0.1
 (Enter /sw/apps/gaussian-16.0/g16/l9999.exe)
 1\1\GINC-BP1-COMPUTE140\SP\RZINDO CIS\STO-3G\C55H74Mg1N4O6\OF15641\28-
 Apr-2022\0\\#p ZINDO=(nstates=5)\\step_151_chromophore_5 ZINDO\\0,1\Mg
 ,0,24.359,-6.63,45.56\C,0,26.787,-4.209,44.46\C,0,22.201,-5.365,43.169
 \C,0,22.467,-9.333,45.952\C,0,27.069,-8.285,47.225\N,0,24.477,-5.066,4
 4.075\C,0,25.533,-4.244,43.778\C,0,25.157,-3.191,42.68\C,0,23.607,-3.3
 62,42.571\C,0,23.379,-4.654,43.362\C,0,22.586,-2.169,42.89\C,0,25.989,
 -3.363,41.332\C,0,26.598,-2.09,40.749\C,0,26.329,-1.918,39.169\O,0,25.

 Normal termination of Gaussian 16 at Thu Apr 28 11:23:45 2022.
