 Gaussian 16, Revision A.03,
 Gaussian 16:  ES64L-G16RevA.03 25-Dec-2016

 ------------------------------
 #p blyp/Def2SVP td=(nstates=5)
 ------------------------------

 --------------------------------------------------
 step_1701_chromophore_3 TDDFT with blyp functional
 --------------------------------------------------
 Symbolic Z-matrix:
 Charge =  0 Multiplicity = 1

                         Standard orientation:
 ---------------------------------------------------------------------
 Center     Atomic      Atomic             Coordinates (Angstroms)
 Number     Number       Type             X           Y           Z
 ---------------------------------------------------------------------
      1         12           0        5.288254    1.187037    0.434113
      2          6           0        4.708434   -2.179728   -0.079386
      3          6           0        1.773190    1.678380    0.114238
      4          6           0        5.726639    4.479581   -0.104450
      5          6           0        8.667927    0.597718    0.067817
      6          7           0        3.491473   -0.126197    0.116850
      7          6           0        3.499993   -1.527531   -0.063034
      8          6           0        2.109810   -2.040202    0.037567
      9          6           0        1.223755   -0.763783   -0.239530
     10          6           0        2.214188    0.343025    0.016076
     11          6           0        0.594320   -0.822540   -1.674169
     12          6           0        1.924996   -2.708657    1.391542
     13          6           0        1.110152   -4.041806    1.304708
     14          6           0        0.125999   -4.059850    0.153914
     15          8           0        0.426215   -4.271541   -0.981723
     16          8           0       -1.116231   -3.654949    0.520044
     17          7           0        3.990995    2.803962    0.269211
     18          6           0        2.605055    2.843675    0.239444
     19          6           0        2.066093    4.251991    0.128107
     20          6           0        3.245134    5.119768   -0.069267
     21          6           0        4.377331    4.164584    0.025484
     22          6           0        0.607271    4.676706    0.061427
     23          6           0        3.287476    6.573831   -0.388687
     24          8           0        4.320878    7.215449   -0.507737
     25          6           0        2.098836    7.409936   -0.340290
     26          7           0        6.922970    2.337204    0.127081
     27          6           0        6.853569    3.664955   -0.053618
     28          6           0        8.354584    4.278815   -0.152847
     29          6           0        9.174995    3.053388    0.186003
     30          6           0        8.235600    1.881984    0.194906
     31          6           0        8.595045    4.772893   -1.594465
     32          6           0        9.968278    3.128534    1.597293
     33          6           0       11.315432    2.412125    1.518049
     34          7           0        6.513737   -0.465811    0.249063
     35          6           0        7.859688   -0.530665    0.033321
     36          6           0        8.231793   -1.959746   -0.049768
     37          6           0        6.988112   -2.651691   -0.095301
     38          6           0        6.006505   -1.687897    0.003581
     39          6           0        9.629776   -2.593014   -0.255578
     40          6           0        6.408397   -3.963050   -0.277531
     41          8           0        6.878680   -5.085539   -0.548090
     42          6           0        4.922705   -3.741155   -0.050084
     43          6           0        4.116591   -4.479337   -1.054186
     44          8           0        3.837191   -4.122019   -2.194778
     45          8           0        3.919604   -5.736502   -0.554339
     46          6           0        3.110354   -6.592586   -1.487688
     47          6           0       -2.113150   -3.550305   -0.480382
     48          6           0       -3.404719   -3.164683    0.227091
     49          6           0       -4.598870   -3.659106   -0.057402
     50          6           0       -4.935605   -4.533599   -1.269957
     51          6           0       -5.649717   -3.259135    0.808501
     52          6           0       -6.935598   -2.460582    0.436476
     53          6           0       -7.102472   -1.203683    1.437267
     54          6           0       -8.383775   -1.334715    2.316266
     55          6           0       -7.971007   -1.517990    3.839768
     56          6           0       -9.387074   -0.181701    2.167976
     57          6           0      -10.826714   -0.419752    1.666877
     58          6           0      -10.958693   -0.652192    0.192014
     59          6           0      -12.342999   -0.275369   -0.391175
     60          6           0      -12.715933   -1.458013   -1.411562
     61          6           0      -12.505035    1.108395   -0.992631
     62          6           0      -13.982160    1.607260   -1.256572
     63          6           0      -14.390129    2.754176   -0.235886
     64          6           0      -14.791119    4.037296   -0.990485
     65          6           0      -14.874504    5.216670    0.042123
     66          6           0      -16.089693    3.894123   -1.832999
     67          1           0        0.696692    1.859345    0.065987
     68          1           0        6.012678    5.521451   -0.266177
     69          1           0        9.731046    0.349310    0.062464
     70          1           0        2.032384   -2.678164   -0.842812
     71          1           0        0.363724   -0.755477    0.430904
     72          1           0        0.846104   -1.748551   -2.190336
     73          1           0        1.036248   -0.006762   -2.247365
     74          1           0       -0.462426   -0.591517   -1.541992
     75          1           0        1.334256   -2.119480    2.093093
     76          1           0        2.917195   -2.831584    1.826324
     77          1           0        0.537772   -4.251037    2.209500
     78          1           0        1.865834   -4.779151    1.037675
     79          1           0        0.337953    5.509474    0.710668
     80          1           0        0.077718    3.857771    0.548666
     81          1           0        0.378385    4.688950   -1.003815
     82          1           0        1.423570    7.056986   -1.120361
     83          1           0        2.273575    8.483212   -0.419167
     84          1           0        1.658849    7.456063    0.655698
     85          1           0        8.418792    5.109699    0.549869
     86          1           0        9.909077    2.864227   -0.597600
     87          1           0        8.212114    5.787483   -1.702341
     88          1           0        8.233139    4.199436   -2.447702
     89          1           0        9.677778    4.812191   -1.718583
     90          1           0        9.397201    2.683081    2.411629
     91          1           0       10.007025    4.200757    1.782959
     92          1           0       11.439455    1.957343    0.534849
     93          1           0       11.431399    1.606212    2.242169
     94          1           0       12.108787    3.143438    1.674342
     95          1           0       10.360965   -1.901049    0.162197
     96          1           0        9.783472   -2.967131   -1.267997
     97          1           0        9.767146   -3.470593    0.376553
     98          1           0        4.691048   -4.190630    0.916103
     99          1           0        2.787445   -7.394061   -0.823717
    100          1           0        3.603188   -7.060177   -2.339530
    101          1           0        2.201794   -6.111593   -1.850669
    102          1           0       -2.131720   -4.444899   -1.102430
    103          1           0       -1.777147   -2.836126   -1.232381
    104          1           0       -3.227557   -2.572095    1.125280
    105          1           0       -5.369016   -5.485010   -0.962440
    106          1           0       -4.190264   -4.830731   -2.007850
    107          1           0       -5.631389   -3.958098   -1.879895
    108          1           0       -5.312069   -2.971722    1.804849
    109          1           0       -6.117111   -4.227944    0.984127
    110          1           0       -7.829061   -3.083631    0.377745
    111          1           0       -6.721432   -1.930165   -0.491132
    112          1           0       -7.209483   -0.296273    0.843640
    113          1           0       -6.177259   -1.005146    1.978043
    114          1           0       -8.891405   -2.257274    2.034969
    115          1           0       -8.210920   -2.569283    3.997956
    116          1           0       -8.745122   -1.051980    4.449485
    117          1           0       -6.947295   -1.475309    4.210715
    118          1           0       -9.098888    0.664723    1.544918
    119          1           0       -9.479233    0.299265    3.141581
    120          1           0      -11.493751    0.371552    2.008378
    121          1           0      -11.170553   -1.296819    2.214088
    122          1           0      -10.805307   -1.719163    0.031218
    123          1           0      -10.158316   -0.131142   -0.332484
    124          1           0      -13.032518   -0.378910    0.446594
    125          1           0      -13.616031   -1.920830   -1.007619
    126          1           0      -11.975601   -2.209503   -1.685322
    127          1           0      -12.868073   -0.944161   -2.360506
    128          1           0      -11.951147    1.105090   -1.931125
    129          1           0      -12.114409    1.859139   -0.304661
    130          1           0      -14.634658    0.738483   -1.172746
    131          1           0      -14.099375    2.076606   -2.233399
    132          1           0      -13.605753    3.039954    0.465579
    133          1           0      -15.317481    2.531627    0.291243
    134          1           0      -14.012139    4.199975   -1.735171
    135          1           0      -13.899600    5.703918    0.020098
    136          1           0      -15.033004    4.773382    1.025621
    137          1           0      -15.646792    5.940588   -0.215791
    138          1           0      -16.034551    4.145425   -2.892106
    139          1           0      -16.859656    4.545478   -1.421677
    140          1           0      -16.394598    2.849351   -1.904125
 ---------------------------------------------------------------------

 SCF Done:  E(RB-LYP) =  -3007.35650766     A.U. after   22 cycles

 Excitation energies and oscillator strengths:

 Excited State   1:      Singlet-A      1.7799 eV  696.58 nm  f=0.3163  <S**2>=0.000
     245 -> 248       -0.16269
     246 -> 247        0.69205
     246 <- 247       -0.15593
 This state for optimization and/or second-order correction.
 Total Energy, E(TD-HF/TD-DFT) =  -3007.29109726
 Copying the excited state density for this state as the 1-particle RhoCI density.

 Excited State   2:      Singlet-A      1.8655 eV  664.63 nm  f=0.0001  <S**2>=0.000
     244 -> 247        0.70613

 Excited State   3:      Singlet-A      1.8743 eV  661.51 nm  f=0.0107  <S**2>=0.000
     243 -> 247        0.60738
     245 -> 247        0.35022

 Excited State   4:      Singlet-A      2.0651 eV  600.38 nm  f=0.0564  <S**2>=0.000
     243 -> 247       -0.34965
     245 -> 247        0.54690
     246 -> 248        0.22813
     246 -> 249       -0.12066

 Excited State   5:      Singlet-A      2.4791 eV  500.11 nm  f=0.0049  <S**2>=0.000
     241 -> 247        0.45639
     242 -> 247        0.52389

 The electronic state is 1-A.
 Alpha  occ. eigenvalues --  -46.26063 -18.82360 -18.81632 -18.77329 -18.75771
 Alpha  occ. eigenvalues --  -18.75068 -18.75024 -14.02853 -14.02719 -14.01623
 Alpha  occ. eigenvalues --  -14.00286 -10.04059 -10.02651  -9.99434  -9.99087
 Alpha  occ. eigenvalues --   -9.97569  -9.96557  -9.96284  -9.96274  -9.96259
 Alpha  occ. eigenvalues --   -9.96167  -9.95795  -9.95757  -9.95189  -9.94986
 Alpha  occ. eigenvalues --   -9.93860  -9.93754  -9.93678  -9.93666  -9.93566
 Alpha  occ. eigenvalues --   -9.93475  -9.93462  -9.93404  -9.93202  -9.93005
 Alpha  occ. eigenvalues --   -9.93000  -9.92977  -9.92956  -9.92945  -9.92827
 Alpha  occ. eigenvalues --   -9.92795  -9.92700  -9.92671  -9.92181  -9.92134
 Alpha  occ. eigenvalues --   -9.92114  -9.91997  -9.91864  -9.91864  -9.91851
 Alpha  occ. eigenvalues --   -9.91846  -9.91699  -9.91646  -9.91616  -9.91590
 Alpha  occ. eigenvalues --   -9.91531  -9.91499  -9.91396  -9.91192  -9.91119
 Alpha  occ. eigenvalues --   -9.90989  -9.90982  -9.90872  -9.90787  -9.90755
 Alpha  occ. eigenvalues --   -9.90423  -2.90892  -1.71310  -1.70750  -1.70630
 Alpha  occ. eigenvalues --   -0.99938  -0.96512  -0.91860  -0.91648  -0.89536
 Alpha  occ. eigenvalues --   -0.88408  -0.86371  -0.85296  -0.84854  -0.83170
 Alpha  occ. eigenvalues --   -0.75533  -0.74824  -0.73207  -0.72989  -0.72231
 Alpha  occ. eigenvalues --   -0.72063  -0.71119  -0.70922  -0.70495  -0.70282
 Alpha  occ. eigenvalues --   -0.69363  -0.68850  -0.68061  -0.67374  -0.67303
 Alpha  occ. eigenvalues --   -0.66487  -0.65997  -0.65363  -0.64878  -0.64286
 Alpha  occ. eigenvalues --   -0.63998  -0.62746  -0.62306  -0.61575  -0.61463
 Alpha  occ. eigenvalues --   -0.60314  -0.60108  -0.59483  -0.59345  -0.59196
 Alpha  occ. eigenvalues --   -0.58688  -0.57180  -0.56443  -0.55943  -0.54325
 Alpha  occ. eigenvalues --   -0.54230  -0.53778  -0.53170  -0.53003  -0.51622
 Alpha  occ. eigenvalues --   -0.51437  -0.51169  -0.50879  -0.50200  -0.49936
 Alpha  occ. eigenvalues --   -0.49624  -0.49338  -0.48616  -0.47414  -0.47105
 Alpha  occ. eigenvalues --   -0.46391  -0.46067  -0.45479  -0.45023  -0.44099
 Alpha  occ. eigenvalues --   -0.43704  -0.43198  -0.43040  -0.42707  -0.42430
 Alpha  occ. eigenvalues --   -0.42138  -0.42065  -0.41594  -0.41432  -0.41000
 Alpha  occ. eigenvalues --   -0.40888  -0.40721  -0.40339  -0.40146  -0.40079
 Alpha  occ. eigenvalues --   -0.39752  -0.39543  -0.39409  -0.39367  -0.39121
 Alpha  occ. eigenvalues --   -0.39001  -0.38959  -0.38691  -0.38285  -0.38092
 Alpha  occ. eigenvalues --   -0.37991  -0.37957  -0.37632  -0.37564  -0.37367
 Alpha  occ. eigenvalues --   -0.36981  -0.36914  -0.36617  -0.36434  -0.36408
 Alpha  occ. eigenvalues --   -0.36138  -0.35990  -0.35695  -0.35623  -0.35492
 Alpha  occ. eigenvalues --   -0.35172  -0.35124  -0.34870  -0.34726  -0.34619
 Alpha  occ. eigenvalues --   -0.34407  -0.34332  -0.34219  -0.33996  -0.33813
 Alpha  occ. eigenvalues --   -0.33594  -0.33329  -0.33224  -0.33180  -0.32927
 Alpha  occ. eigenvalues --   -0.32729  -0.32261  -0.32095  -0.31862  -0.31761
 Alpha  occ. eigenvalues --   -0.31743  -0.31593  -0.31525  -0.31296  -0.31270
 Alpha  occ. eigenvalues --   -0.31044  -0.30830  -0.30615  -0.30584  -0.30372
 Alpha  occ. eigenvalues --   -0.30271  -0.30203  -0.30145  -0.30064  -0.30023
 Alpha  occ. eigenvalues --   -0.29782  -0.29523  -0.29447  -0.29232  -0.29216
 Alpha  occ. eigenvalues --   -0.28861  -0.28786  -0.28462  -0.28376  -0.27856
 Alpha  occ. eigenvalues --   -0.27457  -0.27185  -0.26973  -0.26610  -0.26535
 Alpha  occ. eigenvalues --   -0.26242  -0.26080  -0.25735  -0.25500  -0.25394
 Alpha  occ. eigenvalues --   -0.25213  -0.25144  -0.24496  -0.23986  -0.23538
 Alpha  occ. eigenvalues --   -0.23316  -0.22553  -0.21874  -0.20917  -0.20733
 Alpha  occ. eigenvalues --   -0.20530  -0.20047  -0.18306  -0.18148  -0.17226
 Alpha  occ. eigenvalues --   -0.15524
 Alpha virt. eigenvalues --   -0.11389  -0.06866  -0.06053  -0.04722  -0.02954
 Alpha virt. eigenvalues --   -0.02223  -0.01951  -0.01572  -0.01412   0.00994
 Alpha virt. eigenvalues --    0.01761   0.02208   0.02385   0.02738   0.03134

 Mulliken charges:
               1
     1  Mg   0.716392
     2  C    0.037427
     3  C   -0.080533
     4  C   -0.047133
     5  C   -0.096863
     6  N   -0.228713
     7  C   -0.125993
     8  C   -0.005011
     9  C   -0.054545
    10  C    0.085792
    11  C    0.125977
    12  C    0.139887
    13  C    0.173435
    14  C    0.035013
    15  O   -0.177273
    16  O   -0.250226
    17  N   -0.311998
    18  C    0.148093
    19  C   -0.192588
    20  C    0.057178
    21  C    0.137034
    22  C    0.181525
    23  C   -0.081160
    24  O   -0.164716
    25  C    0.142709
    26  N   -0.269184
    27  C    0.017006
    28  C    0.009330
    29  C    0.017904
    30  C    0.101009
    31  C    0.111429
    32  C    0.095034
    33  C    0.072033
    34  N   -0.267803
    35  C    0.108836
    36  C   -0.190968
    37  C    0.092041
    38  C    0.110093
    39  C    0.166435
    40  C   -0.041251
    41  O   -0.151775
    42  C    0.046308
    43  C    0.105494
    44  O   -0.190025
    45  O   -0.271879
    46  C    0.211168
    47  C    0.295037
    48  C   -0.096599
    49  C   -0.078461
    50  C    0.126462
    51  C    0.139587
    52  C    0.069152
    53  C    0.090834
    54  C   -0.038570
    55  C    0.104363
    56  C    0.101708
    57  C    0.043409
    58  C    0.138508
    59  C   -0.090480
    60  C    0.082278
    61  C    0.123482
    62  C    0.088578
    63  C    0.069931
    64  C   -0.134509
    65  C    0.116111
    66  C    0.097648
    67  H   -0.067983
    68  H   -0.054088
    69  H   -0.070433
    70  H    0.028981
    71  H   -0.031670
    72  H    0.026914
    73  H   -0.019307
    74  H   -0.002858
    75  H   -0.019167
    76  H   -0.007694
    77  H   -0.008000
    78  H   -0.003696
    79  H    0.008891
    80  H   -0.015330
    81  H    0.026299
    82  H    0.002218
    83  H   -0.018555
    84  H    0.005443
    85  H   -0.020555
    86  H   -0.031571
    87  H    0.001185
    88  H    0.001197
    89  H   -0.017283
    90  H   -0.017838
    91  H   -0.024342
    92  H   -0.002145
    93  H   -0.006641
    94  H   -0.005454
    95  H   -0.018456
    96  H    0.023545
    97  H   -0.007294
    98  H    0.007884
    99  H   -0.004383
   100  H    0.022111
   101  H    0.028080
   102  H   -0.020255
   103  H   -0.017821
   104  H   -0.040171
   105  H   -0.001497
   106  H   -0.015766
   107  H    0.000852
   108  H   -0.028788
   109  H   -0.047854
   110  H   -0.009167
   111  H   -0.024635
   112  H   -0.040451
   113  H   -0.031650
   114  H   -0.030651
   115  H   -0.037923
   116  H   -0.023243
   117  H    0.000701
   118  H   -0.041594
   119  H   -0.051042
   120  H   -0.032856
   121  H   -0.043836
   122  H   -0.039840
   123  H   -0.043243
   124  H   -0.041472
   125  H   -0.004011
   126  H   -0.010079
   127  H   -0.026127
   128  H   -0.034027
   129  H   -0.034257
   130  H   -0.025569
   131  H   -0.024054
   132  H   -0.020609
   133  H   -0.030219
   134  H   -0.035767
   135  H   -0.012507
   136  H   -0.010756
   137  H   -0.013529
   138  H   -0.021699
   139  H   -0.017202
   140  H   -0.018802
 Sum of Mulliken charges =  -0.00000

 Dipole moment (field-independent basis, Debye):
    X=             -5.3043    Y=              1.8893    Z=              3.2650  Tot=              6.5089
 Quadrupole moment (field-independent basis, Debye-Ang):
   XX=           -385.0188   YY=           -427.8543   ZZ=           -407.2128
   XY=             27.7913   XZ=             18.6416   YZ=             -4.5285

 Normal termination of Gaussian 16 at Wed May  4 13:02:04 2022.
