 Gaussian 16, Revision A.03,
 Gaussian 16:  ES64L-G16RevA.03 25-Dec-2016

 -----------------------------------
 #p cam-b3lyp/Def2SVP td=(nstates=5)
 -----------------------------------

 -------------------------------------------------------
 step_1701_chromophore_3 TDDFT with cam-b3lyp functional
 -------------------------------------------------------
 Symbolic Z-matrix:
 Charge =  0 Multiplicity = 1

                         Standard orientation:
 ---------------------------------------------------------------------
 Center     Atomic      Atomic             Coordinates (Angstroms)
 Number     Number       Type             X           Y           Z
 ---------------------------------------------------------------------
      1         12           0        5.288254    1.187037    0.434113
      2          6           0        4.708434   -2.179728   -0.079386
      3          6           0        1.773190    1.678380    0.114238
      4          6           0        5.726639    4.479581   -0.104450
      5          6           0        8.667927    0.597718    0.067817
      6          7           0        3.491473   -0.126197    0.116850
      7          6           0        3.499993   -1.527531   -0.063034
      8          6           0        2.109810   -2.040202    0.037567
      9          6           0        1.223755   -0.763783   -0.239530
     10          6           0        2.214188    0.343025    0.016076
     11          6           0        0.594320   -0.822540   -1.674169
     12          6           0        1.924996   -2.708657    1.391542
     13          6           0        1.110152   -4.041806    1.304708
     14          6           0        0.125999   -4.059850    0.153914
     15          8           0        0.426215   -4.271541   -0.981723
     16          8           0       -1.116231   -3.654949    0.520044
     17          7           0        3.990995    2.803962    0.269211
     18          6           0        2.605055    2.843675    0.239444
     19          6           0        2.066093    4.251991    0.128107
     20          6           0        3.245134    5.119768   -0.069267
     21          6           0        4.377331    4.164584    0.025484
     22          6           0        0.607271    4.676706    0.061427
     23          6           0        3.287476    6.573831   -0.388687
     24          8           0        4.320878    7.215449   -0.507737
     25          6           0        2.098836    7.409936   -0.340290
     26          7           0        6.922970    2.337204    0.127081
     27          6           0        6.853569    3.664955   -0.053618
     28          6           0        8.354584    4.278815   -0.152847
     29          6           0        9.174995    3.053388    0.186003
     30          6           0        8.235600    1.881984    0.194906
     31          6           0        8.595045    4.772893   -1.594465
     32          6           0        9.968278    3.128534    1.597293
     33          6           0       11.315432    2.412125    1.518049
     34          7           0        6.513737   -0.465811    0.249063
     35          6           0        7.859688   -0.530665    0.033321
     36          6           0        8.231793   -1.959746   -0.049768
     37          6           0        6.988112   -2.651691   -0.095301
     38          6           0        6.006505   -1.687897    0.003581
     39          6           0        9.629776   -2.593014   -0.255578
     40          6           0        6.408397   -3.963050   -0.277531
     41          8           0        6.878680   -5.085539   -0.548090
     42          6           0        4.922705   -3.741155   -0.050084
     43          6           0        4.116591   -4.479337   -1.054186
     44          8           0        3.837191   -4.122019   -2.194778
     45          8           0        3.919604   -5.736502   -0.554339
     46          6           0        3.110354   -6.592586   -1.487688
     47          6           0       -2.113150   -3.550305   -0.480382
     48          6           0       -3.404719   -3.164683    0.227091
     49          6           0       -4.598870   -3.659106   -0.057402
     50          6           0       -4.935605   -4.533599   -1.269957
     51          6           0       -5.649717   -3.259135    0.808501
     52          6           0       -6.935598   -2.460582    0.436476
     53          6           0       -7.102472   -1.203683    1.437267
     54          6           0       -8.383775   -1.334715    2.316266
     55          6           0       -7.971007   -1.517990    3.839768
     56          6           0       -9.387074   -0.181701    2.167976
     57          6           0      -10.826714   -0.419752    1.666877
     58          6           0      -10.958693   -0.652192    0.192014
     59          6           0      -12.342999   -0.275369   -0.391175
     60          6           0      -12.715933   -1.458013   -1.411562
     61          6           0      -12.505035    1.108395   -0.992631
     62          6           0      -13.982160    1.607260   -1.256572
     63          6           0      -14.390129    2.754176   -0.235886
     64          6           0      -14.791119    4.037296   -0.990485
     65          6           0      -14.874504    5.216670    0.042123
     66          6           0      -16.089693    3.894123   -1.832999
     67          1           0        0.696692    1.859345    0.065987
     68          1           0        6.012678    5.521451   -0.266177
     69          1           0        9.731046    0.349310    0.062464
     70          1           0        2.032384   -2.678164   -0.842812
     71          1           0        0.363724   -0.755477    0.430904
     72          1           0        0.846104   -1.748551   -2.190336
     73          1           0        1.036248   -0.006762   -2.247365
     74          1           0       -0.462426   -0.591517   -1.541992
     75          1           0        1.334256   -2.119480    2.093093
     76          1           0        2.917195   -2.831584    1.826324
     77          1           0        0.537772   -4.251037    2.209500
     78          1           0        1.865834   -4.779151    1.037675
     79          1           0        0.337953    5.509474    0.710668
     80          1           0        0.077718    3.857771    0.548666
     81          1           0        0.378385    4.688950   -1.003815
     82          1           0        1.423570    7.056986   -1.120361
     83          1           0        2.273575    8.483212   -0.419167
     84          1           0        1.658849    7.456063    0.655698
     85          1           0        8.418792    5.109699    0.549869
     86          1           0        9.909077    2.864227   -0.597600
     87          1           0        8.212114    5.787483   -1.702341
     88          1           0        8.233139    4.199436   -2.447702
     89          1           0        9.677778    4.812191   -1.718583
     90          1           0        9.397201    2.683081    2.411629
     91          1           0       10.007025    4.200757    1.782959
     92          1           0       11.439455    1.957343    0.534849
     93          1           0       11.431399    1.606212    2.242169
     94          1           0       12.108787    3.143438    1.674342
     95          1           0       10.360965   -1.901049    0.162197
     96          1           0        9.783472   -2.967131   -1.267997
     97          1           0        9.767146   -3.470593    0.376553
     98          1           0        4.691048   -4.190630    0.916103
     99          1           0        2.787445   -7.394061   -0.823717
    100          1           0        3.603188   -7.060177   -2.339530
    101          1           0        2.201794   -6.111593   -1.850669
    102          1           0       -2.131720   -4.444899   -1.102430
    103          1           0       -1.777147   -2.836126   -1.232381
    104          1           0       -3.227557   -2.572095    1.125280
    105          1           0       -5.369016   -5.485010   -0.962440
    106          1           0       -4.190264   -4.830731   -2.007850
    107          1           0       -5.631389   -3.958098   -1.879895
    108          1           0       -5.312069   -2.971722    1.804849
    109          1           0       -6.117111   -4.227944    0.984127
    110          1           0       -7.829061   -3.083631    0.377745
    111          1           0       -6.721432   -1.930165   -0.491132
    112          1           0       -7.209483   -0.296273    0.843640
    113          1           0       -6.177259   -1.005146    1.978043
    114          1           0       -8.891405   -2.257274    2.034969
    115          1           0       -8.210920   -2.569283    3.997956
    116          1           0       -8.745122   -1.051980    4.449485
    117          1           0       -6.947295   -1.475309    4.210715
    118          1           0       -9.098888    0.664723    1.544918
    119          1           0       -9.479233    0.299265    3.141581
    120          1           0      -11.493751    0.371552    2.008378
    121          1           0      -11.170553   -1.296819    2.214088
    122          1           0      -10.805307   -1.719163    0.031218
    123          1           0      -10.158316   -0.131142   -0.332484
    124          1           0      -13.032518   -0.378910    0.446594
    125          1           0      -13.616031   -1.920830   -1.007619
    126          1           0      -11.975601   -2.209503   -1.685322
    127          1           0      -12.868073   -0.944161   -2.360506
    128          1           0      -11.951147    1.105090   -1.931125
    129          1           0      -12.114409    1.859139   -0.304661
    130          1           0      -14.634658    0.738483   -1.172746
    131          1           0      -14.099375    2.076606   -2.233399
    132          1           0      -13.605753    3.039954    0.465579
    133          1           0      -15.317481    2.531627    0.291243
    134          1           0      -14.012139    4.199975   -1.735171
    135          1           0      -13.899600    5.703918    0.020098
    136          1           0      -15.033004    4.773382    1.025621
    137          1           0      -15.646792    5.940588   -0.215791
    138          1           0      -16.034551    4.145425   -2.892106
    139          1           0      -16.859656    4.545478   -1.421677
    140          1           0      -16.394598    2.849351   -1.904125
 ---------------------------------------------------------------------

 SCF Done:  E(RCAM-B3LYP) =  -3007.15338131     A.U. after   17 cycles

 Excitation energies and oscillator strengths:

 Excited State   1:      Singlet-A      1.7171 eV  722.06 nm  f=0.3930  <S**2>=0.000
     245 -> 248        0.16314
     246 -> 247        0.68813
 This state for optimization and/or second-order correction.
 Total Energy, E(TD-HF/TD-DFT) =  -3007.09027951
 Copying the excited state density for this state as the 1-particle RhoCI density.

 Excited State   2:      Singlet-A      2.2775 eV  544.39 nm  f=0.1004  <S**2>=0.000
     245 -> 247        0.63281
     246 -> 248       -0.29314

 Excited State   3:      Singlet-A      3.4109 eV  363.49 nm  f=0.1195  <S**2>=0.000
     241 -> 247       -0.39968
     243 -> 247        0.19006
     244 -> 247        0.41335
     245 -> 247       -0.11883
     246 -> 248       -0.29100

 Excited State   4:      Singlet-A      3.4692 eV  357.39 nm  f=0.1287  <S**2>=0.000
     240 -> 247        0.19703
     240 -> 249        0.11903
     241 -> 247        0.17293
     244 -> 247        0.46578
     245 -> 247        0.12946
     246 -> 248        0.35544

 Excited State   5:      Singlet-A      3.4808 eV  356.19 nm  f=0.1436  <S**2>=0.000
     239 -> 247        0.22382
     239 -> 249        0.12555
     240 -> 247        0.42336
     240 -> 248       -0.16704
     240 -> 249        0.23173
     240 -> 250       -0.14491
     245 -> 247       -0.13654
     246 -> 248       -0.30712

 The electronic state is 1-A.
 Alpha  occ. eigenvalues --  -46.87526 -19.25181 -19.24426 -19.20304 -19.18708
 Alpha  occ. eigenvalues --  -19.18678 -19.17839 -14.41768 -14.41557 -14.40415
 Alpha  occ. eigenvalues --  -14.38382 -10.39255 -10.37924 -10.34996 -10.34051
 Alpha  occ. eigenvalues --  -10.31650 -10.31549 -10.31344 -10.31071 -10.31048
 Alpha  occ. eigenvalues --  -10.30742 -10.30194 -10.29875 -10.29754 -10.28566
 Alpha  occ. eigenvalues --  -10.28538 -10.28076 -10.27753 -10.27598 -10.27549
 Alpha  occ. eigenvalues --  -10.27464 -10.27437 -10.27305 -10.27280 -10.27273
 Alpha  occ. eigenvalues --  -10.27098 -10.27049 -10.26698 -10.26678 -10.26603
 Alpha  occ. eigenvalues --  -10.26560 -10.26415 -10.26377 -10.25923 -10.25916
 Alpha  occ. eigenvalues --  -10.25843 -10.25754 -10.25742 -10.25616 -10.25608
 Alpha  occ. eigenvalues --  -10.25600 -10.25578 -10.25524 -10.25465 -10.25322
 Alpha  occ. eigenvalues --  -10.25294 -10.25230 -10.25124 -10.24826 -10.24764
 Alpha  occ. eigenvalues --  -10.24640 -10.24636 -10.24560 -10.24427 -10.24424
 Alpha  occ. eigenvalues --  -10.23956  -3.16267  -1.91159  -1.90706  -1.90594
 Alpha  occ. eigenvalues --   -1.18443  -1.14874  -1.10515  -1.09755  -1.07488
 Alpha  occ. eigenvalues --   -1.06149  -1.03786  -1.02868  -1.02426  -1.00992
 Alpha  occ. eigenvalues --   -0.92396  -0.91760  -0.90046  -0.89709  -0.88893
 Alpha  occ. eigenvalues --   -0.88794  -0.87864  -0.87521  -0.87420  -0.87050
 Alpha  occ. eigenvalues --   -0.85717  -0.85035  -0.84294  -0.83461  -0.83420
 Alpha  occ. eigenvalues --   -0.82576  -0.82527  -0.81270  -0.80647  -0.80183
 Alpha  occ. eigenvalues --   -0.79785  -0.78779  -0.77797  -0.76997  -0.76887
 Alpha  occ. eigenvalues --   -0.75719  -0.75332  -0.74734  -0.74597  -0.74469
 Alpha  occ. eigenvalues --   -0.73783  -0.72107  -0.71344  -0.70764  -0.68909
 Alpha  occ. eigenvalues --   -0.68721  -0.68585  -0.67630  -0.67560  -0.65843
 Alpha  occ. eigenvalues --   -0.65458  -0.65332  -0.64829  -0.64371  -0.63734
 Alpha  occ. eigenvalues --   -0.63610  -0.63340  -0.62529  -0.60993  -0.60597
 Alpha  occ. eigenvalues --   -0.60256  -0.59617  -0.58932  -0.58252  -0.57516
 Alpha  occ. eigenvalues --   -0.57071  -0.56581  -0.56382  -0.55795  -0.55669
 Alpha  occ. eigenvalues --   -0.55209  -0.54968  -0.54931  -0.54297  -0.54053
 Alpha  occ. eigenvalues --   -0.53713  -0.53645  -0.53172  -0.52870  -0.52673
 Alpha  occ. eigenvalues --   -0.52624  -0.52396  -0.52137  -0.52001  -0.51831
 Alpha  occ. eigenvalues --   -0.51562  -0.51362  -0.51254  -0.50554  -0.50526
 Alpha  occ. eigenvalues --   -0.50498  -0.50104  -0.49983  -0.49920  -0.49759
 Alpha  occ. eigenvalues --   -0.49454  -0.49063  -0.49021  -0.48800  -0.48616
 Alpha  occ. eigenvalues --   -0.48365  -0.48299  -0.48082  -0.47705  -0.47638
 Alpha  occ. eigenvalues --   -0.47404  -0.47218  -0.46982  -0.46758  -0.46639
 Alpha  occ. eigenvalues --   -0.46458  -0.46307  -0.46202  -0.45726  -0.45488
 Alpha  occ. eigenvalues --   -0.45240  -0.45158  -0.44921  -0.44807  -0.44566
 Alpha  occ. eigenvalues --   -0.44267  -0.43898  -0.43773  -0.43688  -0.43581
 Alpha  occ. eigenvalues --   -0.43227  -0.43165  -0.43021  -0.42986  -0.42627
 Alpha  occ. eigenvalues --   -0.42575  -0.42395  -0.42098  -0.41956  -0.41929
 Alpha  occ. eigenvalues --   -0.41658  -0.41592  -0.41524  -0.41442  -0.41363
 Alpha  occ. eigenvalues --   -0.41243  -0.40854  -0.40690  -0.40484  -0.40316
 Alpha  occ. eigenvalues --   -0.40100  -0.39756  -0.39470  -0.39369  -0.38732
 Alpha  occ. eigenvalues --   -0.38346  -0.38088  -0.37809  -0.37699  -0.37424
 Alpha  occ. eigenvalues --   -0.36931  -0.36709  -0.36540  -0.36291  -0.36274
 Alpha  occ. eigenvalues --   -0.36074  -0.35863  -0.35746  -0.34593  -0.34435
 Alpha  occ. eigenvalues --   -0.34122  -0.33318  -0.32767  -0.31223  -0.31040
 Alpha  occ. eigenvalues --   -0.30431  -0.30098  -0.29981  -0.28955  -0.24156
 Alpha  occ. eigenvalues --   -0.20818
 Alpha virt. eigenvalues --   -0.08471  -0.01544   0.00283   0.02141   0.02736
 Alpha virt. eigenvalues --    0.04921   0.05570   0.05943   0.06070   0.07173
 Alpha virt. eigenvalues --    0.08440   0.08706   0.08927   0.09305   0.09413

 Mulliken charges:
               1
     1  Mg   0.848936
     2  C    0.008380
     3  C   -0.096890
     4  C   -0.071860
     5  C   -0.095849
     6  N   -0.295451
     7  C   -0.077102
     8  C   -0.071525
     9  C   -0.100612
    10  C    0.103058
    11  C    0.069342
    12  C    0.089159
    13  C    0.107344
    14  C    0.111234
    15  O   -0.217392
    16  O   -0.313243
    17  N   -0.397301
    18  C    0.162330
    19  C   -0.187902
    20  C   -0.009776
    21  C    0.163527
    22  C    0.118964
    23  C    0.000735
    24  O   -0.201967
    25  C    0.053913
    26  N   -0.345081
    27  C    0.043632
    28  C   -0.045030
    29  C   -0.044941
    30  C    0.115496
    31  C    0.053627
    32  C    0.045469
    33  C    0.008345
    34  N   -0.354279
    35  C    0.100638
    36  C   -0.186737
    37  C    0.005538
    38  C    0.141888
    39  C    0.119845
    40  C    0.062475
    41  O   -0.192956
    42  C   -0.027942
    43  C    0.188594
    44  O   -0.226765
    45  O   -0.334294
    46  C    0.173381
    47  C    0.260315
    48  C   -0.116001
    49  C   -0.102377
    50  C    0.068710
    51  C    0.074513
    52  C    0.012972
    53  C    0.040966
    54  C   -0.096956
    55  C    0.045349
    56  C    0.046253
    57  C   -0.007327
    58  C    0.085890
    59  C   -0.144920
    60  C    0.023144
    61  C    0.071845
    62  C    0.030714
    63  C    0.018283
    64  C   -0.188654
    65  C    0.054360
    66  C    0.035154
    67  H   -0.031352
    68  H   -0.011800
    69  H   -0.035303
    70  H    0.063715
    71  H    0.003671
    72  H    0.052212
    73  H    0.008383
    74  H    0.018386
    75  H    0.010744
    76  H    0.024580
    77  H    0.026638
    78  H    0.025504
    79  H    0.038879
    80  H    0.014023
    81  H    0.055539
    82  H    0.029866
    83  H    0.020373
    84  H    0.034542
    85  H    0.014865
    86  H    0.004629
    87  H    0.024800
    88  H    0.027737
    89  H    0.008384
    90  H    0.010989
    91  H    0.002066
    92  H    0.017209
    93  H    0.017843
    94  H    0.018569
    95  H    0.002697
    96  H    0.046693
    97  H    0.018146
    98  H    0.048008
    99  H    0.019246
   100  H    0.045157
   101  H    0.050964
   102  H    0.009533
   103  H    0.009245
   104  H   -0.004259
   105  H    0.023321
   106  H    0.010740
   107  H    0.023992
   108  H    0.001647
   109  H   -0.018085
   110  H    0.017145
   111  H    0.003571
   112  H   -0.010606
   113  H   -0.004078
   114  H   -0.000153
   115  H   -0.012740
   116  H    0.002217
   117  H    0.023812
   118  H   -0.013764
   119  H   -0.018900
   120  H   -0.004632
   121  H   -0.016266
   122  H   -0.011116
   123  H   -0.015805
   124  H   -0.009554
   125  H    0.019092
   126  H    0.014525
   127  H   -0.002668
   128  H   -0.005723
   129  H   -0.007846
   130  H    0.002580
   131  H    0.004508
   132  H    0.006415
   133  H   -0.001980
   134  H   -0.005191
   135  H    0.011691
   136  H    0.012700
   137  H    0.010831
   138  H    0.003918
   139  H    0.007124
   140  H    0.004969
 Sum of Mulliken charges =  -0.00000

 Dipole moment (field-independent basis, Debye):
    X=             -6.3164    Y=              3.1904    Z=              3.3700  Tot=              7.8379
 Quadrupole moment (field-independent basis, Debye-Ang):
   XX=           -392.3596   YY=           -421.5054   ZZ=           -407.3148
   XY=             32.1729   XZ=             19.0802   YZ=             -4.9924

 Normal termination of Gaussian 16 at Wed May  4 12:06:59 2022.
