 Gaussian 16, Revision A.03,
 Gaussian 16:  ES64L-G16RevA.03 25-Dec-2016

 ---------------------------------
 #p PBE1PBE/Def2SVP td=(nstates=5)
 ---------------------------------

 -----------------------------------------------------
 step_1701_chromophore_3 TDDFT with PBE1PBE functional
 -----------------------------------------------------
 Symbolic Z-matrix:
 Charge =  0 Multiplicity = 1

                         Standard orientation:
 ---------------------------------------------------------------------
 Center     Atomic      Atomic             Coordinates (Angstroms)
 Number     Number       Type             X           Y           Z
 ---------------------------------------------------------------------
      1         12           0        5.288254    1.187037    0.434113
      2          6           0        4.708434   -2.179728   -0.079386
      3          6           0        1.773190    1.678380    0.114238
      4          6           0        5.726639    4.479581   -0.104450
      5          6           0        8.667927    0.597718    0.067817
      6          7           0        3.491473   -0.126197    0.116850
      7          6           0        3.499993   -1.527531   -0.063034
      8          6           0        2.109810   -2.040202    0.037567
      9          6           0        1.223755   -0.763783   -0.239530
     10          6           0        2.214188    0.343025    0.016076
     11          6           0        0.594320   -0.822540   -1.674169
     12          6           0        1.924996   -2.708657    1.391542
     13          6           0        1.110152   -4.041806    1.304708
     14          6           0        0.125999   -4.059850    0.153914
     15          8           0        0.426215   -4.271541   -0.981723
     16          8           0       -1.116231   -3.654949    0.520044
     17          7           0        3.990995    2.803962    0.269211
     18          6           0        2.605055    2.843675    0.239444
     19          6           0        2.066093    4.251991    0.128107
     20          6           0        3.245134    5.119768   -0.069267
     21          6           0        4.377331    4.164584    0.025484
     22          6           0        0.607271    4.676706    0.061427
     23          6           0        3.287476    6.573831   -0.388687
     24          8           0        4.320878    7.215449   -0.507737
     25          6           0        2.098836    7.409936   -0.340290
     26          7           0        6.922970    2.337204    0.127081
     27          6           0        6.853569    3.664955   -0.053618
     28          6           0        8.354584    4.278815   -0.152847
     29          6           0        9.174995    3.053388    0.186003
     30          6           0        8.235600    1.881984    0.194906
     31          6           0        8.595045    4.772893   -1.594465
     32          6           0        9.968278    3.128534    1.597293
     33          6           0       11.315432    2.412125    1.518049
     34          7           0        6.513737   -0.465811    0.249063
     35          6           0        7.859688   -0.530665    0.033321
     36          6           0        8.231793   -1.959746   -0.049768
     37          6           0        6.988112   -2.651691   -0.095301
     38          6           0        6.006505   -1.687897    0.003581
     39          6           0        9.629776   -2.593014   -0.255578
     40          6           0        6.408397   -3.963050   -0.277531
     41          8           0        6.878680   -5.085539   -0.548090
     42          6           0        4.922705   -3.741155   -0.050084
     43          6           0        4.116591   -4.479337   -1.054186
     44          8           0        3.837191   -4.122019   -2.194778
     45          8           0        3.919604   -5.736502   -0.554339
     46          6           0        3.110354   -6.592586   -1.487688
     47          6           0       -2.113150   -3.550305   -0.480382
     48          6           0       -3.404719   -3.164683    0.227091
     49          6           0       -4.598870   -3.659106   -0.057402
     50          6           0       -4.935605   -4.533599   -1.269957
     51          6           0       -5.649717   -3.259135    0.808501
     52          6           0       -6.935598   -2.460582    0.436476
     53          6           0       -7.102472   -1.203683    1.437267
     54          6           0       -8.383775   -1.334715    2.316266
     55          6           0       -7.971007   -1.517990    3.839768
     56          6           0       -9.387074   -0.181701    2.167976
     57          6           0      -10.826714   -0.419752    1.666877
     58          6           0      -10.958693   -0.652192    0.192014
     59          6           0      -12.342999   -0.275369   -0.391175
     60          6           0      -12.715933   -1.458013   -1.411562
     61          6           0      -12.505035    1.108395   -0.992631
     62          6           0      -13.982160    1.607260   -1.256572
     63          6           0      -14.390129    2.754176   -0.235886
     64          6           0      -14.791119    4.037296   -0.990485
     65          6           0      -14.874504    5.216670    0.042123
     66          6           0      -16.089693    3.894123   -1.832999
     67          1           0        0.696692    1.859345    0.065987
     68          1           0        6.012678    5.521451   -0.266177
     69          1           0        9.731046    0.349310    0.062464
     70          1           0        2.032384   -2.678164   -0.842812
     71          1           0        0.363724   -0.755477    0.430904
     72          1           0        0.846104   -1.748551   -2.190336
     73          1           0        1.036248   -0.006762   -2.247365
     74          1           0       -0.462426   -0.591517   -1.541992
     75          1           0        1.334256   -2.119480    2.093093
     76          1           0        2.917195   -2.831584    1.826324
     77          1           0        0.537772   -4.251037    2.209500
     78          1           0        1.865834   -4.779151    1.037675
     79          1           0        0.337953    5.509474    0.710668
     80          1           0        0.077718    3.857771    0.548666
     81          1           0        0.378385    4.688950   -1.003815
     82          1           0        1.423570    7.056986   -1.120361
     83          1           0        2.273575    8.483212   -0.419167
     84          1           0        1.658849    7.456063    0.655698
     85          1           0        8.418792    5.109699    0.549869
     86          1           0        9.909077    2.864227   -0.597600
     87          1           0        8.212114    5.787483   -1.702341
     88          1           0        8.233139    4.199436   -2.447702
     89          1           0        9.677778    4.812191   -1.718583
     90          1           0        9.397201    2.683081    2.411629
     91          1           0       10.007025    4.200757    1.782959
     92          1           0       11.439455    1.957343    0.534849
     93          1           0       11.431399    1.606212    2.242169
     94          1           0       12.108787    3.143438    1.674342
     95          1           0       10.360965   -1.901049    0.162197
     96          1           0        9.783472   -2.967131   -1.267997
     97          1           0        9.767146   -3.470593    0.376553
     98          1           0        4.691048   -4.190630    0.916103
     99          1           0        2.787445   -7.394061   -0.823717
    100          1           0        3.603188   -7.060177   -2.339530
    101          1           0        2.201794   -6.111593   -1.850669
    102          1           0       -2.131720   -4.444899   -1.102430
    103          1           0       -1.777147   -2.836126   -1.232381
    104          1           0       -3.227557   -2.572095    1.125280
    105          1           0       -5.369016   -5.485010   -0.962440
    106          1           0       -4.190264   -4.830731   -2.007850
    107          1           0       -5.631389   -3.958098   -1.879895
    108          1           0       -5.312069   -2.971722    1.804849
    109          1           0       -6.117111   -4.227944    0.984127
    110          1           0       -7.829061   -3.083631    0.377745
    111          1           0       -6.721432   -1.930165   -0.491132
    112          1           0       -7.209483   -0.296273    0.843640
    113          1           0       -6.177259   -1.005146    1.978043
    114          1           0       -8.891405   -2.257274    2.034969
    115          1           0       -8.210920   -2.569283    3.997956
    116          1           0       -8.745122   -1.051980    4.449485
    117          1           0       -6.947295   -1.475309    4.210715
    118          1           0       -9.098888    0.664723    1.544918
    119          1           0       -9.479233    0.299265    3.141581
    120          1           0      -11.493751    0.371552    2.008378
    121          1           0      -11.170553   -1.296819    2.214088
    122          1           0      -10.805307   -1.719163    0.031218
    123          1           0      -10.158316   -0.131142   -0.332484
    124          1           0      -13.032518   -0.378910    0.446594
    125          1           0      -13.616031   -1.920830   -1.007619
    126          1           0      -11.975601   -2.209503   -1.685322
    127          1           0      -12.868073   -0.944161   -2.360506
    128          1           0      -11.951147    1.105090   -1.931125
    129          1           0      -12.114409    1.859139   -0.304661
    130          1           0      -14.634658    0.738483   -1.172746
    131          1           0      -14.099375    2.076606   -2.233399
    132          1           0      -13.605753    3.039954    0.465579
    133          1           0      -15.317481    2.531627    0.291243
    134          1           0      -14.012139    4.199975   -1.735171
    135          1           0      -13.899600    5.703918    0.020098
    136          1           0      -15.033004    4.773382    1.025621
    137          1           0      -15.646792    5.940588   -0.215791
    138          1           0      -16.034551    4.145425   -2.892106
    139          1           0      -16.859656    4.545478   -1.421677
    140          1           0      -16.394598    2.849351   -1.904125
 ---------------------------------------------------------------------

 SCF Done:  E(RPBE1PBE) =  -3005.34080442     A.U. after   16 cycles

 Excitation energies and oscillator strengths:

 Excited State   1:      Singlet-A      1.8345 eV  675.85 nm  f=0.3815  <S**2>=0.000
     245 -> 248       -0.15712
     246 -> 247        0.69534
     246 <- 247       -0.11124
 This state for optimization and/or second-order correction.
 Total Energy, E(TD-HF/TD-DFT) =  -3005.27338825
 Copying the excited state density for this state as the 1-particle RhoCI density.

 Excited State   2:      Singlet-A      2.2658 eV  547.19 nm  f=0.0961  <S**2>=0.000
     245 -> 247        0.64535
     246 -> 248        0.26477

 Excited State   3:      Singlet-A      2.9813 eV  415.87 nm  f=0.0000  <S**2>=0.000
     241 -> 247        0.31368
     242 -> 247        0.40174
     243 -> 247       -0.18023
     244 -> 247       -0.39399

 Excited State   4:      Singlet-A      2.9908 eV  414.55 nm  f=0.0001  <S**2>=0.000
     241 -> 247        0.23692
     242 -> 247        0.33433
     243 -> 247        0.25915
     244 -> 247        0.45868

 Excited State   5:      Singlet-A      3.0941 eV  400.72 nm  f=0.0187  <S**2>=0.000
     240 -> 247        0.12681
     243 -> 247        0.57096
     244 -> 247       -0.33701
     246 -> 248       -0.10303

 The electronic state is 1-A.
 Alpha  occ. eigenvalues --  -46.90949 -19.25834 -19.25183 -19.20542 -19.19027
 Alpha  occ. eigenvalues --  -19.18626 -19.18371 -14.41291 -14.41071 -14.39938
 Alpha  occ. eigenvalues --  -14.38235 -10.36272 -10.35048 -10.31803 -10.31443
 Alpha  occ. eigenvalues --  -10.28953 -10.28920 -10.28685 -10.28522 -10.28517
 Alpha  occ. eigenvalues --  -10.27966 -10.27865 -10.27752 -10.27514 -10.26719
 Alpha  occ. eigenvalues --  -10.25873 -10.25603 -10.25494 -10.25485 -10.25246
 Alpha  occ. eigenvalues --  -10.25200 -10.25187 -10.25088 -10.24995 -10.24991
 Alpha  occ. eigenvalues --  -10.24794 -10.24681 -10.24622 -10.24473 -10.24320
 Alpha  occ. eigenvalues --  -10.24123 -10.24057 -10.24010 -10.23651 -10.23603
 Alpha  occ. eigenvalues --  -10.23425 -10.23245 -10.23230 -10.23220 -10.23171
 Alpha  occ. eigenvalues --  -10.23131 -10.23008 -10.22883 -10.22882 -10.22839
 Alpha  occ. eigenvalues --  -10.22837 -10.22787 -10.22694 -10.22263 -10.22162
 Alpha  occ. eigenvalues --  -10.22141 -10.22126 -10.22062 -10.22047 -10.21944
 Alpha  occ. eigenvalues --  -10.21808  -3.13261  -1.86094  -1.85620  -1.85513
 Alpha  occ. eigenvalues --   -1.13247  -1.09737  -1.04960  -1.04610  -1.02469
 Alpha  occ. eigenvalues --   -1.01074  -0.98614  -0.97504  -0.97063  -0.95379
 Alpha  occ. eigenvalues --   -0.86972  -0.85929  -0.84131  -0.83968  -0.83206
 Alpha  occ. eigenvalues --   -0.82878  -0.82073  -0.81627  -0.81401  -0.81375
 Alpha  occ. eigenvalues --   -0.79969  -0.79519  -0.78519  -0.77811  -0.77681
 Alpha  occ. eigenvalues --   -0.76766  -0.76513  -0.75539  -0.74942  -0.74492
 Alpha  occ. eigenvalues --   -0.73938  -0.72899  -0.72114  -0.71338  -0.71084
 Alpha  occ. eigenvalues --   -0.69788  -0.69740  -0.69001  -0.68835  -0.68614
 Alpha  occ. eigenvalues --   -0.68064  -0.66610  -0.65755  -0.65086  -0.63267
 Alpha  occ. eigenvalues --   -0.63095  -0.62848  -0.62036  -0.61827  -0.60084
 Alpha  occ. eigenvalues --   -0.59905  -0.59807  -0.59234  -0.58850  -0.58389
 Alpha  occ. eigenvalues --   -0.57784  -0.57466  -0.56700  -0.55675  -0.54990
 Alpha  occ. eigenvalues --   -0.54616  -0.54122  -0.53536  -0.52988  -0.52100
 Alpha  occ. eigenvalues --   -0.51560  -0.51118  -0.50748  -0.50335  -0.50211
 Alpha  occ. eigenvalues --   -0.49818  -0.49462  -0.49293  -0.48713  -0.48425
 Alpha  occ. eigenvalues --   -0.48148  -0.47990  -0.47736  -0.47358  -0.47269
 Alpha  occ. eigenvalues --   -0.47165  -0.46946  -0.46638  -0.46447  -0.46316
 Alpha  occ. eigenvalues --   -0.46168  -0.45909  -0.45876  -0.45114  -0.45077
 Alpha  occ. eigenvalues --   -0.45017  -0.44904  -0.44583  -0.44500  -0.44352
 Alpha  occ. eigenvalues --   -0.43968  -0.43685  -0.43615  -0.43466  -0.43203
 Alpha  occ. eigenvalues --   -0.43017  -0.42910  -0.42630  -0.42303  -0.42201
 Alpha  occ. eigenvalues --   -0.42058  -0.41851  -0.41743  -0.41401  -0.41325
 Alpha  occ. eigenvalues --   -0.41056  -0.41029  -0.40945  -0.40452  -0.40165
 Alpha  occ. eigenvalues --   -0.39896  -0.39847  -0.39645  -0.39593  -0.39218
 Alpha  occ. eigenvalues --   -0.39160  -0.38658  -0.38551  -0.38459  -0.38315
 Alpha  occ. eigenvalues --   -0.38046  -0.37844  -0.37726  -0.37664  -0.37411
 Alpha  occ. eigenvalues --   -0.37306  -0.37142  -0.37022  -0.36664  -0.36580
 Alpha  occ. eigenvalues --   -0.36540  -0.36393  -0.36347  -0.36312  -0.36204
 Alpha  occ. eigenvalues --   -0.36159  -0.35821  -0.35462  -0.35395  -0.35083
 Alpha  occ. eigenvalues --   -0.35057  -0.34700  -0.34268  -0.34166  -0.33519
 Alpha  occ. eigenvalues --   -0.33366  -0.33095  -0.32729  -0.32588  -0.32244
 Alpha  occ. eigenvalues --   -0.31768  -0.31711  -0.31611  -0.31302  -0.31185
 Alpha  occ. eigenvalues --   -0.30893  -0.30870  -0.30649  -0.29482  -0.29369
 Alpha  occ. eigenvalues --   -0.29305  -0.28676  -0.27887  -0.26772  -0.25879
 Alpha  occ. eigenvalues --   -0.25423  -0.25411  -0.25183  -0.24830  -0.20992
 Alpha  occ. eigenvalues --   -0.18431
 Alpha virt. eigenvalues --   -0.10966  -0.05120  -0.03864  -0.02225  -0.00049
 Alpha virt. eigenvalues --    0.00417   0.01058   0.01407   0.01535   0.03945
 Alpha virt. eigenvalues --    0.04551   0.05061   0.05371   0.05694   0.06084

 Mulliken charges:
               1
     1  Mg   1.000302
     2  C   -0.011858
     3  C   -0.080894
     4  C   -0.059113
     5  C   -0.088116
     6  N   -0.395390
     7  C    0.004407
     8  C   -0.154519
     9  C   -0.169750
    10  C    0.133990
    11  C    0.014258
    12  C    0.044506
    13  C    0.022524
    14  C    0.181579
    15  O   -0.251876
    16  O   -0.346854
    17  N   -0.503471
    18  C    0.179221
    19  C   -0.207635
    20  C   -0.049912
    21  C    0.178957
    22  C    0.053122
    23  C    0.047517
    24  O   -0.241130
    25  C   -0.018416
    26  N   -0.455468
    27  C    0.078693
    28  C   -0.127250
    29  C   -0.123854
    30  C    0.151948
    31  C   -0.000964
    32  C   -0.010414
    33  C   -0.064120
    34  N   -0.478951
    35  C    0.121366
    36  C   -0.190669
    37  C   -0.044042
    38  C    0.188748
    39  C    0.066960
    40  C    0.155762
    41  O   -0.236622
    42  C   -0.129047
    43  C    0.273235
    44  O   -0.261288
    45  O   -0.364662
    46  C    0.115118
    47  C    0.223073
    48  C   -0.129828
    49  C   -0.150019
    50  C    0.010611
    51  C    0.011008
    52  C   -0.053382
    53  C   -0.006215
    54  C   -0.182673
    55  C   -0.014150
    56  C   -0.006455
    57  C   -0.074544
    58  C    0.035090
    59  C   -0.228580
    60  C   -0.036867
    61  C    0.013015
    62  C   -0.031567
    63  C   -0.039182
    64  C   -0.278195
    65  C   -0.010299
    66  C   -0.023668
    67  H   -0.000419
    68  H    0.019878
    69  H   -0.000196
    70  H    0.106269
    71  H    0.039350
    72  H    0.076437
    73  H    0.037873
    74  H    0.044572
    75  H    0.043846
    76  H    0.058163
    77  H    0.058450
    78  H    0.063572
    79  H    0.063979
    80  H    0.040842
    81  H    0.081856
    82  H    0.056150
    83  H    0.046979
    84  H    0.059836
    85  H    0.049148
    86  H    0.041820
    87  H    0.052667
    88  H    0.054405
    89  H    0.036581
    90  H    0.043809
    91  H    0.036117
    92  H    0.042428
    93  H    0.045370
    94  H    0.047440
    95  H    0.030691
    96  H    0.074779
    97  H    0.047606
    98  H    0.085146
    99  H    0.041868
   100  H    0.067353
   101  H    0.074713
   102  H    0.035399
   103  H    0.039302
   104  H    0.025126
   105  H    0.049604
   106  H    0.036252
   107  H    0.051622
   108  H    0.032862
   109  H    0.018245
   110  H    0.046259
   111  H    0.038134
   112  H    0.022097
   113  H    0.026159
   114  H    0.037481
   115  H    0.015996
   116  H    0.030009
   117  H    0.049211
   118  H    0.018804
   119  H    0.013930
   120  H    0.027676
   121  H    0.018246
   122  H    0.022031
   123  H    0.016346
   124  H    0.029575
   125  H    0.045822
   126  H    0.040579
   127  H    0.025375
   128  H    0.027058
   129  H    0.026454
   130  H    0.034923
   131  H    0.037111
   132  H    0.037927
   133  H    0.031903
   134  H    0.033584
   135  H    0.040382
   136  H    0.039939
   137  H    0.038048
   138  H    0.031378
   139  H    0.034388
   140  H    0.032286
 Sum of Mulliken charges =  -0.00000

 Dipole moment (field-independent basis, Debye):
    X=             -5.8494    Y=              2.5425    Z=              3.4063  Tot=              7.2307
 Quadrupole moment (field-independent basis, Debye-Ang):
   XX=           -381.2293   YY=           -420.3058   ZZ=           -404.7137
   XY=             30.2239   XZ=             19.3270   YZ=             -4.7106

 Normal termination of Gaussian 16 at Wed May  4 12:25:13 2022.
