 Gaussian 16, Revision A.03,
 Gaussian 16:  ES64L-G16RevA.03 25-Dec-2016

 --------------------------------
 #p wB97XD/Def2SVP td=(nstates=5)
 --------------------------------

 ----------------------------------------------------
 step_1701_chromophore_3 TDDFT with wB97XD functional
 ----------------------------------------------------
 Symbolic Z-matrix:
 Charge =  0 Multiplicity = 1

                         Standard orientation:
 ---------------------------------------------------------------------
 Center     Atomic      Atomic             Coordinates (Angstroms)
 Number     Number       Type             X           Y           Z
 ---------------------------------------------------------------------
      1         12           0        5.288254    1.187037    0.434113
      2          6           0        4.708434   -2.179728   -0.079386
      3          6           0        1.773190    1.678380    0.114238
      4          6           0        5.726639    4.479581   -0.104450
      5          6           0        8.667927    0.597718    0.067817
      6          7           0        3.491473   -0.126197    0.116850
      7          6           0        3.499993   -1.527531   -0.063034
      8          6           0        2.109810   -2.040202    0.037567
      9          6           0        1.223755   -0.763783   -0.239530
     10          6           0        2.214188    0.343025    0.016076
     11          6           0        0.594320   -0.822540   -1.674169
     12          6           0        1.924996   -2.708657    1.391542
     13          6           0        1.110152   -4.041806    1.304708
     14          6           0        0.125999   -4.059850    0.153914
     15          8           0        0.426215   -4.271541   -0.981723
     16          8           0       -1.116231   -3.654949    0.520044
     17          7           0        3.990995    2.803962    0.269211
     18          6           0        2.605055    2.843675    0.239444
     19          6           0        2.066093    4.251991    0.128107
     20          6           0        3.245134    5.119768   -0.069267
     21          6           0        4.377331    4.164584    0.025484
     22          6           0        0.607271    4.676706    0.061427
     23          6           0        3.287476    6.573831   -0.388687
     24          8           0        4.320878    7.215449   -0.507737
     25          6           0        2.098836    7.409936   -0.340290
     26          7           0        6.922970    2.337204    0.127081
     27          6           0        6.853569    3.664955   -0.053618
     28          6           0        8.354584    4.278815   -0.152847
     29          6           0        9.174995    3.053388    0.186003
     30          6           0        8.235600    1.881984    0.194906
     31          6           0        8.595045    4.772893   -1.594465
     32          6           0        9.968278    3.128534    1.597293
     33          6           0       11.315432    2.412125    1.518049
     34          7           0        6.513737   -0.465811    0.249063
     35          6           0        7.859688   -0.530665    0.033321
     36          6           0        8.231793   -1.959746   -0.049768
     37          6           0        6.988112   -2.651691   -0.095301
     38          6           0        6.006505   -1.687897    0.003581
     39          6           0        9.629776   -2.593014   -0.255578
     40          6           0        6.408397   -3.963050   -0.277531
     41          8           0        6.878680   -5.085539   -0.548090
     42          6           0        4.922705   -3.741155   -0.050084
     43          6           0        4.116591   -4.479337   -1.054186
     44          8           0        3.837191   -4.122019   -2.194778
     45          8           0        3.919604   -5.736502   -0.554339
     46          6           0        3.110354   -6.592586   -1.487688
     47          6           0       -2.113150   -3.550305   -0.480382
     48          6           0       -3.404719   -3.164683    0.227091
     49          6           0       -4.598870   -3.659106   -0.057402
     50          6           0       -4.935605   -4.533599   -1.269957
     51          6           0       -5.649717   -3.259135    0.808501
     52          6           0       -6.935598   -2.460582    0.436476
     53          6           0       -7.102472   -1.203683    1.437267
     54          6           0       -8.383775   -1.334715    2.316266
     55          6           0       -7.971007   -1.517990    3.839768
     56          6           0       -9.387074   -0.181701    2.167976
     57          6           0      -10.826714   -0.419752    1.666877
     58          6           0      -10.958693   -0.652192    0.192014
     59          6           0      -12.342999   -0.275369   -0.391175
     60          6           0      -12.715933   -1.458013   -1.411562
     61          6           0      -12.505035    1.108395   -0.992631
     62          6           0      -13.982160    1.607260   -1.256572
     63          6           0      -14.390129    2.754176   -0.235886
     64          6           0      -14.791119    4.037296   -0.990485
     65          6           0      -14.874504    5.216670    0.042123
     66          6           0      -16.089693    3.894123   -1.832999
     67          1           0        0.696692    1.859345    0.065987
     68          1           0        6.012678    5.521451   -0.266177
     69          1           0        9.731046    0.349310    0.062464
     70          1           0        2.032384   -2.678164   -0.842812
     71          1           0        0.363724   -0.755477    0.430904
     72          1           0        0.846104   -1.748551   -2.190336
     73          1           0        1.036248   -0.006762   -2.247365
     74          1           0       -0.462426   -0.591517   -1.541992
     75          1           0        1.334256   -2.119480    2.093093
     76          1           0        2.917195   -2.831584    1.826324
     77          1           0        0.537772   -4.251037    2.209500
     78          1           0        1.865834   -4.779151    1.037675
     79          1           0        0.337953    5.509474    0.710668
     80          1           0        0.077718    3.857771    0.548666
     81          1           0        0.378385    4.688950   -1.003815
     82          1           0        1.423570    7.056986   -1.120361
     83          1           0        2.273575    8.483212   -0.419167
     84          1           0        1.658849    7.456063    0.655698
     85          1           0        8.418792    5.109699    0.549869
     86          1           0        9.909077    2.864227   -0.597600
     87          1           0        8.212114    5.787483   -1.702341
     88          1           0        8.233139    4.199436   -2.447702
     89          1           0        9.677778    4.812191   -1.718583
     90          1           0        9.397201    2.683081    2.411629
     91          1           0       10.007025    4.200757    1.782959
     92          1           0       11.439455    1.957343    0.534849
     93          1           0       11.431399    1.606212    2.242169
     94          1           0       12.108787    3.143438    1.674342
     95          1           0       10.360965   -1.901049    0.162197
     96          1           0        9.783472   -2.967131   -1.267997
     97          1           0        9.767146   -3.470593    0.376553
     98          1           0        4.691048   -4.190630    0.916103
     99          1           0        2.787445   -7.394061   -0.823717
    100          1           0        3.603188   -7.060177   -2.339530
    101          1           0        2.201794   -6.111593   -1.850669
    102          1           0       -2.131720   -4.444899   -1.102430
    103          1           0       -1.777147   -2.836126   -1.232381
    104          1           0       -3.227557   -2.572095    1.125280
    105          1           0       -5.369016   -5.485010   -0.962440
    106          1           0       -4.190264   -4.830731   -2.007850
    107          1           0       -5.631389   -3.958098   -1.879895
    108          1           0       -5.312069   -2.971722    1.804849
    109          1           0       -6.117111   -4.227944    0.984127
    110          1           0       -7.829061   -3.083631    0.377745
    111          1           0       -6.721432   -1.930165   -0.491132
    112          1           0       -7.209483   -0.296273    0.843640
    113          1           0       -6.177259   -1.005146    1.978043
    114          1           0       -8.891405   -2.257274    2.034969
    115          1           0       -8.210920   -2.569283    3.997956
    116          1           0       -8.745122   -1.051980    4.449485
    117          1           0       -6.947295   -1.475309    4.210715
    118          1           0       -9.098888    0.664723    1.544918
    119          1           0       -9.479233    0.299265    3.141581
    120          1           0      -11.493751    0.371552    2.008378
    121          1           0      -11.170553   -1.296819    2.214088
    122          1           0      -10.805307   -1.719163    0.031218
    123          1           0      -10.158316   -0.131142   -0.332484
    124          1           0      -13.032518   -0.378910    0.446594
    125          1           0      -13.616031   -1.920830   -1.007619
    126          1           0      -11.975601   -2.209503   -1.685322
    127          1           0      -12.868073   -0.944161   -2.360506
    128          1           0      -11.951147    1.105090   -1.931125
    129          1           0      -12.114409    1.859139   -0.304661
    130          1           0      -14.634658    0.738483   -1.172746
    131          1           0      -14.099375    2.076606   -2.233399
    132          1           0      -13.605753    3.039954    0.465579
    133          1           0      -15.317481    2.531627    0.291243
    134          1           0      -14.012139    4.199975   -1.735171
    135          1           0      -13.899600    5.703918    0.020098
    136          1           0      -15.033004    4.773382    1.025621
    137          1           0      -15.646792    5.940588   -0.215791
    138          1           0      -16.034551    4.145425   -2.892106
    139          1           0      -16.859656    4.545478   -1.421677
    140          1           0      -16.394598    2.849351   -1.904125
 ---------------------------------------------------------------------

 SCF Done:  E(RwB97XD) =  -3007.85112551     A.U. after   19 cycles

 Excitation energies and oscillator strengths:

 Excited State   1:      Singlet-A      1.6823 eV  737.01 nm  f=0.3919  <S**2>=0.000
     245 -> 248        0.16648
     246 -> 247        0.68567
     245 <- 248        0.10606
 This state for optimization and/or second-order correction.
 Total Energy, E(TD-HF/TD-DFT) =  -3007.78930370
 Copying the excited state density for this state as the 1-particle RhoCI density.

 Excited State   2:      Singlet-A      2.2269 eV  556.76 nm  f=0.0974  <S**2>=0.000
     245 -> 247        0.63035
     246 -> 248       -0.29393

 Excited State   3:      Singlet-A      3.4222 eV  362.30 nm  f=0.1532  <S**2>=0.000
     240 -> 249        0.10436
     241 -> 247        0.48653
     243 -> 247       -0.11105
     244 -> 247       -0.25114
     245 -> 247        0.12665
     246 -> 248        0.34469

 Excited State   4:      Singlet-A      3.4791 eV  356.37 nm  f=0.0709  <S**2>=0.000
     239 -> 247       -0.12359
     240 -> 247        0.49015
     240 -> 248       -0.18731
     240 -> 249        0.28634
     240 -> 250        0.16006
     246 -> 248       -0.20383

 Excited State   5:      Singlet-A      3.5128 eV  352.95 nm  f=0.1701  <S**2>=0.000
     243 -> 247        0.12911
     244 -> 247        0.52461
     244 -> 249       -0.10226
     245 -> 247        0.14913
     246 -> 248        0.37059

 The electronic state is 1-A.
 Alpha  occ. eigenvalues --  -46.93884 -19.30375 -19.29606 -19.25171 -19.23808
 Alpha  occ. eigenvalues --  -19.23581 -19.22829 -14.46390 -14.46161 -14.45117
 Alpha  occ. eigenvalues --  -14.42920 -10.43007 -10.41734 -10.39015 -10.37997
 Alpha  occ. eigenvalues --  -10.35835 -10.35524 -10.35420 -10.35155 -10.35150
 Alpha  occ. eigenvalues --  -10.35065 -10.33937 -10.33836 -10.33687 -10.32764
 Alpha  occ. eigenvalues --  -10.32454 -10.32111 -10.31803 -10.31507 -10.31493
 Alpha  occ. eigenvalues --  -10.31476 -10.31382 -10.31352 -10.31332 -10.31281
 Alpha  occ. eigenvalues --  -10.31117 -10.31075 -10.30715 -10.30620 -10.30616
 Alpha  occ. eigenvalues --  -10.30532 -10.30375 -10.30285 -10.29906 -10.29872
 Alpha  occ. eigenvalues --  -10.29817 -10.29759 -10.29705 -10.29575 -10.29561
 Alpha  occ. eigenvalues --  -10.29537 -10.29448 -10.29345 -10.29322 -10.29231
 Alpha  occ. eigenvalues --  -10.29167 -10.29124 -10.29060 -10.28685 -10.28594
 Alpha  occ. eigenvalues --  -10.28541 -10.28508 -10.28491 -10.28348 -10.28249
 Alpha  occ. eigenvalues --  -10.27896  -3.20040  -1.93625  -1.93149  -1.93043
 Alpha  occ. eigenvalues --   -1.20577  -1.16998  -1.12799  -1.11905  -1.09645
 Alpha  occ. eigenvalues --   -1.08301  -1.05748  -1.04858  -1.04432  -1.03102
 Alpha  occ. eigenvalues --   -0.94325  -0.93595  -0.91811  -0.91551  -0.90785
 Alpha  occ. eigenvalues --   -0.90563  -0.89806  -0.89448  -0.89305  -0.88973
 Alpha  occ. eigenvalues --   -0.87609  -0.86935  -0.86130  -0.85355  -0.85273
 Alpha  occ. eigenvalues --   -0.84547  -0.84403  -0.83155  -0.82539  -0.82147
 Alpha  occ. eigenvalues --   -0.81621  -0.80795  -0.79662  -0.78887  -0.78743
 Alpha  occ. eigenvalues --   -0.77508  -0.77223  -0.76606  -0.76501  -0.76306
 Alpha  occ. eigenvalues --   -0.75692  -0.74077  -0.73313  -0.72687  -0.70841
 Alpha  occ. eigenvalues --   -0.70618  -0.70559  -0.69606  -0.69468  -0.67716
 Alpha  occ. eigenvalues --   -0.67372  -0.67273  -0.66740  -0.66388  -0.65734
 Alpha  occ. eigenvalues --   -0.65448  -0.65159  -0.64361  -0.62953  -0.62511
 Alpha  occ. eigenvalues --   -0.62309  -0.61534  -0.60898  -0.60225  -0.59501
 Alpha  occ. eigenvalues --   -0.58971  -0.58508  -0.58254  -0.57743  -0.57625
 Alpha  occ. eigenvalues --   -0.57120  -0.56931  -0.56798  -0.56162  -0.56032
 Alpha  occ. eigenvalues --   -0.55640  -0.55563  -0.55104  -0.54749  -0.54618
 Alpha  occ. eigenvalues --   -0.54540  -0.54319  -0.54116  -0.53899  -0.53715
 Alpha  occ. eigenvalues --   -0.53486  -0.53260  -0.53126  -0.52510  -0.52435
 Alpha  occ. eigenvalues --   -0.52395  -0.51964  -0.51891  -0.51853  -0.51658
 Alpha  occ. eigenvalues --   -0.51425  -0.51004  -0.50913  -0.50707  -0.50497
 Alpha  occ. eigenvalues --   -0.50315  -0.50217  -0.49960  -0.49672  -0.49589
 Alpha  occ. eigenvalues --   -0.49298  -0.49135  -0.48841  -0.48687  -0.48542
 Alpha  occ. eigenvalues --   -0.48329  -0.48194  -0.48114  -0.47608  -0.47366
 Alpha  occ. eigenvalues --   -0.47203  -0.47051  -0.46796  -0.46728  -0.46426
 Alpha  occ. eigenvalues --   -0.46127  -0.45795  -0.45725  -0.45589  -0.45515
 Alpha  occ. eigenvalues --   -0.45122  -0.45041  -0.44938  -0.44892  -0.44572
 Alpha  occ. eigenvalues --   -0.44447  -0.44316  -0.44008  -0.43942  -0.43835
 Alpha  occ. eigenvalues --   -0.43599  -0.43519  -0.43393  -0.43317  -0.43266
 Alpha  occ. eigenvalues --   -0.43165  -0.42839  -0.42562  -0.42387  -0.42179
 Alpha  occ. eigenvalues --   -0.41999  -0.41630  -0.41345  -0.41219  -0.40576
 Alpha  occ. eigenvalues --   -0.40281  -0.40001  -0.39662  -0.39599  -0.39301
 Alpha  occ. eigenvalues --   -0.38793  -0.38670  -0.38612  -0.38222  -0.38131
 Alpha  occ. eigenvalues --   -0.37916  -0.37832  -0.37622  -0.36472  -0.36286
 Alpha  occ. eigenvalues --   -0.36098  -0.35422  -0.34801  -0.33420  -0.33059
 Alpha  occ. eigenvalues --   -0.32653  -0.32116  -0.31931  -0.31040  -0.26109
 Alpha  occ. eigenvalues --   -0.22629
 Alpha virt. eigenvalues --   -0.06795   0.00386   0.02310   0.04284   0.05859
 Alpha virt. eigenvalues --    0.07234   0.07842   0.08182   0.08299   0.10159
 Alpha virt. eigenvalues --    0.11087   0.11869   0.12133   0.12418   0.12725

 Mulliken charges:
               1
     1  Mg   0.987498
     2  C   -0.008650
     3  C   -0.103970
     4  C   -0.081578
     5  C   -0.099309
     6  N   -0.362911
     7  C   -0.029925
     8  C   -0.112159
     9  C   -0.149706
    10  C    0.123968
    11  C    0.022300
    12  C    0.048640
    13  C    0.049529
    14  C    0.163655
    15  O   -0.245727
    16  O   -0.343563
    17  N   -0.476700
    18  C    0.178552
    19  C   -0.198281
    20  C   -0.049304
    21  C    0.183350
    22  C    0.067367
    23  C    0.048296
    24  O   -0.233120
    25  C   -0.009750
    26  N   -0.420521
    27  C    0.068094
    28  C   -0.099377
    29  C   -0.092396
    30  C    0.136051
    31  C    0.005512
    32  C    0.001114
    33  C   -0.047669
    34  N   -0.440706
    35  C    0.108909
    36  C   -0.197013
    37  C   -0.040355
    38  C    0.171554
    39  C    0.080004
    40  C    0.136976
    41  O   -0.229093
    42  C   -0.091708
    43  C    0.249275
    44  O   -0.254935
    45  O   -0.362699
    46  C    0.132033
    47  C    0.236842
    48  C   -0.136790
    49  C   -0.135452
    50  C    0.021946
    51  C    0.031662
    52  C   -0.036862
    53  C    0.007141
    54  C   -0.155917
    55  C   -0.000887
    56  C    0.009621
    57  C   -0.054758
    58  C    0.048672
    59  C   -0.200322
    60  C   -0.024194
    61  C    0.032271
    62  C   -0.018282
    63  C   -0.021068
    64  C   -0.246677
    65  C    0.003528
    66  C   -0.015091
    67  H   -0.005574
    68  H    0.015306
    69  H   -0.010996
    70  H    0.081197
    71  H    0.030564
    72  H    0.074082
    73  H    0.031725
    74  H    0.039287
    75  H    0.035998
    76  H    0.049046
    77  H    0.054506
    78  H    0.049952
    79  H    0.061595
    80  H    0.036697
    81  H    0.079682
    82  H    0.051400
    83  H    0.047367
    84  H    0.055695
    85  H    0.041598
    86  H    0.028139
    87  H    0.047222
    88  H    0.050268
    89  H    0.030860
    90  H    0.035825
    91  H    0.026236
    92  H    0.034483
    93  H    0.040465
    94  H    0.041930
    95  H    0.023053
    96  H    0.068789
    97  H    0.041014
    98  H    0.076131
    99  H    0.038045
   100  H    0.064118
   101  H    0.068199
   102  H    0.029004
   103  H    0.030502
   104  H    0.022796
   105  H    0.044931
   106  H    0.032294
   107  H    0.045186
   108  H    0.023299
   109  H    0.007292
   110  H    0.039883
   111  H    0.028753
   112  H    0.012973
   113  H    0.017174
   114  H    0.022409
   115  H    0.009244
   116  H    0.023086
   117  H    0.044763
   118  H    0.008060
   119  H    0.005313
   120  H    0.019224
   121  H    0.008720
   122  H    0.011487
   123  H    0.006260
   124  H    0.015595
   125  H    0.040861
   126  H    0.035484
   127  H    0.017642
   128  H    0.018601
   129  H    0.014113
   130  H    0.026720
   131  H    0.027646
   132  H    0.027672
   133  H    0.021518
   134  H    0.020464
   135  H    0.034389
   136  H    0.033086
   137  H    0.032565
   138  H    0.026488
   139  H    0.028309
   140  H    0.025353
 Sum of Mulliken charges =  -0.00000

 Dipole moment (field-independent basis, Debye):
    X=             -6.5453    Y=              3.4315    Z=              3.4230  Tot=              8.1445
 Quadrupole moment (field-independent basis, Debye-Ang):
   XX=           -388.8003   YY=           -416.7020   ZZ=           -404.4320
   XY=             33.0727   XZ=             19.3667   YZ=             -4.9765

 Normal termination of Gaussian 16 at Wed May  4 12:50:09 2022.
