 Gaussian 16, Revision A.03,
 Gaussian 16:  ES64L-G16RevA.03 25-Dec-2016

 --------------------
 #p ZINDO=(nstates=5)
 --------------------

 -----------------------------
 step_1701_chromophore_3 ZINDO
 -----------------------------
 Symbolic Z-matrix:
 Charge =  0 Multiplicity = 1

                         Standard orientation:
 ---------------------------------------------------------------------
 Center     Atomic      Atomic             Coordinates (Angstroms)
 Number     Number       Type             X           Y           Z
 ---------------------------------------------------------------------
      1         12           0        5.288254    1.187037    0.434113
      2          6           0        4.708434   -2.179728   -0.079386
      3          6           0        1.773190    1.678380    0.114238
      4          6           0        5.726639    4.479581   -0.104450
      5          6           0        8.667927    0.597718    0.067817
      6          7           0        3.491473   -0.126197    0.116850
      7          6           0        3.499993   -1.527531   -0.063034
      8          6           0        2.109810   -2.040202    0.037567
      9          6           0        1.223755   -0.763783   -0.239530
     10          6           0        2.214188    0.343025    0.016076
     11          6           0        0.594320   -0.822540   -1.674169
     12          6           0        1.924996   -2.708657    1.391542
     13          6           0        1.110152   -4.041806    1.304708
     14          6           0        0.125999   -4.059850    0.153914
     15          8           0        0.426215   -4.271541   -0.981723
     16          8           0       -1.116231   -3.654949    0.520044
     17          7           0        3.990995    2.803962    0.269211
     18          6           0        2.605055    2.843675    0.239444
     19          6           0        2.066093    4.251991    0.128107
     20          6           0        3.245134    5.119768   -0.069267
     21          6           0        4.377331    4.164584    0.025484
     22          6           0        0.607271    4.676706    0.061427
     23          6           0        3.287476    6.573831   -0.388687
     24          8           0        4.320878    7.215449   -0.507737
     25          6           0        2.098836    7.409936   -0.340290
     26          7           0        6.922970    2.337204    0.127081
     27          6           0        6.853569    3.664955   -0.053618
     28          6           0        8.354584    4.278815   -0.152847
     29          6           0        9.174995    3.053388    0.186003
     30          6           0        8.235600    1.881984    0.194906
     31          6           0        8.595045    4.772893   -1.594465
     32          6           0        9.968278    3.128534    1.597293
     33          6           0       11.315432    2.412125    1.518049
     34          7           0        6.513737   -0.465811    0.249063
     35          6           0        7.859688   -0.530665    0.033321
     36          6           0        8.231793   -1.959746   -0.049768
     37          6           0        6.988112   -2.651691   -0.095301
     38          6           0        6.006505   -1.687897    0.003581
     39          6           0        9.629776   -2.593014   -0.255578
     40          6           0        6.408397   -3.963050   -0.277531
     41          8           0        6.878680   -5.085539   -0.548090
     42          6           0        4.922705   -3.741155   -0.050084
     43          6           0        4.116591   -4.479337   -1.054186
     44          8           0        3.837191   -4.122019   -2.194778
     45          8           0        3.919604   -5.736502   -0.554339
     46          6           0        3.110354   -6.592586   -1.487688
     47          6           0       -2.113150   -3.550305   -0.480382
     48          6           0       -3.404719   -3.164683    0.227091
     49          6           0       -4.598870   -3.659106   -0.057402
     50          6           0       -4.935605   -4.533599   -1.269957
     51          6           0       -5.649717   -3.259135    0.808501
     52          6           0       -6.935598   -2.460582    0.436476
     53          6           0       -7.102472   -1.203683    1.437267
     54          6           0       -8.383775   -1.334715    2.316266
     55          6           0       -7.971007   -1.517990    3.839768
     56          6           0       -9.387074   -0.181701    2.167976
     57          6           0      -10.826714   -0.419752    1.666877
     58          6           0      -10.958693   -0.652192    0.192014
     59          6           0      -12.342999   -0.275369   -0.391175
     60          6           0      -12.715933   -1.458013   -1.411562
     61          6           0      -12.505035    1.108395   -0.992631
     62          6           0      -13.982160    1.607260   -1.256572
     63          6           0      -14.390129    2.754176   -0.235886
     64          6           0      -14.791119    4.037296   -0.990485
     65          6           0      -14.874504    5.216670    0.042123
     66          6           0      -16.089693    3.894123   -1.832999
     67          1           0        0.696692    1.859345    0.065987
     68          1           0        6.012678    5.521451   -0.266177
     69          1           0        9.731046    0.349310    0.062464
     70          1           0        2.032384   -2.678164   -0.842812
     71          1           0        0.363724   -0.755477    0.430904
     72          1           0        0.846104   -1.748551   -2.190336
     73          1           0        1.036248   -0.006762   -2.247365
     74          1           0       -0.462426   -0.591517   -1.541992
     75          1           0        1.334256   -2.119480    2.093093
     76          1           0        2.917195   -2.831584    1.826324
     77          1           0        0.537772   -4.251037    2.209500
     78          1           0        1.865834   -4.779151    1.037675
     79          1           0        0.337953    5.509474    0.710668
     80          1           0        0.077718    3.857771    0.548666
     81          1           0        0.378385    4.688950   -1.003815
     82          1           0        1.423570    7.056986   -1.120361
     83          1           0        2.273575    8.483212   -0.419167
     84          1           0        1.658849    7.456063    0.655698
     85          1           0        8.418792    5.109699    0.549869
     86          1           0        9.909077    2.864227   -0.597600
     87          1           0        8.212114    5.787483   -1.702341
     88          1           0        8.233139    4.199436   -2.447702
     89          1           0        9.677778    4.812191   -1.718583
     90          1           0        9.397201    2.683081    2.411629
     91          1           0       10.007025    4.200757    1.782959
     92          1           0       11.439455    1.957343    0.534849
     93          1           0       11.431399    1.606212    2.242169
     94          1           0       12.108787    3.143438    1.674342
     95          1           0       10.360965   -1.901049    0.162197
     96          1           0        9.783472   -2.967131   -1.267997
     97          1           0        9.767146   -3.470593    0.376553
     98          1           0        4.691048   -4.190630    0.916103
     99          1           0        2.787445   -7.394061   -0.823717
    100          1           0        3.603188   -7.060177   -2.339530
    101          1           0        2.201794   -6.111593   -1.850669
    102          1           0       -2.131720   -4.444899   -1.102430
    103          1           0       -1.777147   -2.836126   -1.232381
    104          1           0       -3.227557   -2.572095    1.125280
    105          1           0       -5.369016   -5.485010   -0.962440
    106          1           0       -4.190264   -4.830731   -2.007850
    107          1           0       -5.631389   -3.958098   -1.879895
    108          1           0       -5.312069   -2.971722    1.804849
    109          1           0       -6.117111   -4.227944    0.984127
    110          1           0       -7.829061   -3.083631    0.377745
    111          1           0       -6.721432   -1.930165   -0.491132
    112          1           0       -7.209483   -0.296273    0.843640
    113          1           0       -6.177259   -1.005146    1.978043
    114          1           0       -8.891405   -2.257274    2.034969
    115          1           0       -8.210920   -2.569283    3.997956
    116          1           0       -8.745122   -1.051980    4.449485
    117          1           0       -6.947295   -1.475309    4.210715
    118          1           0       -9.098888    0.664723    1.544918
    119          1           0       -9.479233    0.299265    3.141581
    120          1           0      -11.493751    0.371552    2.008378
    121          1           0      -11.170553   -1.296819    2.214088
    122          1           0      -10.805307   -1.719163    0.031218
    123          1           0      -10.158316   -0.131142   -0.332484
    124          1           0      -13.032518   -0.378910    0.446594
    125          1           0      -13.616031   -1.920830   -1.007619
    126          1           0      -11.975601   -2.209503   -1.685322
    127          1           0      -12.868073   -0.944161   -2.360506
    128          1           0      -11.951147    1.105090   -1.931125
    129          1           0      -12.114409    1.859139   -0.304661
    130          1           0      -14.634658    0.738483   -1.172746
    131          1           0      -14.099375    2.076606   -2.233399
    132          1           0      -13.605753    3.039954    0.465579
    133          1           0      -15.317481    2.531627    0.291243
    134          1           0      -14.012139    4.199975   -1.735171
    135          1           0      -13.899600    5.703918    0.020098
    136          1           0      -15.033004    4.773382    1.025621
    137          1           0      -15.646792    5.940588   -0.215791
    138          1           0      -16.034551    4.145425   -2.892106
    139          1           0      -16.859656    4.545478   -1.421677
    140          1           0      -16.394598    2.849351   -1.904125
 ---------------------------------------------------------------------

 SCF Done:  E(RZINDO/S) =  -474.342063387     A.U. after   19 cycles

 Excitation energies and oscillator strengths:

 Excited State   1:      Singlet-A      1.2721 eV  974.63 nm  f=0.5793  <S**2>=0.000
     175 ->178         0.15539
     176 ->177         0.67152
 This state for optimization and/or second-order correction.
 Total Energy, E(CIS/TDA) =  -474.295314208
 Copying the excited state density for this state as the 1-particle RhoCI density.

 Excited State   2:      Singlet-A      1.9752 eV  627.71 nm  f=0.0209  <S**2>=0.000
     175 ->177         0.51493
     176 ->178        -0.44117
     176 ->179         0.10985

 Excited State   3:      Singlet-A      2.7563 eV  449.83 nm  f=0.0005  <S**2>=0.000
     168 ->177         0.33974
     168 ->178        -0.24002
     168 ->179        -0.41257
     168 ->180         0.19188
     168 ->186        -0.21510
     168 ->187        -0.13226

 Excited State   4:      Singlet-A      2.9513 eV  420.10 nm  f=0.3798  <S**2>=0.000
     175 ->177         0.23329
     176 ->178         0.39695
     176 ->179         0.45156
     176 ->180         0.17166

 Excited State   5:      Singlet-A      2.9799 eV  416.06 nm  f=0.7744  <S**2>=0.000
     175 ->177        -0.35662
     176 ->178        -0.34477
     176 ->179         0.37365
     176 ->180         0.26903

 The electronic state is 1-A.
 Alpha  occ. eigenvalues --   -1.84777  -1.81423  -1.78692  -1.76004  -1.71345
 Alpha  occ. eigenvalues --   -1.69267  -1.64614  -1.61623  -1.60773  -1.57142
 Alpha  occ. eigenvalues --   -1.56690  -1.52830  -1.50324  -1.46593  -1.46492
 Alpha  occ. eigenvalues --   -1.42857  -1.42233  -1.39475  -1.38957  -1.38795
 Alpha  occ. eigenvalues --   -1.36229  -1.33008  -1.31906  -1.30360  -1.28924
 Alpha  occ. eigenvalues --   -1.26941  -1.25115  -1.22494  -1.20961  -1.18212
 Alpha  occ. eigenvalues --   -1.17062  -1.16732  -1.16518  -1.15068  -1.12237
 Alpha  occ. eigenvalues --   -1.11691  -1.11364  -1.11114  -1.05086  -1.03873
 Alpha  occ. eigenvalues --   -1.02820  -1.00853  -0.98938  -0.97655  -0.97110
 Alpha  occ. eigenvalues --   -0.96253  -0.95030  -0.94332  -0.92647  -0.91233
 Alpha  occ. eigenvalues --   -0.91046  -0.90322  -0.88776  -0.88150  -0.87338
 Alpha  occ. eigenvalues --   -0.86750  -0.86204  -0.82263  -0.82115  -0.81168
 Alpha  occ. eigenvalues --   -0.79965  -0.78936  -0.78395  -0.76947  -0.76153
 Alpha  occ. eigenvalues --   -0.75296  -0.74585  -0.74386  -0.73990  -0.72747
 Alpha  occ. eigenvalues --   -0.71902  -0.71765  -0.71635  -0.71309  -0.70511
 Alpha  occ. eigenvalues --   -0.69412  -0.69082  -0.68703  -0.68556  -0.68001
 Alpha  occ. eigenvalues --   -0.67734  -0.67615  -0.66784  -0.66454  -0.66077
 Alpha  occ. eigenvalues --   -0.65314  -0.65059  -0.64480  -0.64081  -0.63538
 Alpha  occ. eigenvalues --   -0.62833  -0.62584  -0.62111  -0.61959  -0.61518
 Alpha  occ. eigenvalues --   -0.61424  -0.61284  -0.60447  -0.60157  -0.59949
 Alpha  occ. eigenvalues --   -0.59560  -0.58957  -0.58445  -0.58353  -0.58030
 Alpha  occ. eigenvalues --   -0.57787  -0.57342  -0.56975  -0.56724  -0.56573
 Alpha  occ. eigenvalues --   -0.55990  -0.55550  -0.54904  -0.54834  -0.54516
 Alpha  occ. eigenvalues --   -0.53637  -0.53543  -0.52909  -0.52833  -0.52481
 Alpha  occ. eigenvalues --   -0.52379  -0.51971  -0.51714  -0.51663  -0.51400
 Alpha  occ. eigenvalues --   -0.50971  -0.50834  -0.50549  -0.50188  -0.50124
 Alpha  occ. eigenvalues --   -0.49916  -0.49616  -0.49258  -0.49140  -0.48865
 Alpha  occ. eigenvalues --   -0.48760  -0.48533  -0.48349  -0.48031  -0.47736
 Alpha  occ. eigenvalues --   -0.47354  -0.47093  -0.46577  -0.46376  -0.46148
 Alpha  occ. eigenvalues --   -0.46003  -0.45573  -0.45465  -0.45007  -0.44974
 Alpha  occ. eigenvalues --   -0.44917  -0.44507  -0.44224  -0.44012  -0.43837
 Alpha  occ. eigenvalues --   -0.43543  -0.43390  -0.42965  -0.42342  -0.41991
 Alpha  occ. eigenvalues --   -0.41949  -0.41275  -0.40390  -0.38742  -0.38286
 Alpha  occ. eigenvalues --   -0.37177  -0.36681  -0.35643  -0.34696  -0.34043
 Alpha  occ. eigenvalues --   -0.33744  -0.32853  -0.32298  -0.31199  -0.26974
 Alpha  occ. eigenvalues --   -0.21421
 Alpha virt. eigenvalues --   -0.08255  -0.01905  -0.00716   0.01363   0.02347
 Alpha virt. eigenvalues --    0.02535   0.02837   0.03643   0.04658   0.05007
 Alpha virt. eigenvalues --    0.06066   0.06720   0.07332   0.08318   0.08800

 Mulliken charges:
               1
     1  Mg   0.423170
     2  C   -0.041934
     3  C   -0.100187
     4  C   -0.064245
     5  C   -0.048828
     6  N   -0.301437
     7  C    0.103877
     8  C    0.004212
     9  C   -0.001621
    10  C    0.180814
    11  C   -0.052013
    12  C   -0.012547
    13  C   -0.001952
    14  C    0.469873
    15  O   -0.515567
    16  O   -0.275853
    17  N   -0.342436
    18  C    0.143408
    19  C    0.020894
    20  C   -0.048375
    21  C    0.149868
    22  C   -0.041095
    23  C    0.341726
    24  O   -0.521552
    25  C   -0.025144
    26  N   -0.262060
    27  C    0.160678
    28  C    0.006123
    29  C    0.000120
    30  C    0.091092
    31  C   -0.048846
    32  C   -0.033040
    33  C   -0.054609
    34  N   -0.318415
    35  C    0.070476
    36  C   -0.012975
    37  C   -0.060734
    38  C    0.115880
    39  C   -0.044185
    40  C    0.339371
    41  O   -0.538137
    42  C    0.047711
    43  C    0.486946
    44  O   -0.523480
    45  O   -0.261987
    46  C    0.070727
    47  C    0.098778
    48  C   -0.097537
    49  C    0.025082
    50  C   -0.044478
    51  C   -0.022755
    52  C   -0.036219
    53  C   -0.042106
    54  C    0.000112
    55  C   -0.075432
    56  C   -0.038014
    57  C   -0.031491
    58  C   -0.028584
    59  C   -0.012272
    60  C   -0.070323
    61  C   -0.029411
    62  C   -0.044725
    63  C   -0.039047
    64  C   -0.016897
    65  C   -0.060612
    66  C   -0.061959
    67  H    0.028010
    68  H    0.040208
    69  H    0.027827
    70  H    0.060134
    71  H    0.025703
    72  H    0.048625
    73  H    0.016901
    74  H    0.021151
    75  H    0.020067
    76  H    0.031686
    77  H    0.036278
    78  H    0.044739
    79  H    0.042967
    80  H    0.018023
    81  H    0.050532
    82  H    0.033260
    83  H    0.035730
    84  H    0.036590
    85  H    0.039530
    86  H    0.027837
    87  H    0.019134
    88  H    0.032304
    89  H    0.011791
    90  H    0.025265
    91  H    0.019724
    92  H    0.021559
    93  H    0.021773
    94  H    0.017845
    95  H    0.018920
    96  H    0.044221
    97  H    0.024790
    98  H    0.055400
    99  H    0.015602
   100  H    0.053884
   101  H    0.050465
   102  H    0.046419
   103  H    0.039976
   104  H    0.033086
   105  H    0.027723
   106  H    0.026249
   107  H    0.024107
   108  H    0.024407
   109  H    0.010383
   110  H    0.038048
   111  H    0.017183
   112  H    0.010801
   113  H    0.026226
   114  H    0.024975
   115  H    0.001367
   116  H    0.024322
   117  H    0.039037
   118  H    0.013736
   119  H    0.007841
   120  H    0.017883
   121  H    0.008794
   122  H    0.016239
   123  H    0.017414
   124  H    0.016316
   125  H    0.022257
   126  H    0.026143
   127  H    0.013328
   128  H    0.019256
   129  H    0.017897
   130  H    0.023408
   131  H    0.026355
   132  H    0.025380
   133  H    0.019656
   134  H    0.015686
   135  H    0.015647
   136  H    0.023212
   137  H    0.023161
   138  H    0.015154
   139  H    0.020189
   140  H    0.016444
 Sum of Mulliken charges =  -0.00000

 Dipole moment (field-independent basis, Debye):
    X=             -9.7879    Y=              5.5799    Z=              5.2067  Tot=             12.4116
 N-N= 4.290090909135D+03 E-N= 0.000000000000D+00  KE=-9.254984037828D+03
 Leave Link  601 at Wed May  4 13:02:10 2022, MaxMem=  6710886400 cpu:               1.1 elap:               0.1
 (Enter /sw/apps/gaussian-16.0/g16/l9999.exe)
 1\1\GINC-BP1-COMPUTE100\SP\RZINDO CIS\STO-3G\C55H74Mg1N4O6\OF15641\04-
 May-2022\0\\#p ZINDO=(nstates=5)\\step_1701_chromophore_3 ZINDO\\0,1\M
 g,0,0.995,7.755,25.901\C,0,1.835,9.843,28.522\C,0,1.524,5.018,28.121\C
 ,0,1.217,5.611,23.317\C,0,1.166,10.463,23.77\N,0,1.552,7.509,28.065\C,
 0,1.85,8.547,28.976\C,0,1.894,7.99,30.352\C,0,2.124,6.446,30.119\C,0,1
 .704,6.3,28.679\C,0,3.6,6.044,30.462\C,0,0.619,8.379,31.085\C,0,0.878,
 8.813,32.566\C,0,2.094,8.146,33.174\O,0,3.219,8.488,32.969\O,0,1.785,7

 Normal termination of Gaussian 16 at Wed May  4 13:02:10 2022.
