 Gaussian 16, Revision A.03,
 Gaussian 16:  ES64L-G16RevA.03 25-Dec-2016

 ------------------------------
 #p blyp/Def2SVP td=(nstates=5)
 ------------------------------

 -------------------------------------------------
 step_451_chromophore_8 TDDFT with blyp functional
 -------------------------------------------------
 Symbolic Z-matrix:
 Charge =  0 Multiplicity = 1

                         Standard orientation:
 ---------------------------------------------------------------------
 Center     Atomic      Atomic             Coordinates (Angstroms)
 Number     Number       Type             X           Y           Z
 ---------------------------------------------------------------------
      1         12           0       -4.522410   -0.992550    0.226875
      2          6           0       -3.568386    2.247496    1.046853
      3          6           0       -4.394631   -0.025203   -3.116388
      4          6           0       -4.544614   -4.348693   -0.658079
      5          6           0       -3.634713   -1.912270    3.401331
      6          7           0       -3.867492    0.957017   -0.958973
      7          6           0       -3.584813    2.115790   -0.364309
      8          6           0       -3.241357    3.212353   -1.417649
      9          6           0       -3.760574    2.509085   -2.759741
     10          6           0       -4.036153    1.050099   -2.299453
     11          6           0       -4.938012    3.300585   -3.283714
     12          6           0       -1.761404    3.698139   -1.321569
     13          6           0       -1.506655    5.214169   -1.263689
     14          6           0       -0.091699    5.545536   -1.543137
     15          8           0        0.310341    6.411113   -2.351350
     16          8           0        0.710635    4.760094   -0.699644
     17          7           0       -4.711884   -2.063551   -1.632160
     18          6           0       -4.622124   -1.461455   -2.875748
     19          6           0       -4.883845   -2.530658   -3.783841
     20          6           0       -4.774009   -3.828306   -3.179875
     21          6           0       -4.712183   -3.452402   -1.742504
     22          6           0       -5.110751   -2.242067   -5.275587
     23          6           0       -4.817612   -5.253958   -3.744465
     24          8           0       -5.030233   -5.408854   -4.974301
     25          6           0       -4.483257   -6.494675   -2.993853
     26          7           0       -4.041936   -2.841879    1.224013
     27          6           0       -4.330617   -4.079545    0.706303
     28          6           0       -4.224502   -5.220890    1.700406
     29          6           0       -3.682697   -4.452181    2.868126
     30          6           0       -3.794439   -2.969766    2.494183
     31          6           0       -5.580578   -5.916749    1.926223
     32          6           0       -2.200962   -4.902365    3.327044
     33          6           0       -1.811356   -6.388782    3.341152
     34          7           0       -4.002475   -0.073747    2.024644
     35          6           0       -3.732873   -0.502831    3.215763
     36          6           0       -3.520474    0.566648    4.162343
     37          6           0       -3.481142    1.698553    3.392064
     38          6           0       -3.725123    1.246817    2.024086
     39          6           0       -3.172823    0.390412    5.654409
     40          6           0       -3.266480    3.101236    3.360595
     41          8           0       -3.019173    3.864912    4.233495
     42          6           0       -3.339781    3.506173    1.918630
     43          6           0       -4.355169    4.476021    1.725632
     44          8           0       -5.558780    4.287937    1.919867
     45          8           0       -3.921876    5.661165    1.134690
     46          6           0       -4.910036    6.644868    0.682232
     47          6           0        2.159782    5.131061   -0.806583
     48          6           0        2.958774    3.815964   -0.610432
     49          6           0        4.311635    3.749177   -0.353250
     50          6           0        5.149142    5.043258   -0.076750
     51          6           0        5.024082    2.448991   -0.168133
     52          6           0        5.801452    1.876757   -1.462495
     53          6           0        5.140539    0.579820   -1.947695
     54          6           0        6.025273   -0.673376   -1.670117
     55          6           0        5.644092   -1.786602   -2.657766
     56          6           0        5.698723   -1.208376   -0.230737
     57          6           0        6.836809   -0.818708    0.658956
     58          6           0        7.435229   -2.118942    1.348500
     59          6           0        8.727445   -2.660521    0.743035
     60          6           0        8.626309   -4.225706    0.837025
     61          6           0        9.903476   -2.147685    1.644200
     62          6           0       11.304205   -2.299169    1.069062
     63          6           0       11.973878   -0.977813    0.938145
     64          6           0       12.570800   -0.776416   -0.461496
     65          6           0       12.725781    0.715613   -0.696858
     66          6           0       13.958204   -1.549560   -0.714666
     67          1           0       -4.402507    0.305369   -4.156858
     68          1           0       -4.655445   -5.424385   -0.810884
     69          1           0       -3.419416   -2.167257    4.440983
     70          1           0       -3.899992    4.051251   -1.192876
     71          1           0       -2.935296    2.633640   -3.460859
     72          1           0       -5.222625    4.132947   -2.640040
     73          1           0       -5.792792    2.627343   -3.351640
     74          1           0       -4.645911    3.760358   -4.227639
     75          1           0       -1.026776    3.335355   -2.040858
     76          1           0       -1.319176    3.277843   -0.418187
     77          1           0       -1.665057    5.497149   -0.222927
     78          1           0       -2.206290    5.635645   -1.985560
     79          1           0       -4.202229   -1.833623   -5.716247
     80          1           0       -5.794261   -1.399354   -5.173110
     81          1           0       -5.465261   -3.097259   -5.850652
     82          1           0       -3.532321   -6.360835   -2.479553
     83          1           0       -4.250196   -7.323301   -3.662617
     84          1           0       -5.221459   -6.870890   -2.285711
     85          1           0       -3.461664   -5.939907    1.399902
     86          1           0       -4.373756   -4.770521    3.648323
     87          1           0       -5.982132   -6.407904    1.039989
     88          1           0       -6.338359   -5.247259    2.332480
     89          1           0       -5.497595   -6.796189    2.564354
     90          1           0       -1.916358   -4.578883    4.328851
     91          1           0       -1.548735   -4.340758    2.657781
     92          1           0       -2.716886   -6.958617    3.134383
     93          1           0       -1.366663   -6.686748    4.291636
     94          1           0       -1.053305   -6.567125    2.578273
     95          1           0       -2.086990    0.357604    5.745412
     96          1           0       -3.773908   -0.394024    6.113241
     97          1           0       -3.524324    1.337710    6.062945
     98          1           0       -2.379713    3.939931    1.636888
     99          1           0       -4.513803    7.644982    0.506057
    100          1           0       -5.706119    6.805707    1.410166
    101          1           0       -5.415406    6.268968   -0.207697
    102          1           0        2.215904    5.827345    0.030254
    103          1           0        2.462311    5.731313   -1.664935
    104          1           0        2.314284    2.961481   -0.816924
    105          1           0        4.753808    6.003057   -0.408416
    106          1           0        6.042226    4.871515   -0.677751
    107          1           0        5.413016    5.071623    0.980118
    108          1           0        4.204347    1.772832    0.073686
    109          1           0        5.780009    2.476299    0.617197
    110          1           0        6.813317    1.716677   -1.090829
    111          1           0        5.990865    2.667834   -2.189163
    112          1           0        4.831202    0.609723   -2.993115
    113          1           0        4.095575    0.473834   -1.653295
    114          1           0        7.038040   -0.405564   -1.968096
    115          1           0        6.149980   -2.713671   -2.386724
    116          1           0        5.752202   -1.619442   -3.729107
    117          1           0        4.566188   -1.869661   -2.515390
    118          1           0        5.565377   -2.287546   -0.310337
    119          1           0        4.725694   -0.815953    0.063148
    120          1           0        6.483020   -0.257428    1.523743
    121          1           0        7.643145   -0.311603    0.128909
    122          1           0        6.694401   -2.918868    1.381551
    123          1           0        7.668950   -1.803570    2.365964
    124          1           0        8.852770   -2.342110   -0.291741
    125          1           0        9.190092   -4.706505    0.037248
    126          1           0        7.648674   -4.699466    0.748427
    127          1           0        9.008571   -4.679554    1.751051
    128          1           0        9.850530   -2.761067    2.544267
    129          1           0        9.658483   -1.130993    1.952600
    130          1           0       11.226158   -2.821657    0.115579
    131          1           0       11.847615   -2.829626    1.850144
    132          1           0       12.741060   -1.007124    1.711570
    133          1           0       11.322139   -0.134498    1.165906
    134          1           0       11.868283   -1.053795   -1.248114
    135          1           0       13.543688    0.853941   -1.402662
    136          1           0       12.919330    1.203049    0.259367
    137          1           0       11.892401    1.166858   -1.236949
    138          1           0       14.413462   -1.861085    0.225445
    139          1           0       14.687453   -0.920697   -1.223323
    140          1           0       13.867595   -2.401779   -1.388589
 ---------------------------------------------------------------------

 SCF Done:  E(RB-LYP) =  -3007.32557766     A.U. after   21 cycles

 Excitation energies and oscillator strengths:

 Excited State   1:      Singlet-A      1.7775 eV  697.51 nm  f=0.0085  <S**2>=0.000
     244 -> 247        0.69855
 This state for optimization and/or second-order correction.
 Total Energy, E(TD-HF/TD-DFT) =  -3007.26025479
 Copying the excited state density for this state as the 1-particle RhoCI density.

 Excited State   2:      Singlet-A      1.8413 eV  673.37 nm  f=0.2943  <S**2>=0.000
     244 -> 247        0.10006
     245 -> 248       -0.20252
     246 -> 247        0.67700
     246 <- 247       -0.14036

 Excited State   3:      Singlet-A      2.0033 eV  618.91 nm  f=0.0616  <S**2>=0.000
     241 -> 247        0.11983
     245 -> 247        0.64574
     246 -> 248        0.23706

 Excited State   4:      Singlet-A      2.1216 eV  584.39 nm  f=0.0004  <S**2>=0.000
     243 -> 247        0.70656

 Excited State   5:      Singlet-A      2.2189 eV  558.78 nm  f=0.0018  <S**2>=0.000
     241 -> 247       -0.24174
     242 -> 247        0.65841

 The electronic state is 1-A.
 Alpha  occ. eigenvalues --  -46.29466 -18.82376 -18.82360 -18.77044 -18.76550
 Alpha  occ. eigenvalues --  -18.76231 -18.75061 -14.03633 -14.03516 -14.01581
 Alpha  occ. eigenvalues --  -14.01545 -10.04103 -10.04101 -10.00242  -9.99639
 Alpha  occ. eigenvalues --   -9.98128  -9.97768  -9.97336  -9.97098  -9.96734
 Alpha  occ. eigenvalues --   -9.96403  -9.96241  -9.96123  -9.95645  -9.95505
 Alpha  occ. eigenvalues --   -9.94679  -9.94595  -9.94511  -9.94045  -9.94037
 Alpha  occ. eigenvalues --   -9.93946  -9.93908  -9.93881  -9.93582  -9.93415
 Alpha  occ. eigenvalues --   -9.93203  -9.93197  -9.93195  -9.93152  -9.93044
 Alpha  occ. eigenvalues --   -9.92865  -9.92849  -9.92653  -9.92578  -9.92534
 Alpha  occ. eigenvalues --   -9.92450  -9.92325  -9.92259  -9.92138  -9.92124
 Alpha  occ. eigenvalues --   -9.92117  -9.92012  -9.92010  -9.91469  -9.91239
 Alpha  occ. eigenvalues --   -9.91096  -9.91074  -9.91062  -9.91020  -9.90768
 Alpha  occ. eigenvalues --   -9.90740  -9.90567  -9.90561  -9.90466  -9.90341
 Alpha  occ. eigenvalues --   -9.90335  -2.93814  -1.74210  -1.73735  -1.73512
 Alpha  occ. eigenvalues --   -0.97376  -0.96318  -0.94082  -0.89574  -0.89206
 Alpha  occ. eigenvalues --   -0.88956  -0.88833  -0.87920  -0.86728  -0.84426
 Alpha  occ. eigenvalues --   -0.76962  -0.73713  -0.73427  -0.73240  -0.72967
 Alpha  occ. eigenvalues --   -0.71991  -0.71884  -0.71336  -0.70853  -0.70514
 Alpha  occ. eigenvalues --   -0.69704  -0.68700  -0.68489  -0.67917  -0.67677
 Alpha  occ. eigenvalues --   -0.66534  -0.66288  -0.65340  -0.65135  -0.64776
 Alpha  occ. eigenvalues --   -0.63978  -0.62898  -0.62457  -0.61932  -0.61808
 Alpha  occ. eigenvalues --   -0.60305  -0.59935  -0.59890  -0.59528  -0.58577
 Alpha  occ. eigenvalues --   -0.58351  -0.57475  -0.57240  -0.55776  -0.55515
 Alpha  occ. eigenvalues --   -0.55019  -0.53699  -0.52763  -0.52644  -0.52033
 Alpha  occ. eigenvalues --   -0.51700  -0.51424  -0.50976  -0.50498  -0.50473
 Alpha  occ. eigenvalues --   -0.49592  -0.49586  -0.49544  -0.48884  -0.47395
 Alpha  occ. eigenvalues --   -0.46612  -0.46490  -0.46155  -0.45899  -0.45712
 Alpha  occ. eigenvalues --   -0.44535  -0.43769  -0.43350  -0.43008  -0.42863
 Alpha  occ. eigenvalues --   -0.42401  -0.42099  -0.41937  -0.41703  -0.41474
 Alpha  occ. eigenvalues --   -0.41094  -0.41073  -0.40648  -0.40212  -0.39944
 Alpha  occ. eigenvalues --   -0.39909  -0.39680  -0.39628  -0.39378  -0.39274
 Alpha  occ. eigenvalues --   -0.38994  -0.38932  -0.38683  -0.38622  -0.37989
 Alpha  occ. eigenvalues --   -0.37958  -0.37767  -0.37681  -0.37555  -0.37259
 Alpha  occ. eigenvalues --   -0.37177  -0.37103  -0.36857  -0.36808  -0.36667
 Alpha  occ. eigenvalues --   -0.36420  -0.36299  -0.36262  -0.35973  -0.35686
 Alpha  occ. eigenvalues --   -0.35514  -0.35380  -0.35175  -0.35000  -0.34894
 Alpha  occ. eigenvalues --   -0.34546  -0.34294  -0.34210  -0.34143  -0.34030
 Alpha  occ. eigenvalues --   -0.33932  -0.33836  -0.33589  -0.33550  -0.33355
 Alpha  occ. eigenvalues --   -0.33036  -0.32855  -0.32580  -0.32428  -0.32237
 Alpha  occ. eigenvalues --   -0.32022  -0.31880  -0.31758  -0.31728  -0.31681
 Alpha  occ. eigenvalues --   -0.31571  -0.31553  -0.31312  -0.31107  -0.30898
 Alpha  occ. eigenvalues --   -0.30729  -0.30507  -0.29966  -0.29900  -0.29824
 Alpha  occ. eigenvalues --   -0.29708  -0.29505  -0.29253  -0.29150  -0.29116
 Alpha  occ. eigenvalues --   -0.28976  -0.28765  -0.28553  -0.28188  -0.27651
 Alpha  occ. eigenvalues --   -0.27646  -0.27385  -0.27349  -0.27035  -0.26615
 Alpha  occ. eigenvalues --   -0.26354  -0.26035  -0.25971  -0.25809  -0.25128
 Alpha  occ. eigenvalues --   -0.24948  -0.24776  -0.24482  -0.24180  -0.23911
 Alpha  occ. eigenvalues --   -0.23132  -0.22800  -0.21982  -0.21810  -0.21737
 Alpha  occ. eigenvalues --   -0.19778  -0.19754  -0.19550  -0.18220  -0.17519
 Alpha  occ. eigenvalues --   -0.16198
 Alpha virt. eigenvalues --   -0.11756  -0.07280  -0.06682  -0.04883  -0.04179
 Alpha virt. eigenvalues --   -0.03611  -0.03335  -0.02189  -0.01811  -0.00064
 Alpha virt. eigenvalues --    0.01271   0.01538   0.01831   0.02316   0.02368

 Mulliken charges:
               1
     1  Mg   0.703653
     2  C    0.024140
     3  C   -0.017875
     4  C   -0.037520
     5  C   -0.090829
     6  N   -0.163680
     7  C   -0.141623
     8  C    0.047204
     9  C    0.005119
    10  C   -0.004532
    11  C    0.134709
    12  C    0.065751
    13  C    0.167051
    14  C    0.071074
    15  O   -0.200348
    16  O   -0.313630
    17  N   -0.295340
    18  C    0.131855
    19  C   -0.157098
    20  C    0.033103
    21  C    0.129330
    22  C    0.172467
    23  C   -0.049954
    24  O   -0.195839
    25  C    0.145702
    26  N   -0.186327
    27  C   -0.037206
    28  C    0.013213
    29  C    0.075433
    30  C    0.053218
    31  C    0.135592
    32  C    0.050010
    33  C    0.065321
    34  N   -0.196810
    35  C    0.058428
    36  C   -0.219038
    37  C    0.112756
    38  C    0.048916
    39  C    0.179353
    40  C   -0.079422
    41  O   -0.078852
    42  C    0.124391
    43  C    0.094429
    44  O   -0.195562
    45  O   -0.284491
    46  C    0.223605
    47  C    0.276621
    48  C   -0.092947
    49  C   -0.121681
    50  C    0.125228
    51  C    0.096386
    52  C    0.110491
    53  C    0.094006
    54  C   -0.084792
    55  C    0.082651
    56  C    0.159221
    57  C    0.090720
    58  C    0.086220
    59  C   -0.063226
    60  C    0.084371
    61  C    0.051354
    62  C    0.154849
    63  C    0.100506
    64  C   -0.099764
    65  C    0.105551
    66  C    0.095055
    67  H   -0.059623
    68  H   -0.087960
    69  H   -0.074800
    70  H   -0.018890
    71  H   -0.020059
    72  H   -0.012398
    73  H   -0.006183
    74  H   -0.004047
    75  H   -0.023055
    76  H   -0.013256
    77  H    0.020520
    78  H   -0.012451
    79  H   -0.003217
    80  H   -0.012054
    81  H    0.014287
    82  H    0.001315
    83  H   -0.012896
    84  H    0.024354
    85  H   -0.023149
    86  H   -0.046968
    87  H   -0.016319
    88  H   -0.002884
    89  H   -0.016322
    90  H   -0.017872
    91  H   -0.020263
    92  H   -0.002092
    93  H   -0.004717
    94  H   -0.002565
    95  H    0.020749
    96  H    0.003257
    97  H    0.005728
    98  H   -0.012385
    99  H    0.021673
   100  H    0.013547
   101  H    0.003614
   102  H   -0.003364
   103  H    0.026948
   104  H   -0.029441
   105  H   -0.006256
   106  H   -0.011841
   107  H    0.010957
   108  H   -0.012125
   109  H   -0.025328
   110  H   -0.038512
   111  H   -0.025606
   112  H   -0.057720
   113  H   -0.045206
   114  H   -0.029576
   115  H   -0.012206
   116  H   -0.021017
   117  H   -0.027951
   118  H   -0.035554
   119  H   -0.035754
   120  H   -0.035492
   121  H   -0.013991
   122  H   -0.037774
   123  H   -0.046619
   124  H   -0.034601
   125  H   -0.026047
   126  H   -0.020669
   127  H   -0.022386
   128  H   -0.038601
   129  H   -0.030629
   130  H   -0.019225
   131  H   -0.044102
   132  H   -0.035839
   133  H   -0.032439
   134  H   -0.039237
   135  H   -0.035347
   136  H   -0.010504
   137  H   -0.020594
   138  H   -0.014448
   139  H   -0.022972
   140  H   -0.012224
 Sum of Mulliken charges =  -0.00000

 Dipole moment (field-independent basis, Debye):
    X=              1.9176    Y=             -2.8570    Z=              2.4961  Tot=              4.2509
 Quadrupole moment (field-independent basis, Debye-Ang):
   XX=           -397.9613   YY=           -407.0379   ZZ=           -433.5890
   XY=              1.2421   XZ=             -7.2805   YZ=            -39.1125

 Normal termination of Gaussian 16 at Thu May  5 00:21:30 2022.
