 Gaussian 16, Revision A.03,
 Gaussian 16:  ES64L-G16RevA.03 25-Dec-2016

 -----------------------------------
 #p cam-b3lyp/Def2SVP td=(nstates=5)
 -----------------------------------

 ------------------------------------------------------
 step_451_chromophore_8 TDDFT with cam-b3lyp functional
 ------------------------------------------------------
 Symbolic Z-matrix:
 Charge =  0 Multiplicity = 1

                         Standard orientation:
 ---------------------------------------------------------------------
 Center     Atomic      Atomic             Coordinates (Angstroms)
 Number     Number       Type             X           Y           Z
 ---------------------------------------------------------------------
      1         12           0       -4.522410   -0.992550    0.226875
      2          6           0       -3.568386    2.247496    1.046853
      3          6           0       -4.394631   -0.025203   -3.116388
      4          6           0       -4.544614   -4.348693   -0.658079
      5          6           0       -3.634713   -1.912270    3.401331
      6          7           0       -3.867492    0.957017   -0.958973
      7          6           0       -3.584813    2.115790   -0.364309
      8          6           0       -3.241357    3.212353   -1.417649
      9          6           0       -3.760574    2.509085   -2.759741
     10          6           0       -4.036153    1.050099   -2.299453
     11          6           0       -4.938012    3.300585   -3.283714
     12          6           0       -1.761404    3.698139   -1.321569
     13          6           0       -1.506655    5.214169   -1.263689
     14          6           0       -0.091699    5.545536   -1.543137
     15          8           0        0.310341    6.411113   -2.351350
     16          8           0        0.710635    4.760094   -0.699644
     17          7           0       -4.711884   -2.063551   -1.632160
     18          6           0       -4.622124   -1.461455   -2.875748
     19          6           0       -4.883845   -2.530658   -3.783841
     20          6           0       -4.774009   -3.828306   -3.179875
     21          6           0       -4.712183   -3.452402   -1.742504
     22          6           0       -5.110751   -2.242067   -5.275587
     23          6           0       -4.817612   -5.253958   -3.744465
     24          8           0       -5.030233   -5.408854   -4.974301
     25          6           0       -4.483257   -6.494675   -2.993853
     26          7           0       -4.041936   -2.841879    1.224013
     27          6           0       -4.330617   -4.079545    0.706303
     28          6           0       -4.224502   -5.220890    1.700406
     29          6           0       -3.682697   -4.452181    2.868126
     30          6           0       -3.794439   -2.969766    2.494183
     31          6           0       -5.580578   -5.916749    1.926223
     32          6           0       -2.200962   -4.902365    3.327044
     33          6           0       -1.811356   -6.388782    3.341152
     34          7           0       -4.002475   -0.073747    2.024644
     35          6           0       -3.732873   -0.502831    3.215763
     36          6           0       -3.520474    0.566648    4.162343
     37          6           0       -3.481142    1.698553    3.392064
     38          6           0       -3.725123    1.246817    2.024086
     39          6           0       -3.172823    0.390412    5.654409
     40          6           0       -3.266480    3.101236    3.360595
     41          8           0       -3.019173    3.864912    4.233495
     42          6           0       -3.339781    3.506173    1.918630
     43          6           0       -4.355169    4.476021    1.725632
     44          8           0       -5.558780    4.287937    1.919867
     45          8           0       -3.921876    5.661165    1.134690
     46          6           0       -4.910036    6.644868    0.682232
     47          6           0        2.159782    5.131061   -0.806583
     48          6           0        2.958774    3.815964   -0.610432
     49          6           0        4.311635    3.749177   -0.353250
     50          6           0        5.149142    5.043258   -0.076750
     51          6           0        5.024082    2.448991   -0.168133
     52          6           0        5.801452    1.876757   -1.462495
     53          6           0        5.140539    0.579820   -1.947695
     54          6           0        6.025273   -0.673376   -1.670117
     55          6           0        5.644092   -1.786602   -2.657766
     56          6           0        5.698723   -1.208376   -0.230737
     57          6           0        6.836809   -0.818708    0.658956
     58          6           0        7.435229   -2.118942    1.348500
     59          6           0        8.727445   -2.660521    0.743035
     60          6           0        8.626309   -4.225706    0.837025
     61          6           0        9.903476   -2.147685    1.644200
     62          6           0       11.304205   -2.299169    1.069062
     63          6           0       11.973878   -0.977813    0.938145
     64          6           0       12.570800   -0.776416   -0.461496
     65          6           0       12.725781    0.715613   -0.696858
     66          6           0       13.958204   -1.549560   -0.714666
     67          1           0       -4.402507    0.305369   -4.156858
     68          1           0       -4.655445   -5.424385   -0.810884
     69          1           0       -3.419416   -2.167257    4.440983
     70          1           0       -3.899992    4.051251   -1.192876
     71          1           0       -2.935296    2.633640   -3.460859
     72          1           0       -5.222625    4.132947   -2.640040
     73          1           0       -5.792792    2.627343   -3.351640
     74          1           0       -4.645911    3.760358   -4.227639
     75          1           0       -1.026776    3.335355   -2.040858
     76          1           0       -1.319176    3.277843   -0.418187
     77          1           0       -1.665057    5.497149   -0.222927
     78          1           0       -2.206290    5.635645   -1.985560
     79          1           0       -4.202229   -1.833623   -5.716247
     80          1           0       -5.794261   -1.399354   -5.173110
     81          1           0       -5.465261   -3.097259   -5.850652
     82          1           0       -3.532321   -6.360835   -2.479553
     83          1           0       -4.250196   -7.323301   -3.662617
     84          1           0       -5.221459   -6.870890   -2.285711
     85          1           0       -3.461664   -5.939907    1.399902
     86          1           0       -4.373756   -4.770521    3.648323
     87          1           0       -5.982132   -6.407904    1.039989
     88          1           0       -6.338359   -5.247259    2.332480
     89          1           0       -5.497595   -6.796189    2.564354
     90          1           0       -1.916358   -4.578883    4.328851
     91          1           0       -1.548735   -4.340758    2.657781
     92          1           0       -2.716886   -6.958617    3.134383
     93          1           0       -1.366663   -6.686748    4.291636
     94          1           0       -1.053305   -6.567125    2.578273
     95          1           0       -2.086990    0.357604    5.745412
     96          1           0       -3.773908   -0.394024    6.113241
     97          1           0       -3.524324    1.337710    6.062945
     98          1           0       -2.379713    3.939931    1.636888
     99          1           0       -4.513803    7.644982    0.506057
    100          1           0       -5.706119    6.805707    1.410166
    101          1           0       -5.415406    6.268968   -0.207697
    102          1           0        2.215904    5.827345    0.030254
    103          1           0        2.462311    5.731313   -1.664935
    104          1           0        2.314284    2.961481   -0.816924
    105          1           0        4.753808    6.003057   -0.408416
    106          1           0        6.042226    4.871515   -0.677751
    107          1           0        5.413016    5.071623    0.980118
    108          1           0        4.204347    1.772832    0.073686
    109          1           0        5.780009    2.476299    0.617197
    110          1           0        6.813317    1.716677   -1.090829
    111          1           0        5.990865    2.667834   -2.189163
    112          1           0        4.831202    0.609723   -2.993115
    113          1           0        4.095575    0.473834   -1.653295
    114          1           0        7.038040   -0.405564   -1.968096
    115          1           0        6.149980   -2.713671   -2.386724
    116          1           0        5.752202   -1.619442   -3.729107
    117          1           0        4.566188   -1.869661   -2.515390
    118          1           0        5.565377   -2.287546   -0.310337
    119          1           0        4.725694   -0.815953    0.063148
    120          1           0        6.483020   -0.257428    1.523743
    121          1           0        7.643145   -0.311603    0.128909
    122          1           0        6.694401   -2.918868    1.381551
    123          1           0        7.668950   -1.803570    2.365964
    124          1           0        8.852770   -2.342110   -0.291741
    125          1           0        9.190092   -4.706505    0.037248
    126          1           0        7.648674   -4.699466    0.748427
    127          1           0        9.008571   -4.679554    1.751051
    128          1           0        9.850530   -2.761067    2.544267
    129          1           0        9.658483   -1.130993    1.952600
    130          1           0       11.226158   -2.821657    0.115579
    131          1           0       11.847615   -2.829626    1.850144
    132          1           0       12.741060   -1.007124    1.711570
    133          1           0       11.322139   -0.134498    1.165906
    134          1           0       11.868283   -1.053795   -1.248114
    135          1           0       13.543688    0.853941   -1.402662
    136          1           0       12.919330    1.203049    0.259367
    137          1           0       11.892401    1.166858   -1.236949
    138          1           0       14.413462   -1.861085    0.225445
    139          1           0       14.687453   -0.920697   -1.223323
    140          1           0       13.867595   -2.401779   -1.388589
 ---------------------------------------------------------------------

 SCF Done:  E(RCAM-B3LYP) =  -3007.11839638     A.U. after   18 cycles

 Excitation energies and oscillator strengths:

 Excited State   1:      Singlet-A      1.7586 eV  705.01 nm  f=0.3779  <S**2>=0.000
     245 -> 248       -0.19539
     246 -> 247        0.68133
     245 <- 248       -0.10948
 This state for optimization and/or second-order correction.
 Total Energy, E(TD-HF/TD-DFT) =  -3007.05376818
 Copying the excited state density for this state as the 1-particle RhoCI density.

 Excited State   2:      Singlet-A      2.2350 eV  554.73 nm  f=0.0889  <S**2>=0.000
     245 -> 247        0.63470
     246 -> 248        0.30182

 Excited State   3:      Singlet-A      3.2602 eV  380.30 nm  f=0.0102  <S**2>=0.000
     244 -> 247        0.67843
     246 -> 248       -0.13004

 Excited State   4:      Singlet-A      3.5098 eV  353.25 nm  f=0.6248  <S**2>=0.000
     241 -> 247       -0.19452
     244 -> 247        0.10161
     245 -> 247       -0.28300
     246 -> 248        0.59307
     245 <- 247        0.10901

 Excited State   5:      Singlet-A      3.5306 eV  351.17 nm  f=0.0010  <S**2>=0.000
     242 -> 247        0.47361
     242 -> 248        0.14037
     242 -> 249       -0.35074
     242 -> 251       -0.30463

 The electronic state is 1-A.
 Alpha  occ. eigenvalues --  -46.91161 -19.25507 -19.25329 -19.20106 -19.19880
 Alpha  occ. eigenvalues --  -19.19859 -19.18036 -14.42545 -14.42296 -14.40159
 Alpha  occ. eigenvalues --  -14.39818 -10.39777 -10.39587 -10.35226 -10.35168
 Alpha  occ. eigenvalues --  -10.32262 -10.32064 -10.31907 -10.31326 -10.31274
 Alpha  occ. eigenvalues --  -10.30671 -10.30259 -10.30198 -10.30179 -10.30099
 Alpha  occ. eigenvalues --  -10.29075 -10.28938 -10.28886 -10.28478 -10.28393
 Alpha  occ. eigenvalues --  -10.28070 -10.27877 -10.27842 -10.27689 -10.27672
 Alpha  occ. eigenvalues --  -10.27200 -10.27143 -10.27085 -10.26990 -10.26860
 Alpha  occ. eigenvalues --  -10.26831 -10.26826 -10.26733 -10.26336 -10.26268
 Alpha  occ. eigenvalues --  -10.26222 -10.26183 -10.26102 -10.26007 -10.25886
 Alpha  occ. eigenvalues --  -10.25844 -10.25816 -10.25709 -10.25701 -10.24877
 Alpha  occ. eigenvalues --  -10.24721 -10.24702 -10.24644 -10.24557 -10.24389
 Alpha  occ. eigenvalues --  -10.24373 -10.24155 -10.24138 -10.24130 -10.23910
 Alpha  occ. eigenvalues --  -10.23894  -3.19395  -1.94272  -1.93870  -1.93677
 Alpha  occ. eigenvalues --   -1.16111  -1.14776  -1.12967  -1.07656  -1.07308
 Alpha  occ. eigenvalues --   -1.06943  -1.06733  -1.05655  -1.04460  -1.01610
 Alpha  occ. eigenvalues --   -0.94447  -0.90563  -0.90126  -0.90083  -0.89749
 Alpha  occ. eigenvalues --   -0.88721  -0.88586  -0.88074  -0.87439  -0.87139
 Alpha  occ. eigenvalues --   -0.86111  -0.85070  -0.84711  -0.84098  -0.83862
 Alpha  occ. eigenvalues --   -0.82598  -0.82357  -0.81291  -0.80956  -0.80668
 Alpha  occ. eigenvalues --   -0.79768  -0.78548  -0.78114  -0.77499  -0.77234
 Alpha  occ. eigenvalues --   -0.75665  -0.75241  -0.75216  -0.74807  -0.73774
 Alpha  occ. eigenvalues --   -0.73467  -0.72438  -0.72140  -0.70638  -0.70317
 Alpha  occ. eigenvalues --   -0.69604  -0.68257  -0.67140  -0.66999  -0.66240
 Alpha  occ. eigenvalues --   -0.65764  -0.65435  -0.65188  -0.64534  -0.64504
 Alpha  occ. eigenvalues --   -0.63550  -0.63540  -0.63425  -0.62783  -0.61095
 Alpha  occ. eigenvalues --   -0.60269  -0.60146  -0.59787  -0.59528  -0.59147
 Alpha  occ. eigenvalues --   -0.57913  -0.56874  -0.56619  -0.56176  -0.56034
 Alpha  occ. eigenvalues --   -0.55653  -0.55193  -0.55023  -0.54718  -0.54344
 Alpha  occ. eigenvalues --   -0.53989  -0.53830  -0.53603  -0.53061  -0.52731
 Alpha  occ. eigenvalues --   -0.52638  -0.52424  -0.52355  -0.52002  -0.51791
 Alpha  occ. eigenvalues --   -0.51564  -0.51432  -0.51159  -0.50992  -0.50731
 Alpha  occ. eigenvalues --   -0.50349  -0.50165  -0.50136  -0.49914  -0.49816
 Alpha  occ. eigenvalues --   -0.49542  -0.49347  -0.49181  -0.49081  -0.48918
 Alpha  occ. eigenvalues --   -0.48692  -0.48550  -0.48368  -0.48202  -0.48001
 Alpha  occ. eigenvalues --   -0.47511  -0.47331  -0.47042  -0.46961  -0.46813
 Alpha  occ. eigenvalues --   -0.46477  -0.46402  -0.46160  -0.46129  -0.46082
 Alpha  occ. eigenvalues --   -0.45708  -0.45633  -0.45298  -0.45198  -0.45063
 Alpha  occ. eigenvalues --   -0.44729  -0.44571  -0.44253  -0.43944  -0.43723
 Alpha  occ. eigenvalues --   -0.43663  -0.43481  -0.43302  -0.43225  -0.43086
 Alpha  occ. eigenvalues --   -0.43000  -0.42959  -0.42944  -0.42711  -0.42213
 Alpha  occ. eigenvalues --   -0.42180  -0.42084  -0.41917  -0.41389  -0.41114
 Alpha  occ. eigenvalues --   -0.40973  -0.40634  -0.40376  -0.40294  -0.40202
 Alpha  occ. eigenvalues --   -0.40125  -0.39668  -0.39524  -0.39095  -0.38765
 Alpha  occ. eigenvalues --   -0.38488  -0.38364  -0.38155  -0.37855  -0.37806
 Alpha  occ. eigenvalues --   -0.37220  -0.36954  -0.36867  -0.36601  -0.36502
 Alpha  occ. eigenvalues --   -0.36161  -0.35341  -0.35056  -0.35016  -0.34628
 Alpha  occ. eigenvalues --   -0.34010  -0.33453  -0.33320  -0.32322  -0.32126
 Alpha  occ. eigenvalues --   -0.31444  -0.30511  -0.29139  -0.28740  -0.24261
 Alpha  occ. eigenvalues --   -0.21512
 Alpha virt. eigenvalues --   -0.08763  -0.02202  -0.00196   0.00925   0.02087
 Alpha virt. eigenvalues --    0.03888   0.04397   0.05138   0.05209   0.07003
 Alpha virt. eigenvalues --    0.07385   0.07860   0.08467   0.08495   0.09148

 Mulliken charges:
               1
     1  Mg   0.832095
     2  C   -0.010514
     3  C   -0.031052
     4  C   -0.053716
     5  C   -0.097165
     6  N   -0.231942
     7  C   -0.090673
     8  C    0.006033
     9  C   -0.042925
    10  C    0.007578
    11  C    0.076189
    12  C    0.011296
    13  C    0.095678
    14  C    0.156702
    15  O   -0.243335
    16  O   -0.378107
    17  N   -0.379378
    18  C    0.133120
    19  C   -0.161833
    20  C   -0.036316
    21  C    0.157018
    22  C    0.116299
    23  C    0.026809
    24  O   -0.237420
    25  C    0.055791
    26  N   -0.257703
    27  C   -0.018337
    28  C   -0.048808
    29  C    0.019042
    30  C    0.066813
    31  C    0.080130
    32  C    0.002363
    33  C    0.000779
    34  N   -0.289717
    35  C    0.066499
    36  C   -0.205815
    37  C    0.029580
    38  C    0.089682
    39  C    0.130861
    40  C    0.023065
    41  O   -0.115044
    42  C    0.035938
    43  C    0.190353
    44  O   -0.230845
    45  O   -0.350993
    46  C    0.184833
    47  C    0.242956
    48  C   -0.112434
    49  C   -0.145736
    50  C    0.067896
    51  C    0.042696
    52  C    0.054082
    53  C    0.038630
    54  C   -0.144460
    55  C    0.027796
    56  C    0.102770
    57  C    0.035719
    58  C    0.033605
    59  C   -0.116788
    60  C    0.026165
    61  C    0.003895
    62  C    0.092934
    63  C    0.043362
    64  C   -0.158848
    65  C    0.046401
    66  C    0.036857
    67  H   -0.024338
    68  H   -0.053482
    69  H   -0.039236
    70  H    0.011269
    71  H    0.015270
    72  H    0.010276
    73  H    0.020243
    74  H    0.020505
    75  H    0.009239
    76  H    0.018228
    77  H    0.050184
    78  H    0.020077
    79  H    0.020791
    80  H    0.010461
    81  H    0.044462
    82  H    0.030045
    83  H    0.023798
    84  H    0.049861
    85  H    0.012581
    86  H   -0.009249
    87  H    0.008544
    88  H    0.021626
    89  H    0.008255
    90  H    0.009753
    91  H    0.008763
    92  H    0.017359
    93  H    0.020537
    94  H    0.021507
    95  H    0.048423
    96  H    0.028907
    97  H    0.033447
    98  H    0.033761
    99  H    0.045013
   100  H    0.039341
   101  H    0.023853
   102  H    0.024440
   103  H    0.057957
   104  H    0.004313
   105  H    0.017621
   106  H    0.010242
   107  H    0.034847
   108  H    0.014658
   109  H    0.004106
   110  H   -0.009958
   111  H    0.003894
   112  H   -0.024182
   113  H   -0.016693
   114  H    0.001083
   115  H    0.010891
   116  H    0.005288
   117  H   -0.005413
   118  H   -0.005758
   119  H   -0.006115
   120  H   -0.005581
   121  H    0.009553
   122  H   -0.008942
   123  H   -0.016320
   124  H   -0.006472
   125  H   -0.001125
   126  H    0.003610
   127  H    0.001952
   128  H   -0.010094
   129  H   -0.003996
   130  H    0.007153
   131  H   -0.012073
   132  H   -0.006798
   133  H   -0.002743
   134  H   -0.007677
   135  H   -0.009875
   136  H    0.012436
   137  H    0.004143
   138  H    0.008491
   139  H    0.001313
   140  H    0.011339
 Sum of Mulliken charges =  -0.00000

 Dipole moment (field-independent basis, Debye):
    X=              1.9986    Y=             -2.6308    Z=              3.0451  Tot=              4.4931
 Quadrupole moment (field-independent basis, Debye-Ang):
   XX=           -398.8338   YY=           -403.5147   ZZ=           -432.6029
   XY=             -0.0123   XZ=             -9.3930   YZ=            -40.2770

 Normal termination of Gaussian 16 at Wed May  4 23:05:31 2022.
