 Gaussian 16, Revision A.03,
 Gaussian 16:  ES64L-G16RevA.03 25-Dec-2016

 ---------------------------------
 #p PBE1PBE/Def2SVP td=(nstates=5)
 ---------------------------------

 ----------------------------------------------------
 step_451_chromophore_8 TDDFT with PBE1PBE functional
 ----------------------------------------------------
 Symbolic Z-matrix:
 Charge =  0 Multiplicity = 1

                         Standard orientation:
 ---------------------------------------------------------------------
 Center     Atomic      Atomic             Coordinates (Angstroms)
 Number     Number       Type             X           Y           Z
 ---------------------------------------------------------------------
      1         12           0       -4.522410   -0.992550    0.226875
      2          6           0       -3.568386    2.247496    1.046853
      3          6           0       -4.394631   -0.025203   -3.116388
      4          6           0       -4.544614   -4.348693   -0.658079
      5          6           0       -3.634713   -1.912270    3.401331
      6          7           0       -3.867492    0.957017   -0.958973
      7          6           0       -3.584813    2.115790   -0.364309
      8          6           0       -3.241357    3.212353   -1.417649
      9          6           0       -3.760574    2.509085   -2.759741
     10          6           0       -4.036153    1.050099   -2.299453
     11          6           0       -4.938012    3.300585   -3.283714
     12          6           0       -1.761404    3.698139   -1.321569
     13          6           0       -1.506655    5.214169   -1.263689
     14          6           0       -0.091699    5.545536   -1.543137
     15          8           0        0.310341    6.411113   -2.351350
     16          8           0        0.710635    4.760094   -0.699644
     17          7           0       -4.711884   -2.063551   -1.632160
     18          6           0       -4.622124   -1.461455   -2.875748
     19          6           0       -4.883845   -2.530658   -3.783841
     20          6           0       -4.774009   -3.828306   -3.179875
     21          6           0       -4.712183   -3.452402   -1.742504
     22          6           0       -5.110751   -2.242067   -5.275587
     23          6           0       -4.817612   -5.253958   -3.744465
     24          8           0       -5.030233   -5.408854   -4.974301
     25          6           0       -4.483257   -6.494675   -2.993853
     26          7           0       -4.041936   -2.841879    1.224013
     27          6           0       -4.330617   -4.079545    0.706303
     28          6           0       -4.224502   -5.220890    1.700406
     29          6           0       -3.682697   -4.452181    2.868126
     30          6           0       -3.794439   -2.969766    2.494183
     31          6           0       -5.580578   -5.916749    1.926223
     32          6           0       -2.200962   -4.902365    3.327044
     33          6           0       -1.811356   -6.388782    3.341152
     34          7           0       -4.002475   -0.073747    2.024644
     35          6           0       -3.732873   -0.502831    3.215763
     36          6           0       -3.520474    0.566648    4.162343
     37          6           0       -3.481142    1.698553    3.392064
     38          6           0       -3.725123    1.246817    2.024086
     39          6           0       -3.172823    0.390412    5.654409
     40          6           0       -3.266480    3.101236    3.360595
     41          8           0       -3.019173    3.864912    4.233495
     42          6           0       -3.339781    3.506173    1.918630
     43          6           0       -4.355169    4.476021    1.725632
     44          8           0       -5.558780    4.287937    1.919867
     45          8           0       -3.921876    5.661165    1.134690
     46          6           0       -4.910036    6.644868    0.682232
     47          6           0        2.159782    5.131061   -0.806583
     48          6           0        2.958774    3.815964   -0.610432
     49          6           0        4.311635    3.749177   -0.353250
     50          6           0        5.149142    5.043258   -0.076750
     51          6           0        5.024082    2.448991   -0.168133
     52          6           0        5.801452    1.876757   -1.462495
     53          6           0        5.140539    0.579820   -1.947695
     54          6           0        6.025273   -0.673376   -1.670117
     55          6           0        5.644092   -1.786602   -2.657766
     56          6           0        5.698723   -1.208376   -0.230737
     57          6           0        6.836809   -0.818708    0.658956
     58          6           0        7.435229   -2.118942    1.348500
     59          6           0        8.727445   -2.660521    0.743035
     60          6           0        8.626309   -4.225706    0.837025
     61          6           0        9.903476   -2.147685    1.644200
     62          6           0       11.304205   -2.299169    1.069062
     63          6           0       11.973878   -0.977813    0.938145
     64          6           0       12.570800   -0.776416   -0.461496
     65          6           0       12.725781    0.715613   -0.696858
     66          6           0       13.958204   -1.549560   -0.714666
     67          1           0       -4.402507    0.305369   -4.156858
     68          1           0       -4.655445   -5.424385   -0.810884
     69          1           0       -3.419416   -2.167257    4.440983
     70          1           0       -3.899992    4.051251   -1.192876
     71          1           0       -2.935296    2.633640   -3.460859
     72          1           0       -5.222625    4.132947   -2.640040
     73          1           0       -5.792792    2.627343   -3.351640
     74          1           0       -4.645911    3.760358   -4.227639
     75          1           0       -1.026776    3.335355   -2.040858
     76          1           0       -1.319176    3.277843   -0.418187
     77          1           0       -1.665057    5.497149   -0.222927
     78          1           0       -2.206290    5.635645   -1.985560
     79          1           0       -4.202229   -1.833623   -5.716247
     80          1           0       -5.794261   -1.399354   -5.173110
     81          1           0       -5.465261   -3.097259   -5.850652
     82          1           0       -3.532321   -6.360835   -2.479553
     83          1           0       -4.250196   -7.323301   -3.662617
     84          1           0       -5.221459   -6.870890   -2.285711
     85          1           0       -3.461664   -5.939907    1.399902
     86          1           0       -4.373756   -4.770521    3.648323
     87          1           0       -5.982132   -6.407904    1.039989
     88          1           0       -6.338359   -5.247259    2.332480
     89          1           0       -5.497595   -6.796189    2.564354
     90          1           0       -1.916358   -4.578883    4.328851
     91          1           0       -1.548735   -4.340758    2.657781
     92          1           0       -2.716886   -6.958617    3.134383
     93          1           0       -1.366663   -6.686748    4.291636
     94          1           0       -1.053305   -6.567125    2.578273
     95          1           0       -2.086990    0.357604    5.745412
     96          1           0       -3.773908   -0.394024    6.113241
     97          1           0       -3.524324    1.337710    6.062945
     98          1           0       -2.379713    3.939931    1.636888
     99          1           0       -4.513803    7.644982    0.506057
    100          1           0       -5.706119    6.805707    1.410166
    101          1           0       -5.415406    6.268968   -0.207697
    102          1           0        2.215904    5.827345    0.030254
    103          1           0        2.462311    5.731313   -1.664935
    104          1           0        2.314284    2.961481   -0.816924
    105          1           0        4.753808    6.003057   -0.408416
    106          1           0        6.042226    4.871515   -0.677751
    107          1           0        5.413016    5.071623    0.980118
    108          1           0        4.204347    1.772832    0.073686
    109          1           0        5.780009    2.476299    0.617197
    110          1           0        6.813317    1.716677   -1.090829
    111          1           0        5.990865    2.667834   -2.189163
    112          1           0        4.831202    0.609723   -2.993115
    113          1           0        4.095575    0.473834   -1.653295
    114          1           0        7.038040   -0.405564   -1.968096
    115          1           0        6.149980   -2.713671   -2.386724
    116          1           0        5.752202   -1.619442   -3.729107
    117          1           0        4.566188   -1.869661   -2.515390
    118          1           0        5.565377   -2.287546   -0.310337
    119          1           0        4.725694   -0.815953    0.063148
    120          1           0        6.483020   -0.257428    1.523743
    121          1           0        7.643145   -0.311603    0.128909
    122          1           0        6.694401   -2.918868    1.381551
    123          1           0        7.668950   -1.803570    2.365964
    124          1           0        8.852770   -2.342110   -0.291741
    125          1           0        9.190092   -4.706505    0.037248
    126          1           0        7.648674   -4.699466    0.748427
    127          1           0        9.008571   -4.679554    1.751051
    128          1           0        9.850530   -2.761067    2.544267
    129          1           0        9.658483   -1.130993    1.952600
    130          1           0       11.226158   -2.821657    0.115579
    131          1           0       11.847615   -2.829626    1.850144
    132          1           0       12.741060   -1.007124    1.711570
    133          1           0       11.322139   -0.134498    1.165906
    134          1           0       11.868283   -1.053795   -1.248114
    135          1           0       13.543688    0.853941   -1.402662
    136          1           0       12.919330    1.203049    0.259367
    137          1           0       11.892401    1.166858   -1.236949
    138          1           0       14.413462   -1.861085    0.225445
    139          1           0       14.687453   -0.920697   -1.223323
    140          1           0       13.867595   -2.401779   -1.388589
 ---------------------------------------------------------------------

 SCF Done:  E(RPBE1PBE) =  -3005.30736704     A.U. after   15 cycles

 Excitation energies and oscillator strengths:

 Excited State   1:      Singlet-A      1.9021 eV  651.82 nm  f=0.3676  <S**2>=0.000
     245 -> 248       -0.18922
     246 -> 247        0.68798
 This state for optimization and/or second-order correction.
 Total Energy, E(TD-HF/TD-DFT) =  -3005.23746525
 Copying the excited state density for this state as the 1-particle RhoCI density.

 Excited State   2:      Singlet-A      2.2365 eV  554.36 nm  f=0.0869  <S**2>=0.000
     245 -> 247        0.64829
     246 -> 248        0.27109

 Excited State   3:      Singlet-A      2.8631 eV  433.04 nm  f=0.0135  <S**2>=0.000
     243 -> 247        0.69549

 Excited State   4:      Singlet-A      3.0093 eV  412.01 nm  f=0.0000  <S**2>=0.000
     242 -> 247        0.65763
     242 -> 249        0.19658
     242 -> 250       -0.12453

 Excited State   5:      Singlet-A      3.1902 eV  388.64 nm  f=0.0004  <S**2>=0.000
     244 -> 247        0.70557

 The electronic state is 1-A.
 Alpha  occ. eigenvalues --  -46.94552 -19.26034 -19.26029 -19.20405 -19.19964
 Alpha  occ. eigenvalues --  -19.19824 -19.18435 -14.41978 -14.41825 -14.39655
 Alpha  occ. eigenvalues --  -14.39618 -10.36638 -10.36614 -10.32553 -10.32061
 Alpha  occ. eigenvalues --  -10.29660 -10.29412 -10.29312 -10.29185 -10.28841
 Alpha  occ. eigenvalues --  -10.28547 -10.28172 -10.28141 -10.27693 -10.27631
 Alpha  occ. eigenvalues --  -10.26818 -10.26691 -10.26341 -10.26303 -10.25863
 Alpha  occ. eigenvalues --  -10.25766 -10.25721 -10.25659 -10.25645 -10.25295
 Alpha  occ. eigenvalues --  -10.24843 -10.24798 -10.24609 -10.24604 -10.24588
 Alpha  occ. eigenvalues --  -10.24407 -10.24370 -10.24347 -10.23870 -10.23662
 Alpha  occ. eigenvalues --  -10.23621 -10.23617 -10.23597 -10.23506 -10.23465
 Alpha  occ. eigenvalues --  -10.23431 -10.23423 -10.23407 -10.23375 -10.22465
 Alpha  occ. eigenvalues --  -10.22233 -10.22192 -10.22182 -10.22118 -10.21952
 Alpha  occ. eigenvalues --  -10.21789 -10.21722 -10.21682 -10.21530 -10.21383
 Alpha  occ. eigenvalues --  -10.21284  -3.16374  -1.89188  -1.88766  -1.88576
 Alpha  occ. eigenvalues --   -1.10722  -1.09546  -1.07523  -1.02533  -1.01976
 Alpha  occ. eigenvalues --   -1.01580  -1.01524  -1.00310  -0.99057  -0.96485
 Alpha  occ. eigenvalues --   -0.88663  -0.84634  -0.84443  -0.84265  -0.83851
 Alpha  occ. eigenvalues --   -0.82925  -0.82810  -0.82333  -0.81564  -0.81365
 Alpha  occ. eigenvalues --   -0.80416  -0.79377  -0.79166  -0.78342  -0.78027
 Alpha  occ. eigenvalues --   -0.76813  -0.76543  -0.75577  -0.75272  -0.74876
 Alpha  occ. eigenvalues --   -0.73935  -0.72843  -0.72341  -0.71780  -0.71574
 Alpha  occ. eigenvalues --   -0.69800  -0.69607  -0.69283  -0.68920  -0.67945
 Alpha  occ. eigenvalues --   -0.67867  -0.66790  -0.66560  -0.64933  -0.64763
 Alpha  occ. eigenvalues --   -0.63955  -0.62466  -0.61652  -0.61223  -0.60688
 Alpha  occ. eigenvalues --   -0.60230  -0.60048  -0.59353  -0.59012  -0.58674
 Alpha  occ. eigenvalues --   -0.58005  -0.57883  -0.57653  -0.56966  -0.55606
 Alpha  occ. eigenvalues --   -0.54694  -0.54652  -0.54175  -0.54049  -0.53712
 Alpha  occ. eigenvalues --   -0.52602  -0.51349  -0.51079  -0.50720  -0.50499
 Alpha  occ. eigenvalues --   -0.50140  -0.49794  -0.49526  -0.49044  -0.48878
 Alpha  occ. eigenvalues --   -0.48411  -0.48338  -0.48124  -0.47595  -0.47156
 Alpha  occ. eigenvalues --   -0.47126  -0.46957  -0.46859  -0.46606  -0.46454
 Alpha  occ. eigenvalues --   -0.46104  -0.45956  -0.45760  -0.45519  -0.45201
 Alpha  occ. eigenvalues --   -0.44843  -0.44674  -0.44660  -0.44492  -0.44440
 Alpha  occ. eigenvalues --   -0.44143  -0.44008  -0.43793  -0.43652  -0.43537
 Alpha  occ. eigenvalues --   -0.43405  -0.43149  -0.42919  -0.42904  -0.42624
 Alpha  occ. eigenvalues --   -0.42251  -0.41951  -0.41652  -0.41590  -0.41538
 Alpha  occ. eigenvalues --   -0.41191  -0.41027  -0.40946  -0.40822  -0.40748
 Alpha  occ. eigenvalues --   -0.40347  -0.40166  -0.40049  -0.39931  -0.39855
 Alpha  occ. eigenvalues --   -0.39496  -0.39347  -0.39005  -0.38785  -0.38485
 Alpha  occ. eigenvalues --   -0.38362  -0.38245  -0.38104  -0.37967  -0.37904
 Alpha  occ. eigenvalues --   -0.37761  -0.37744  -0.37616  -0.37540  -0.37073
 Alpha  occ. eigenvalues --   -0.36880  -0.36824  -0.36732  -0.36193  -0.35931
 Alpha  occ. eigenvalues --   -0.35798  -0.35362  -0.35278  -0.35192  -0.35080
 Alpha  occ. eigenvalues --   -0.34892  -0.34627  -0.34237  -0.33855  -0.33670
 Alpha  occ. eigenvalues --   -0.33320  -0.33250  -0.32930  -0.32835  -0.32626
 Alpha  occ. eigenvalues --   -0.32232  -0.31945  -0.31800  -0.31520  -0.31334
 Alpha  occ. eigenvalues --   -0.31094  -0.30273  -0.30192  -0.29894  -0.29279
 Alpha  occ. eigenvalues --   -0.28930  -0.28786  -0.28392  -0.27674  -0.27036
 Alpha  occ. eigenvalues --   -0.26870  -0.25371  -0.24553  -0.24424  -0.21207
 Alpha  occ. eigenvalues --   -0.19150
 Alpha virt. eigenvalues --   -0.11299  -0.05679  -0.04398  -0.02333  -0.01860
 Alpha virt. eigenvalues --   -0.00654  -0.00194   0.00782   0.01004   0.03024
 Alpha virt. eigenvalues --    0.03874   0.04321   0.04849   0.05088   0.05275

 Mulliken charges:
               1
     1  Mg   0.965752
     2  C   -0.026138
     3  C   -0.038486
     4  C   -0.048670
     5  C   -0.081026
     6  N   -0.333984
     7  C   -0.014118
     8  C   -0.062478
     9  C   -0.121323
    10  C    0.049304
    11  C    0.020351
    12  C   -0.035188
    13  C    0.009492
    14  C    0.221317
    15  O   -0.278010
    16  O   -0.402933
    17  N   -0.489250
    18  C    0.164977
    19  C   -0.192420
    20  C   -0.079415
    21  C    0.191163
    22  C    0.059348
    23  C    0.074375
    24  O   -0.269770
    25  C   -0.023819
    26  N   -0.363105
    27  C    0.021960
    28  C   -0.134520
    29  C   -0.051437
    30  C    0.098754
    31  C    0.023066
    32  C   -0.053207
    33  C   -0.076027
    34  N   -0.419036
    35  C    0.085730
    36  C   -0.211705
    37  C   -0.029300
    38  C    0.142234
    39  C    0.074530
    40  C    0.125756
    41  O   -0.167549
    42  C   -0.083882
    43  C    0.288797
    44  O   -0.266372
    45  O   -0.386079
    46  C    0.129473
    47  C    0.204686
    48  C   -0.123803
    49  C   -0.186931
    50  C    0.003853
    51  C   -0.023269
    52  C   -0.004025
    53  C   -0.008819
    54  C   -0.240067
    55  C   -0.034677
    56  C    0.055820
    57  C   -0.028461
    58  C   -0.019508
    59  C   -0.206153
    60  C   -0.028150
    61  C   -0.046222
    62  C    0.027118
    63  C   -0.011206
    64  C   -0.252544
    65  C   -0.015115
    66  C   -0.021154
    67  H    0.007494
    68  H   -0.017868
    69  H   -0.005479
    70  H    0.056706
    71  H    0.052439
    72  H    0.037718
    73  H    0.047562
    74  H    0.047596
    75  H    0.042033
    76  H    0.052500
    77  H    0.086825
    78  H    0.052998
    79  H    0.050578
    80  H    0.039818
    81  H    0.072377
    82  H    0.057842
    83  H    0.052857
    84  H    0.075100
    85  H    0.050636
    86  H    0.029585
    87  H    0.036526
    88  H    0.049609
    89  H    0.037178
    90  H    0.041961
    91  H    0.042232
    92  H    0.045747
    93  H    0.048646
    94  H    0.049341
    95  H    0.075150
    96  H    0.053931
    97  H    0.061484
    98  H    0.073241
    99  H    0.066045
   100  H    0.060741
   101  H    0.045450
   102  H    0.052178
   103  H    0.082456
   104  H    0.033884
   105  H    0.043463
   106  H    0.038993
   107  H    0.062299
   108  H    0.046703
   109  H    0.036019
   110  H    0.022470
   111  H    0.035305
   112  H    0.008659
   113  H    0.013749
   114  H    0.037773
   115  H    0.039863
   116  H    0.033399
   117  H    0.023930
   118  H    0.025672
   119  H    0.025498
   120  H    0.028326
   121  H    0.040015
   122  H    0.022573
   123  H    0.016376
   124  H    0.030849
   125  H    0.026610
   126  H    0.030171
   127  H    0.028397
   128  H    0.022528
   129  H    0.028218
   130  H    0.039172
   131  H    0.022039
   132  H    0.025891
   133  H    0.029321
   134  H    0.030539
   135  H    0.018214
   136  H    0.040041
   137  H    0.032225
   138  H    0.035275
   139  H    0.027633
   140  H    0.038172
 Sum of Mulliken charges =  -0.00000

 Dipole moment (field-independent basis, Debye):
    X=              1.9408    Y=             -3.0241    Z=              2.7008  Tot=              4.4951
 Quadrupole moment (field-independent basis, Debye-Ang):
   XX=           -395.6188   YY=           -399.3284   ZZ=           -428.9029
   XY=              1.3291   XZ=             -7.6381   YZ=            -41.3097

 Normal termination of Gaussian 16 at Wed May  4 23:26:36 2022.
