 Gaussian 16, Revision A.03,
 Gaussian 16:  ES64L-G16RevA.03 25-Dec-2016

 --------------------------------
 #p wB97XD/Def2SVP td=(nstates=5)
 --------------------------------

 ---------------------------------------------------
 step_451_chromophore_8 TDDFT with wB97XD functional
 ---------------------------------------------------
 Symbolic Z-matrix:
 Charge =  0 Multiplicity = 1

                         Standard orientation:
 ---------------------------------------------------------------------
 Center     Atomic      Atomic             Coordinates (Angstroms)
 Number     Number       Type             X           Y           Z
 ---------------------------------------------------------------------
      1         12           0       -4.522410   -0.992550    0.226875
      2          6           0       -3.568386    2.247496    1.046853
      3          6           0       -4.394631   -0.025203   -3.116388
      4          6           0       -4.544614   -4.348693   -0.658079
      5          6           0       -3.634713   -1.912270    3.401331
      6          7           0       -3.867492    0.957017   -0.958973
      7          6           0       -3.584813    2.115790   -0.364309
      8          6           0       -3.241357    3.212353   -1.417649
      9          6           0       -3.760574    2.509085   -2.759741
     10          6           0       -4.036153    1.050099   -2.299453
     11          6           0       -4.938012    3.300585   -3.283714
     12          6           0       -1.761404    3.698139   -1.321569
     13          6           0       -1.506655    5.214169   -1.263689
     14          6           0       -0.091699    5.545536   -1.543137
     15          8           0        0.310341    6.411113   -2.351350
     16          8           0        0.710635    4.760094   -0.699644
     17          7           0       -4.711884   -2.063551   -1.632160
     18          6           0       -4.622124   -1.461455   -2.875748
     19          6           0       -4.883845   -2.530658   -3.783841
     20          6           0       -4.774009   -3.828306   -3.179875
     21          6           0       -4.712183   -3.452402   -1.742504
     22          6           0       -5.110751   -2.242067   -5.275587
     23          6           0       -4.817612   -5.253958   -3.744465
     24          8           0       -5.030233   -5.408854   -4.974301
     25          6           0       -4.483257   -6.494675   -2.993853
     26          7           0       -4.041936   -2.841879    1.224013
     27          6           0       -4.330617   -4.079545    0.706303
     28          6           0       -4.224502   -5.220890    1.700406
     29          6           0       -3.682697   -4.452181    2.868126
     30          6           0       -3.794439   -2.969766    2.494183
     31          6           0       -5.580578   -5.916749    1.926223
     32          6           0       -2.200962   -4.902365    3.327044
     33          6           0       -1.811356   -6.388782    3.341152
     34          7           0       -4.002475   -0.073747    2.024644
     35          6           0       -3.732873   -0.502831    3.215763
     36          6           0       -3.520474    0.566648    4.162343
     37          6           0       -3.481142    1.698553    3.392064
     38          6           0       -3.725123    1.246817    2.024086
     39          6           0       -3.172823    0.390412    5.654409
     40          6           0       -3.266480    3.101236    3.360595
     41          8           0       -3.019173    3.864912    4.233495
     42          6           0       -3.339781    3.506173    1.918630
     43          6           0       -4.355169    4.476021    1.725632
     44          8           0       -5.558780    4.287937    1.919867
     45          8           0       -3.921876    5.661165    1.134690
     46          6           0       -4.910036    6.644868    0.682232
     47          6           0        2.159782    5.131061   -0.806583
     48          6           0        2.958774    3.815964   -0.610432
     49          6           0        4.311635    3.749177   -0.353250
     50          6           0        5.149142    5.043258   -0.076750
     51          6           0        5.024082    2.448991   -0.168133
     52          6           0        5.801452    1.876757   -1.462495
     53          6           0        5.140539    0.579820   -1.947695
     54          6           0        6.025273   -0.673376   -1.670117
     55          6           0        5.644092   -1.786602   -2.657766
     56          6           0        5.698723   -1.208376   -0.230737
     57          6           0        6.836809   -0.818708    0.658956
     58          6           0        7.435229   -2.118942    1.348500
     59          6           0        8.727445   -2.660521    0.743035
     60          6           0        8.626309   -4.225706    0.837025
     61          6           0        9.903476   -2.147685    1.644200
     62          6           0       11.304205   -2.299169    1.069062
     63          6           0       11.973878   -0.977813    0.938145
     64          6           0       12.570800   -0.776416   -0.461496
     65          6           0       12.725781    0.715613   -0.696858
     66          6           0       13.958204   -1.549560   -0.714666
     67          1           0       -4.402507    0.305369   -4.156858
     68          1           0       -4.655445   -5.424385   -0.810884
     69          1           0       -3.419416   -2.167257    4.440983
     70          1           0       -3.899992    4.051251   -1.192876
     71          1           0       -2.935296    2.633640   -3.460859
     72          1           0       -5.222625    4.132947   -2.640040
     73          1           0       -5.792792    2.627343   -3.351640
     74          1           0       -4.645911    3.760358   -4.227639
     75          1           0       -1.026776    3.335355   -2.040858
     76          1           0       -1.319176    3.277843   -0.418187
     77          1           0       -1.665057    5.497149   -0.222927
     78          1           0       -2.206290    5.635645   -1.985560
     79          1           0       -4.202229   -1.833623   -5.716247
     80          1           0       -5.794261   -1.399354   -5.173110
     81          1           0       -5.465261   -3.097259   -5.850652
     82          1           0       -3.532321   -6.360835   -2.479553
     83          1           0       -4.250196   -7.323301   -3.662617
     84          1           0       -5.221459   -6.870890   -2.285711
     85          1           0       -3.461664   -5.939907    1.399902
     86          1           0       -4.373756   -4.770521    3.648323
     87          1           0       -5.982132   -6.407904    1.039989
     88          1           0       -6.338359   -5.247259    2.332480
     89          1           0       -5.497595   -6.796189    2.564354
     90          1           0       -1.916358   -4.578883    4.328851
     91          1           0       -1.548735   -4.340758    2.657781
     92          1           0       -2.716886   -6.958617    3.134383
     93          1           0       -1.366663   -6.686748    4.291636
     94          1           0       -1.053305   -6.567125    2.578273
     95          1           0       -2.086990    0.357604    5.745412
     96          1           0       -3.773908   -0.394024    6.113241
     97          1           0       -3.524324    1.337710    6.062945
     98          1           0       -2.379713    3.939931    1.636888
     99          1           0       -4.513803    7.644982    0.506057
    100          1           0       -5.706119    6.805707    1.410166
    101          1           0       -5.415406    6.268968   -0.207697
    102          1           0        2.215904    5.827345    0.030254
    103          1           0        2.462311    5.731313   -1.664935
    104          1           0        2.314284    2.961481   -0.816924
    105          1           0        4.753808    6.003057   -0.408416
    106          1           0        6.042226    4.871515   -0.677751
    107          1           0        5.413016    5.071623    0.980118
    108          1           0        4.204347    1.772832    0.073686
    109          1           0        5.780009    2.476299    0.617197
    110          1           0        6.813317    1.716677   -1.090829
    111          1           0        5.990865    2.667834   -2.189163
    112          1           0        4.831202    0.609723   -2.993115
    113          1           0        4.095575    0.473834   -1.653295
    114          1           0        7.038040   -0.405564   -1.968096
    115          1           0        6.149980   -2.713671   -2.386724
    116          1           0        5.752202   -1.619442   -3.729107
    117          1           0        4.566188   -1.869661   -2.515390
    118          1           0        5.565377   -2.287546   -0.310337
    119          1           0        4.725694   -0.815953    0.063148
    120          1           0        6.483020   -0.257428    1.523743
    121          1           0        7.643145   -0.311603    0.128909
    122          1           0        6.694401   -2.918868    1.381551
    123          1           0        7.668950   -1.803570    2.365964
    124          1           0        8.852770   -2.342110   -0.291741
    125          1           0        9.190092   -4.706505    0.037248
    126          1           0        7.648674   -4.699466    0.748427
    127          1           0        9.008571   -4.679554    1.751051
    128          1           0        9.850530   -2.761067    2.544267
    129          1           0        9.658483   -1.130993    1.952600
    130          1           0       11.226158   -2.821657    0.115579
    131          1           0       11.847615   -2.829626    1.850144
    132          1           0       12.741060   -1.007124    1.711570
    133          1           0       11.322139   -0.134498    1.165906
    134          1           0       11.868283   -1.053795   -1.248114
    135          1           0       13.543688    0.853941   -1.402662
    136          1           0       12.919330    1.203049    0.259367
    137          1           0       11.892401    1.166858   -1.236949
    138          1           0       14.413462   -1.861085    0.225445
    139          1           0       14.687453   -0.920697   -1.223323
    140          1           0       13.867595   -2.401779   -1.388589
 ---------------------------------------------------------------------

 SCF Done:  E(RwB97XD) =  -3007.81709388     A.U. after   19 cycles

 Excitation energies and oscillator strengths:

 Excited State   1:      Singlet-A      1.7059 eV  726.79 nm  f=0.3756  <S**2>=0.000
     245 -> 248       -0.20072
     246 -> 247        0.67914
     245 <- 248       -0.11860
 This state for optimization and/or second-order correction.
 Total Energy, E(TD-HF/TD-DFT) =  -3007.75440278
 Copying the excited state density for this state as the 1-particle RhoCI density.

 Excited State   2:      Singlet-A      2.1823 eV  568.14 nm  f=0.0865  <S**2>=0.000
     245 -> 247        0.63260
     246 -> 248        0.30471

 Excited State   3:      Singlet-A      3.3116 eV  374.39 nm  f=0.0145  <S**2>=0.000
     244 -> 247        0.66275
     244 -> 249        0.11521
     246 -> 248       -0.16378

 Excited State   4:      Singlet-A      3.5176 eV  352.47 nm  f=0.6142  <S**2>=0.000
     241 -> 247       -0.22280
     244 -> 247        0.12909
     245 -> 247       -0.27919
     246 -> 248        0.57822
     245 <- 247        0.11191

 Excited State   5:      Singlet-A      3.5553 eV  348.73 nm  f=0.0006  <S**2>=0.000
     242 -> 247        0.44639
     242 -> 248        0.13809
     242 -> 249        0.37414
     242 -> 250       -0.25461
     242 -> 251        0.20916

 The electronic state is 1-A.
 Alpha  occ. eigenvalues --  -46.97490 -19.30753 -19.30601 -19.25100 -19.24958
 Alpha  occ. eigenvalues --  -19.24858 -19.23017 -14.47125 -14.46870 -14.44744
 Alpha  occ. eigenvalues --  -14.44387 -10.43645 -10.43440 -10.39205 -10.39161
 Alpha  occ. eigenvalues --  -10.36131 -10.36029 -10.35823 -10.35329 -10.35305
 Alpha  occ. eigenvalues --  -10.34664 -10.34272 -10.34255 -10.34248 -10.34091
 Alpha  occ. eigenvalues --  -10.33263 -10.33143 -10.32998 -10.32521 -10.32467
 Alpha  occ. eigenvalues --  -10.32141 -10.31902 -10.31885 -10.31761 -10.31689
 Alpha  occ. eigenvalues --  -10.31212 -10.31073 -10.31027 -10.30931 -10.30874
 Alpha  occ. eigenvalues --  -10.30852 -10.30792 -10.30733 -10.30298 -10.30120
 Alpha  occ. eigenvalues --  -10.30102 -10.30048 -10.30016 -10.29952 -10.29823
 Alpha  occ. eigenvalues --  -10.29786 -10.29780 -10.29679 -10.29649 -10.28807
 Alpha  occ. eigenvalues --  -10.28611 -10.28559 -10.28539 -10.28429 -10.28312
 Alpha  occ. eigenvalues --  -10.28212 -10.28074 -10.28049 -10.27946 -10.27769
 Alpha  occ. eigenvalues --  -10.27710  -3.23221  -1.96775  -1.96352  -1.96160
 Alpha  occ. eigenvalues --   -1.18295  -1.16971  -1.15262  -1.09814  -1.09521
 Alpha  occ. eigenvalues --   -1.09034  -1.08965  -1.07679  -1.06471  -1.03603
 Alpha  occ. eigenvalues --   -0.96487  -0.92310  -0.91981  -0.91935  -0.91521
 Alpha  occ. eigenvalues --   -0.90564  -0.90489  -0.90021  -0.89236  -0.89047
 Alpha  occ. eigenvalues --   -0.88031  -0.87031  -0.86620  -0.85951  -0.85681
 Alpha  occ. eigenvalues --   -0.84486  -0.84212  -0.83203  -0.82879  -0.82552
 Alpha  occ. eigenvalues --   -0.81643  -0.80493  -0.80042  -0.79434  -0.79144
 Alpha  occ. eigenvalues --   -0.77499  -0.77200  -0.76991  -0.76603  -0.75603
 Alpha  occ. eigenvalues --   -0.75455  -0.74369  -0.74115  -0.72559  -0.72348
 Alpha  occ. eigenvalues --   -0.71514  -0.70111  -0.69098  -0.68866  -0.68211
 Alpha  occ. eigenvalues --   -0.67723  -0.67429  -0.67014  -0.66481  -0.66339
 Alpha  occ. eigenvalues --   -0.65561  -0.65410  -0.65335  -0.64605  -0.63072
 Alpha  occ. eigenvalues --   -0.62230  -0.62143  -0.61751  -0.61533  -0.61127
 Alpha  occ. eigenvalues --   -0.59902  -0.58820  -0.58560  -0.58137  -0.57938
 Alpha  occ. eigenvalues --   -0.57617  -0.57162  -0.56954  -0.56543  -0.56302
 Alpha  occ. eigenvalues --   -0.55852  -0.55733  -0.55560  -0.55018  -0.54731
 Alpha  occ. eigenvalues --   -0.54505  -0.54349  -0.54236  -0.53912  -0.53704
 Alpha  occ. eigenvalues --   -0.53461  -0.53320  -0.53054  -0.52873  -0.52742
 Alpha  occ. eigenvalues --   -0.52245  -0.52088  -0.52007  -0.51815  -0.51713
 Alpha  occ. eigenvalues --   -0.51453  -0.51239  -0.51101  -0.50992  -0.50824
 Alpha  occ. eigenvalues --   -0.50606  -0.50456  -0.50237  -0.50158  -0.49923
 Alpha  occ. eigenvalues --   -0.49443  -0.49225  -0.48925  -0.48849  -0.48757
 Alpha  occ. eigenvalues --   -0.48418  -0.48345  -0.48120  -0.48050  -0.48002
 Alpha  occ. eigenvalues --   -0.47622  -0.47451  -0.47199  -0.47089  -0.47004
 Alpha  occ. eigenvalues --   -0.46669  -0.46526  -0.46156  -0.45891  -0.45671
 Alpha  occ. eigenvalues --   -0.45556  -0.45409  -0.45251  -0.45093  -0.44935
 Alpha  occ. eigenvalues --   -0.44894  -0.44848  -0.44798  -0.44628  -0.44124
 Alpha  occ. eigenvalues --   -0.44098  -0.43953  -0.43815  -0.43285  -0.42977
 Alpha  occ. eigenvalues --   -0.42947  -0.42479  -0.42287  -0.42149  -0.42088
 Alpha  occ. eigenvalues --   -0.41988  -0.41588  -0.41354  -0.40917  -0.40656
 Alpha  occ. eigenvalues --   -0.40301  -0.40289  -0.39984  -0.39739  -0.39693
 Alpha  occ. eigenvalues --   -0.39264  -0.38929  -0.38818  -0.38677  -0.38359
 Alpha  occ. eigenvalues --   -0.38068  -0.37172  -0.37046  -0.36833  -0.36568
 Alpha  occ. eigenvalues --   -0.35947  -0.35591  -0.35281  -0.34418  -0.34305
 Alpha  occ. eigenvalues --   -0.33674  -0.32376  -0.31163  -0.30862  -0.26193
 Alpha  occ. eigenvalues --   -0.23327
 Alpha virt. eigenvalues --   -0.07110  -0.00303   0.01893   0.04167   0.04214
 Alpha virt. eigenvalues --    0.05981   0.06604   0.07410   0.07694   0.09771
 Alpha virt. eigenvalues --    0.10249   0.11005   0.11613   0.11812   0.11977

 Mulliken charges:
               1
     1  Mg   0.962192
     2  C   -0.027853
     3  C   -0.046112
     4  C   -0.057616
     5  C   -0.102445
     6  N   -0.297125
     7  C   -0.045011
     8  C   -0.029297
     9  C   -0.095191
    10  C    0.028876
    11  C    0.030095
    12  C   -0.025557
    13  C    0.033339
    14  C    0.213760
    15  O   -0.275516
    16  O   -0.404021
    17  N   -0.459001
    18  C    0.149171
    19  C   -0.181789
    20  C   -0.075972
    21  C    0.181035
    22  C    0.072025
    23  C    0.069532
    24  O   -0.266923
    25  C   -0.009510
    26  N   -0.328284
    27  C    0.005267
    28  C   -0.103142
    29  C   -0.029485
    30  C    0.087809
    31  C    0.032125
    32  C   -0.040486
    33  C   -0.058035
    34  N   -0.381238
    35  C    0.080456
    36  C   -0.210922
    37  C   -0.022431
    38  C    0.124239
    39  C    0.086698
    40  C    0.107335
    41  O   -0.154992
    42  C   -0.038958
    43  C    0.261306
    44  O   -0.259927
    45  O   -0.382232
    46  C    0.144013
    47  C    0.214891
    48  C   -0.131939
    49  C   -0.175923
    50  C    0.019048
    51  C    0.000219
    52  C    0.007993
    53  C    0.003330
    54  C   -0.205569
    55  C   -0.018255
    56  C    0.066781
    57  C   -0.011291
    58  C    0.000384
    59  C   -0.177866
    60  C   -0.018080
    61  C   -0.026703
    62  C    0.041251
    63  C    0.003979
    64  C   -0.223234
    65  C   -0.001428
    66  C   -0.009851
    67  H    0.002130
    68  H   -0.034187
    69  H   -0.012039
    70  H    0.030715
    71  H    0.043491
    72  H    0.031607
    73  H    0.041692
    74  H    0.042844
    75  H    0.034703
    76  H    0.040817
    77  H    0.074658
    78  H    0.047334
    79  H    0.043790
    80  H    0.030915
    81  H    0.068542
    82  H    0.051233
    83  H    0.050924
    84  H    0.070866
    85  H    0.038956
    86  H    0.018742
    87  H    0.030785
    88  H    0.043553
    89  H    0.030585
    90  H    0.034334
    91  H    0.033393
    92  H    0.036614
    93  H    0.044007
    94  H    0.043919
    95  H    0.072208
    96  H    0.050592
    97  H    0.057555
    98  H    0.064176
    99  H    0.063577
   100  H    0.056862
   101  H    0.041695
   102  H    0.046827
   103  H    0.078753
   104  H    0.030926
   105  H    0.039196
   106  H    0.031541
   107  H    0.056966
   108  H    0.034624
   109  H    0.029162
   110  H    0.012519
   111  H    0.029055
   112  H    0.001355
   113  H    0.002622
   114  H    0.025691
   115  H    0.032583
   116  H    0.028498
   117  H    0.014711
   118  H    0.014075
   119  H    0.017643
   120  H    0.021078
   121  H    0.027218
   122  H    0.012039
   123  H    0.006846
   124  H    0.018265
   125  H    0.020945
   126  H    0.023939
   127  H    0.022136
   128  H    0.011950
   129  H    0.015742
   130  H    0.028178
   131  H    0.015418
   132  H    0.017612
   133  H    0.018669
   134  H    0.019299
   135  H    0.011128
   136  H    0.033192
   137  H    0.026894
   138  H    0.029007
   139  H    0.021309
   140  H    0.032860
 Sum of Mulliken charges =  -0.00000

 Dipole moment (field-independent basis, Debye):
    X=              2.0156    Y=             -2.6193    Z=              3.1688  Tot=              4.5787
 Quadrupole moment (field-independent basis, Debye-Ang):
   XX=           -395.4946   YY=           -399.2117   ZZ=           -428.5578
   XY=             -0.3107   XZ=             -9.5714   YZ=            -40.9266

 Normal termination of Gaussian 16 at Thu May  5 00:05:11 2022.
