 Gaussian 16, Revision A.03,
 Gaussian 16:  ES64L-G16RevA.03 25-Dec-2016

 --------------------
 #p ZINDO=(nstates=5)
 --------------------

 ----------------------------
 step_451_chromophore_8 ZINDO
 ----------------------------
 Symbolic Z-matrix:
 Charge =  0 Multiplicity = 1

                         Standard orientation:
 ---------------------------------------------------------------------
 Center     Atomic      Atomic             Coordinates (Angstroms)
 Number     Number       Type             X           Y           Z
 ---------------------------------------------------------------------
      1         12           0       -4.522410   -0.992550    0.226875
      2          6           0       -3.568386    2.247496    1.046853
      3          6           0       -4.394631   -0.025203   -3.116388
      4          6           0       -4.544614   -4.348693   -0.658079
      5          6           0       -3.634713   -1.912270    3.401331
      6          7           0       -3.867492    0.957017   -0.958973
      7          6           0       -3.584813    2.115790   -0.364309
      8          6           0       -3.241357    3.212353   -1.417649
      9          6           0       -3.760574    2.509085   -2.759741
     10          6           0       -4.036153    1.050099   -2.299453
     11          6           0       -4.938012    3.300585   -3.283714
     12          6           0       -1.761404    3.698139   -1.321569
     13          6           0       -1.506655    5.214169   -1.263689
     14          6           0       -0.091699    5.545536   -1.543137
     15          8           0        0.310341    6.411113   -2.351350
     16          8           0        0.710635    4.760094   -0.699644
     17          7           0       -4.711884   -2.063551   -1.632160
     18          6           0       -4.622124   -1.461455   -2.875748
     19          6           0       -4.883845   -2.530658   -3.783841
     20          6           0       -4.774009   -3.828306   -3.179875
     21          6           0       -4.712183   -3.452402   -1.742504
     22          6           0       -5.110751   -2.242067   -5.275587
     23          6           0       -4.817612   -5.253958   -3.744465
     24          8           0       -5.030233   -5.408854   -4.974301
     25          6           0       -4.483257   -6.494675   -2.993853
     26          7           0       -4.041936   -2.841879    1.224013
     27          6           0       -4.330617   -4.079545    0.706303
     28          6           0       -4.224502   -5.220890    1.700406
     29          6           0       -3.682697   -4.452181    2.868126
     30          6           0       -3.794439   -2.969766    2.494183
     31          6           0       -5.580578   -5.916749    1.926223
     32          6           0       -2.200962   -4.902365    3.327044
     33          6           0       -1.811356   -6.388782    3.341152
     34          7           0       -4.002475   -0.073747    2.024644
     35          6           0       -3.732873   -0.502831    3.215763
     36          6           0       -3.520474    0.566648    4.162343
     37          6           0       -3.481142    1.698553    3.392064
     38          6           0       -3.725123    1.246817    2.024086
     39          6           0       -3.172823    0.390412    5.654409
     40          6           0       -3.266480    3.101236    3.360595
     41          8           0       -3.019173    3.864912    4.233495
     42          6           0       -3.339781    3.506173    1.918630
     43          6           0       -4.355169    4.476021    1.725632
     44          8           0       -5.558780    4.287937    1.919867
     45          8           0       -3.921876    5.661165    1.134690
     46          6           0       -4.910036    6.644868    0.682232
     47          6           0        2.159782    5.131061   -0.806583
     48          6           0        2.958774    3.815964   -0.610432
     49          6           0        4.311635    3.749177   -0.353250
     50          6           0        5.149142    5.043258   -0.076750
     51          6           0        5.024082    2.448991   -0.168133
     52          6           0        5.801452    1.876757   -1.462495
     53          6           0        5.140539    0.579820   -1.947695
     54          6           0        6.025273   -0.673376   -1.670117
     55          6           0        5.644092   -1.786602   -2.657766
     56          6           0        5.698723   -1.208376   -0.230737
     57          6           0        6.836809   -0.818708    0.658956
     58          6           0        7.435229   -2.118942    1.348500
     59          6           0        8.727445   -2.660521    0.743035
     60          6           0        8.626309   -4.225706    0.837025
     61          6           0        9.903476   -2.147685    1.644200
     62          6           0       11.304205   -2.299169    1.069062
     63          6           0       11.973878   -0.977813    0.938145
     64          6           0       12.570800   -0.776416   -0.461496
     65          6           0       12.725781    0.715613   -0.696858
     66          6           0       13.958204   -1.549560   -0.714666
     67          1           0       -4.402507    0.305369   -4.156858
     68          1           0       -4.655445   -5.424385   -0.810884
     69          1           0       -3.419416   -2.167257    4.440983
     70          1           0       -3.899992    4.051251   -1.192876
     71          1           0       -2.935296    2.633640   -3.460859
     72          1           0       -5.222625    4.132947   -2.640040
     73          1           0       -5.792792    2.627343   -3.351640
     74          1           0       -4.645911    3.760358   -4.227639
     75          1           0       -1.026776    3.335355   -2.040858
     76          1           0       -1.319176    3.277843   -0.418187
     77          1           0       -1.665057    5.497149   -0.222927
     78          1           0       -2.206290    5.635645   -1.985560
     79          1           0       -4.202229   -1.833623   -5.716247
     80          1           0       -5.794261   -1.399354   -5.173110
     81          1           0       -5.465261   -3.097259   -5.850652
     82          1           0       -3.532321   -6.360835   -2.479553
     83          1           0       -4.250196   -7.323301   -3.662617
     84          1           0       -5.221459   -6.870890   -2.285711
     85          1           0       -3.461664   -5.939907    1.399902
     86          1           0       -4.373756   -4.770521    3.648323
     87          1           0       -5.982132   -6.407904    1.039989
     88          1           0       -6.338359   -5.247259    2.332480
     89          1           0       -5.497595   -6.796189    2.564354
     90          1           0       -1.916358   -4.578883    4.328851
     91          1           0       -1.548735   -4.340758    2.657781
     92          1           0       -2.716886   -6.958617    3.134383
     93          1           0       -1.366663   -6.686748    4.291636
     94          1           0       -1.053305   -6.567125    2.578273
     95          1           0       -2.086990    0.357604    5.745412
     96          1           0       -3.773908   -0.394024    6.113241
     97          1           0       -3.524324    1.337710    6.062945
     98          1           0       -2.379713    3.939931    1.636888
     99          1           0       -4.513803    7.644982    0.506057
    100          1           0       -5.706119    6.805707    1.410166
    101          1           0       -5.415406    6.268968   -0.207697
    102          1           0        2.215904    5.827345    0.030254
    103          1           0        2.462311    5.731313   -1.664935
    104          1           0        2.314284    2.961481   -0.816924
    105          1           0        4.753808    6.003057   -0.408416
    106          1           0        6.042226    4.871515   -0.677751
    107          1           0        5.413016    5.071623    0.980118
    108          1           0        4.204347    1.772832    0.073686
    109          1           0        5.780009    2.476299    0.617197
    110          1           0        6.813317    1.716677   -1.090829
    111          1           0        5.990865    2.667834   -2.189163
    112          1           0        4.831202    0.609723   -2.993115
    113          1           0        4.095575    0.473834   -1.653295
    114          1           0        7.038040   -0.405564   -1.968096
    115          1           0        6.149980   -2.713671   -2.386724
    116          1           0        5.752202   -1.619442   -3.729107
    117          1           0        4.566188   -1.869661   -2.515390
    118          1           0        5.565377   -2.287546   -0.310337
    119          1           0        4.725694   -0.815953    0.063148
    120          1           0        6.483020   -0.257428    1.523743
    121          1           0        7.643145   -0.311603    0.128909
    122          1           0        6.694401   -2.918868    1.381551
    123          1           0        7.668950   -1.803570    2.365964
    124          1           0        8.852770   -2.342110   -0.291741
    125          1           0        9.190092   -4.706505    0.037248
    126          1           0        7.648674   -4.699466    0.748427
    127          1           0        9.008571   -4.679554    1.751051
    128          1           0        9.850530   -2.761067    2.544267
    129          1           0        9.658483   -1.130993    1.952600
    130          1           0       11.226158   -2.821657    0.115579
    131          1           0       11.847615   -2.829626    1.850144
    132          1           0       12.741060   -1.007124    1.711570
    133          1           0       11.322139   -0.134498    1.165906
    134          1           0       11.868283   -1.053795   -1.248114
    135          1           0       13.543688    0.853941   -1.402662
    136          1           0       12.919330    1.203049    0.259367
    137          1           0       11.892401    1.166858   -1.236949
    138          1           0       14.413462   -1.861085    0.225445
    139          1           0       14.687453   -0.920697   -1.223323
    140          1           0       13.867595   -2.401779   -1.388589
 ---------------------------------------------------------------------

 SCF Done:  E(RZINDO/S) =  -474.311468848     A.U. after   18 cycles

 Excitation energies and oscillator strengths:

 Excited State   1:      Singlet-A      1.3000 eV  953.73 nm  f=0.5721  <S**2>=0.000
     175 ->178         0.19238
     176 ->177         0.66345
 This state for optimization and/or second-order correction.
 Total Energy, E(CIS/TDA) =  -474.263695037
 Copying the excited state density for this state as the 1-particle RhoCI density.

 Excited State   2:      Singlet-A      1.8878 eV  656.78 nm  f=0.0221  <S**2>=0.000
     175 ->177         0.52940
     176 ->178        -0.43900

 Excited State   3:      Singlet-A      2.8836 eV  429.96 nm  f=0.0177  <S**2>=0.000
     176 ->179         0.20448
     176 ->180         0.65750

 Excited State   4:      Singlet-A      2.9139 eV  425.49 nm  f=0.1872  <S**2>=0.000
     168 ->177         0.35546
     168 ->178        -0.13354
     168 ->179        -0.35207
     168 ->182         0.12307
     168 ->183        -0.16944
     168 ->186        -0.16285
     175 ->177         0.16568
     176 ->178         0.21317
     176 ->180         0.11523

 Excited State   5:      Singlet-A      2.9393 eV  421.82 nm  f=0.8706  <S**2>=0.000
     168 ->177        -0.17248
     168 ->179         0.17211
     175 ->177         0.35455
     176 ->178         0.45924
     176 ->179         0.12047

 The electronic state is 1-A.
 Alpha  occ. eigenvalues --   -1.88913  -1.83177  -1.78471  -1.73968  -1.72235
 Alpha  occ. eigenvalues --   -1.70603  -1.67198  -1.63275  -1.62388  -1.56045
 Alpha  occ. eigenvalues --   -1.54898  -1.50596  -1.50422  -1.48091  -1.46861
 Alpha  occ. eigenvalues --   -1.45269  -1.43245  -1.40921  -1.39037  -1.38222
 Alpha  occ. eigenvalues --   -1.35623  -1.35508  -1.32229  -1.30906  -1.29308
 Alpha  occ. eigenvalues --   -1.28450  -1.27252  -1.22764  -1.19705  -1.18521
 Alpha  occ. eigenvalues --   -1.17803  -1.15400  -1.14673  -1.13907  -1.13566
 Alpha  occ. eigenvalues --   -1.12734  -1.09771  -1.09573  -1.06649  -1.04380
 Alpha  occ. eigenvalues --   -1.02540  -1.01746  -0.98545  -0.97642  -0.96924
 Alpha  occ. eigenvalues --   -0.95871  -0.95479  -0.94019  -0.93107  -0.92134
 Alpha  occ. eigenvalues --   -0.91633  -0.91411  -0.89718  -0.88683  -0.87291
 Alpha  occ. eigenvalues --   -0.86000  -0.85465  -0.84145  -0.83625  -0.82145
 Alpha  occ. eigenvalues --   -0.81238  -0.79529  -0.78302  -0.77593  -0.77006
 Alpha  occ. eigenvalues --   -0.76620  -0.76211  -0.75956  -0.74698  -0.73694
 Alpha  occ. eigenvalues --   -0.73530  -0.73026  -0.72373  -0.72106  -0.71340
 Alpha  occ. eigenvalues --   -0.70153  -0.69712  -0.69564  -0.68313  -0.67863
 Alpha  occ. eigenvalues --   -0.67676  -0.66882  -0.66526  -0.66393  -0.65973
 Alpha  occ. eigenvalues --   -0.65645  -0.64620  -0.64543  -0.64404  -0.64112
 Alpha  occ. eigenvalues --   -0.63615  -0.63310  -0.62871  -0.62599  -0.61663
 Alpha  occ. eigenvalues --   -0.61315  -0.61061  -0.60948  -0.60468  -0.60164
 Alpha  occ. eigenvalues --   -0.59778  -0.58815  -0.58769  -0.58762  -0.58690
 Alpha  occ. eigenvalues --   -0.58348  -0.58129  -0.57697  -0.57374  -0.56424
 Alpha  occ. eigenvalues --   -0.56357  -0.56121  -0.55943  -0.55177  -0.54942
 Alpha  occ. eigenvalues --   -0.54584  -0.54103  -0.53690  -0.53536  -0.53094
 Alpha  occ. eigenvalues --   -0.52372  -0.52279  -0.52120  -0.51962  -0.51650
 Alpha  occ. eigenvalues --   -0.51449  -0.51223  -0.50890  -0.50185  -0.50056
 Alpha  occ. eigenvalues --   -0.49915  -0.49633  -0.49470  -0.49266  -0.49148
 Alpha  occ. eigenvalues --   -0.48969  -0.48756  -0.48655  -0.48288  -0.48108
 Alpha  occ. eigenvalues --   -0.47943  -0.47803  -0.47708  -0.47407  -0.47251
 Alpha  occ. eigenvalues --   -0.47017  -0.46549  -0.46121  -0.45913  -0.45825
 Alpha  occ. eigenvalues --   -0.45539  -0.44716  -0.44243  -0.44181  -0.43563
 Alpha  occ. eigenvalues --   -0.43194  -0.42947  -0.42930  -0.42403  -0.42329
 Alpha  occ. eigenvalues --   -0.42190  -0.42133  -0.40670  -0.39293  -0.39131
 Alpha  occ. eigenvalues --   -0.38662  -0.37964  -0.36326  -0.35264  -0.34654
 Alpha  occ. eigenvalues --   -0.34487  -0.33288  -0.32077  -0.31322  -0.26978
 Alpha  occ. eigenvalues --   -0.22072
 Alpha virt. eigenvalues --   -0.08564  -0.02686  -0.01022   0.00153   0.01076
 Alpha virt. eigenvalues --    0.01268   0.01552   0.02826   0.04142   0.04467
 Alpha virt. eigenvalues --    0.06091   0.06225   0.06766   0.07480   0.07766

 Mulliken charges:
               1
     1  Mg   0.439065
     2  C   -0.057998
     3  C   -0.057222
     4  C   -0.082786
     5  C   -0.107287
     6  N   -0.273451
     7  C    0.153481
     8  C   -0.003494
     9  C    0.008229
    10  C    0.096825
    11  C   -0.047835
    12  C   -0.027678
    13  C    0.007895
    14  C    0.470692
    15  O   -0.524242
    16  O   -0.279485
    17  N   -0.322266
    18  C    0.072480
    19  C    0.035404
    20  C   -0.069138
    21  C    0.102454
    22  C   -0.053971
    23  C    0.332232
    24  O   -0.541165
    25  C   -0.020105
    26  N   -0.261630
    27  C    0.100232
    28  C    0.006716
    29  C    0.005293
    30  C    0.172779
    31  C   -0.047851
    32  C   -0.037211
    33  C   -0.055257
    34  N   -0.302216
    35  C    0.151201
    36  C    0.045042
    37  C   -0.036587
    38  C    0.114734
    39  C   -0.042878
    40  C    0.359044
    41  O   -0.499575
    42  C    0.068236
    43  C    0.500186
    44  O   -0.534366
    45  O   -0.285456
    46  C    0.077249
    47  C    0.092919
    48  C   -0.098374
    49  C   -0.003952
    50  C   -0.048284
    51  C   -0.023849
    52  C   -0.033110
    53  C   -0.036559
    54  C   -0.014504
    55  C   -0.065203
    56  C   -0.023475
    57  C   -0.038502
    58  C   -0.045709
    59  C   -0.008014
    60  C   -0.062769
    61  C   -0.037670
    62  C   -0.036470
    63  C   -0.025770
    64  C   -0.013348
    65  C   -0.060958
    66  C   -0.061928
    67  H    0.022980
    68  H    0.027880
    69  H    0.012357
    70  H    0.034233
    71  H    0.032264
    72  H    0.021009
    73  H    0.027362
    74  H    0.020869
    75  H    0.032392
    76  H    0.016176
    77  H    0.051700
    78  H    0.041362
    79  H    0.026189
    80  H    0.023466
    81  H    0.047129
    82  H    0.026937
    83  H    0.031658
    84  H    0.041373
    85  H    0.033965
    86  H    0.024136
    87  H    0.018071
    88  H    0.027692
    89  H    0.012991
    90  H    0.017974
    91  H    0.017529
    92  H    0.023034
    93  H    0.022238
    94  H    0.021107
    95  H    0.046537
    96  H    0.036925
    97  H    0.031330
    98  H    0.045146
    99  H    0.039343
   100  H    0.044804
   101  H    0.036333
   102  H    0.036757
   103  H    0.067966
   104  H    0.038547
   105  H    0.029516
   106  H    0.020666
   107  H    0.032281
   108  H    0.024223
   109  H    0.025235
   110  H    0.013423
   111  H    0.027513
   112  H    0.009014
   113  H    0.022334
   114  H    0.031893
   115  H    0.015268
   116  H    0.016518
   117  H    0.010971
   118  H    0.022449
   119  H    0.023636
   120  H    0.015552
   121  H    0.030164
   122  H    0.021621
   123  H    0.011684
   124  H    0.029248
   125  H    0.005921
   126  H    0.016577
   127  H    0.018645
   128  H    0.012825
   129  H    0.018705
   130  H    0.028053
   131  H    0.018450
   132  H    0.017568
   133  H    0.020078
   134  H    0.020800
   135  H    0.010583
   136  H    0.022062
   137  H    0.016021
   138  H    0.021275
   139  H    0.017717
   140  H    0.018961
 Sum of Mulliken charges =  -0.00000

 Dipole moment (field-independent basis, Debye):
    X=              3.2203    Y=             -1.9695    Z=              6.1300  Tot=              7.1991
 N-N= 4.446298151025D+03 E-N= 0.000000000000D+00  KE=-9.565796885294D+03
 Leave Link  601 at Thu May  5 00:21:38 2022, MaxMem=  6710886400 cpu:               0.8 elap:               0.0
 (Enter /sw/apps/gaussian-16.0/g16/l9999.exe)
 1\1\GINC-BP1-COMPUTE181\SP\RZINDO CIS\STO-3G\C55H74Mg1N4O6\OF15641\05-
 May-2022\0\\#p ZINDO=(nstates=5)\\step_451_chromophore_8 ZINDO\\0,1\Mg
 ,0,44.978,2.28,47.421\C,0,42.944,5.066,46.995\C,0,42.096,0.333,47.24\C
 ,0,46.99,-0.501,46.906\C,0,47.64,4.266,46.596\N,0,42.678,2.677,46.987\
 C,0,42.147,3.897,46.91\C,0,40.609,3.82,46.668\C,0,40.332,2.278,47.001\
 C,0,41.765,1.682,47.089\C,0,39.479,2.209,48.248\C,0,40.187,4.4,45.282\
 C,0,39.042,5.427,45.253\C,0,38.504,5.613,43.887\O,0,37.295,5.588,43.56

 Normal termination of Gaussian 16 at Thu May  5 00:21:38 2022.
