 Gaussian 16, Revision A.03,
 Gaussian 16:  ES64L-G16RevA.03 25-Dec-2016

 ------------------------------
 #p blyp/Def2SVP td=(nstates=5)
 ------------------------------

 --------------------------------------------------
 step_1851_chromophore_2 TDDFT with blyp functional
 --------------------------------------------------
 Symbolic Z-matrix:
 Charge =  0 Multiplicity = 1

                         Standard orientation:
 ---------------------------------------------------------------------
 Center     Atomic      Atomic             Coordinates (Angstroms)
 Number     Number       Type             X           Y           Z
 ---------------------------------------------------------------------
      1         12           0        4.237030    1.134141   -0.362177
      2          6           0        4.086835   -2.429085   -0.709109
      3          6           0        1.819494    1.442791   -2.838090
      4          6           0        4.041100    4.378972    0.270780
      5          6           0        6.390842    0.659522    2.413378
      6          7           0        3.043524   -0.363983   -1.614620
      7          6           0        3.183350   -1.754897   -1.582809
      8          6           0        2.352479   -2.479261   -2.650306
      9          6           0        1.965630   -1.149479   -3.553654
     10          6           0        2.252286    0.089288   -2.596627
     11          6           0        2.690973   -1.010992   -4.909140
     12          6           0        1.173519   -3.419902   -2.188415
     13          6           0        0.259769   -2.823886   -1.173619
     14          6           0       -1.243142   -3.052022   -1.348500
     15          8           0       -1.828840   -3.412926   -2.374538
     16          8           0       -1.826853   -2.592727   -0.195183
     17          7           0        3.021417    2.671267   -1.074325
     18          6           0        2.153771    2.637344   -2.146651
     19          6           0        1.637200    3.944987   -2.449750
     20          6           0        2.335512    4.764854   -1.524281
     21          6           0        3.232376    3.954191   -0.767503
     22          6           0        0.653159    4.327689   -3.441393
     23          6           0        2.065745    6.235284   -1.437208
     24          8           0        1.316677    6.810781   -2.229395
     25          6           0        2.738581    7.156160   -0.413712
     26          7           0        5.107631    2.321359    1.078707
     27          6           0        5.002883    3.663003    1.077992
     28          6           0        5.741267    4.277338    2.256987
     29          6           0        6.645519    3.190023    2.782528
     30          6           0        5.929195    1.970521    2.120819
     31          6           0        6.444899    5.659727    2.128338
     32          6           0        6.627141    3.092702    4.330378
     33          6           0        7.998369    3.061831    5.031302
     34          7           0        5.136067   -0.495480    0.593273
     35          6           0        5.938128   -0.526112    1.735802
     36          6           0        6.296033   -1.878035    2.040061
     37          6           0        5.648092   -2.621590    1.076001
     38          6           0        4.895934   -1.791483    0.241686
     39          6           0        7.181315   -2.346413    3.139951
     40          6           0        5.364516   -4.016292    0.667142
     41          8           0        5.831953   -5.089147    1.054541
     42          6           0        4.385583   -3.972088   -0.560311
     43          6           0        4.953747   -4.624827   -1.749471
     44          8           0        4.319535   -5.336039   -2.481127
     45          8           0        6.330748   -4.464590   -1.789553
     46          6           0        6.955018   -5.444734   -2.768118
     47          6           0       -3.332887   -2.685382   -0.131367
     48          6           0       -3.789457   -3.126967    1.225574
     49          6           0       -4.188222   -2.378990    2.256293
     50          6           0       -4.208540   -0.896292    2.401255
     51          6           0       -4.864245   -3.184273    3.451473
     52          6           0       -6.311652   -3.605761    3.372281
     53          6           0       -6.863989   -3.768880    1.910230
     54          6           0       -8.353215   -3.685153    1.743079
     55          6           0       -9.074298   -5.037944    1.854282
     56          6           0       -8.882888   -2.903160    0.531294
     57          6           0       -9.346947   -1.453465    0.913541
     58          6           0       -8.093309   -0.515555    1.011805
     59          6           0       -8.198062    0.651737   -0.004590
     60          6           0       -6.830661    0.906400   -0.674677
     61          6           0       -8.788342    1.965269    0.625466
     62          6           0       -9.396410    2.848311   -0.519091
     63          6           0      -10.934034    2.811683   -0.550443
     64          6           0      -11.643614    4.129274   -0.694563
     65          6           0      -12.375881    4.617293    0.518515
     66          6           0      -12.725731    4.048324   -1.711246
     67          1           0        1.131653    1.514284   -3.683879
     68          1           0        4.122308    5.416431    0.604020
     69          1           0        7.273086    0.611593    3.055401
     70          1           0        3.101629   -3.092737   -3.151679
     71          1           0        0.886430   -1.089738   -3.693085
     72          1           0        3.263701   -0.083379   -4.934232
     73          1           0        1.982448   -1.112887   -5.731205
     74          1           0        3.396151   -1.831977   -5.035177
     75          1           0        1.654022   -4.356978   -1.909986
     76          1           0        0.612547   -3.544435   -3.114680
     77          1           0        0.364259   -1.742162   -1.093840
     78          1           0        0.463002   -3.293191   -0.210830
     79          1           0        0.141034    3.445830   -3.826880
     80          1           0        1.079239    4.852403   -4.296436
     81          1           0       -0.195269    4.904664   -3.074823
     82          1           0        3.782500    7.132084   -0.726495
     83          1           0        2.460453    7.152054    0.640237
     84          1           0        2.270942    8.087974   -0.730843
     85          1           0        4.884580    4.520097    2.885775
     86          1           0        7.664344    3.187329    2.395967
     87          1           0        7.481261    5.579167    2.458366
     88          1           0        6.053129    6.586186    2.546266
     89          1           0        6.334631    5.829503    1.056766
     90          1           0        6.046796    2.183977    4.489821
     91          1           0        6.028104    3.872152    4.801772
     92          1           0        8.063020    3.778553    5.850167
     93          1           0        8.757193    3.553319    4.423515
     94          1           0        8.326938    2.057572    5.299525
     95          1           0        6.662887   -2.229792    4.090947
     96          1           0        8.030626   -1.670847    3.041042
     97          1           0        7.421201   -3.405661    3.044613
     98          1           0        3.501636   -4.520005   -0.232271
     99          1           0        6.416897   -6.392802   -2.791995
    100          1           0        7.936796   -5.589593   -2.317988
    101          1           0        7.042121   -5.089662   -3.794574
    102          1           0       -3.796631   -3.395317   -0.815683
    103          1           0       -3.750282   -1.697847   -0.329198
    104          1           0       -4.005544   -4.190311    1.320068
    105          1           0       -3.942526   -0.626489    3.423130
    106          1           0       -5.207469   -0.572446    2.110926
    107          1           0       -3.554744   -0.407882    1.678360
    108          1           0       -4.663625   -2.622087    4.364060
    109          1           0       -4.154220   -3.981195    3.671666
    110          1           0       -6.969894   -3.147749    4.109804
    111          1           0       -6.349210   -4.639336    3.717228
    112          1           0       -6.584020   -4.763719    1.566421
    113          1           0       -6.386266   -3.014550    1.284975
    114          1           0       -8.649060   -3.101795    2.615515
    115          1           0      -10.078137   -5.184249    1.455679
    116          1           0       -9.354440   -5.220130    2.891851
    117          1           0       -8.420012   -5.862924    1.571647
    118          1           0       -9.555630   -3.408499   -0.160877
    119          1           0       -8.055217   -2.626620   -0.122494
    120          1           0       -9.912852   -1.340072    1.837826
    121          1           0       -9.973891   -1.158757    0.072400
    122          1           0       -7.163449   -1.085562    1.010640
    123          1           0       -8.092597   -0.036601    1.991400
    124          1           0       -8.828889    0.319537   -0.829438
    125          1           0       -6.542718    1.953163   -0.773626
    126          1           0       -6.836233    0.522843   -1.695574
    127          1           0       -6.091664    0.295194   -0.156706
    128          1           0       -7.966055    2.546790    1.043670
    129          1           0       -9.456978    1.821771    1.473815
    130          1           0       -8.957824    2.614564   -1.488738
    131          1           0       -8.943382    3.799924   -0.238670
    132          1           0      -11.366458    2.418895    0.370314
    133          1           0      -11.080151    2.158904   -1.411074
    134          1           0      -10.838954    4.777600   -1.040568
    135          1           0      -13.184937    5.303729    0.271382
    136          1           0      -11.630279    4.996901    1.217452
    137          1           0      -12.778015    3.728390    1.004304
    138          1           0      -12.678795    3.137451   -2.309605
    139          1           0      -12.616872    4.967220   -2.286581
    140          1           0      -13.743370    4.227702   -1.363609
 ---------------------------------------------------------------------

 SCF Done:  E(RB-LYP) =  -3007.34004947     A.U. after   21 cycles

 Excitation energies and oscillator strengths:

 Excited State   1:      Singlet-A      1.8213 eV  680.75 nm  f=0.2716  <S**2>=0.000
     245 -> 248       -0.20827
     246 -> 247        0.67085
     246 <- 247       -0.13648
 This state for optimization and/or second-order correction.
 Total Energy, E(TD-HF/TD-DFT) =  -3007.27311807
 Copying the excited state density for this state as the 1-particle RhoCI density.

 Excited State   2:      Singlet-A      1.8367 eV  675.02 nm  f=0.0085  <S**2>=0.000
     244 -> 247        0.69613
     246 -> 247        0.10179

 Excited State   3:      Singlet-A      1.8710 eV  662.65 nm  f=0.0122  <S**2>=0.000
     243 -> 247        0.66119
     245 -> 247        0.22018

 Excited State   4:      Singlet-A      2.0578 eV  602.52 nm  f=0.0607  <S**2>=0.000
     243 -> 247       -0.22426
     245 -> 247        0.59395
     246 -> 248        0.28981

 Excited State   5:      Singlet-A      2.4756 eV  500.82 nm  f=0.0001  <S**2>=0.000
     241 -> 247        0.70695

 The electronic state is 1-A.
 Alpha  occ. eigenvalues --  -46.27248 -18.82205 -18.81888 -18.77409 -18.76754
 Alpha  occ. eigenvalues --  -18.75540 -18.75221 -14.03609 -14.03533 -14.01289
 Alpha  occ. eigenvalues --  -14.00927 -10.04038 -10.03793  -9.99513  -9.99508
 Alpha  occ. eigenvalues --   -9.97704  -9.97686  -9.97095  -9.97035  -9.96943
 Alpha  occ. eigenvalues --   -9.96580  -9.95965  -9.95851  -9.95530  -9.94517
 Alpha  occ. eigenvalues --   -9.94338  -9.94316  -9.94261  -9.94164  -9.94136
 Alpha  occ. eigenvalues --   -9.93959  -9.93662  -9.93456  -9.93355  -9.93274
 Alpha  occ. eigenvalues --   -9.92912  -9.92887  -9.92882  -9.92879  -9.92858
 Alpha  occ. eigenvalues --   -9.92489  -9.92357  -9.92300  -9.92258  -9.92235
 Alpha  occ. eigenvalues --   -9.92089  -9.92080  -9.91957  -9.91803  -9.91673
 Alpha  occ. eigenvalues --   -9.91565  -9.91425  -9.91360  -9.91236  -9.91106
 Alpha  occ. eigenvalues --   -9.91075  -9.91029  -9.90908  -9.90768  -9.90750
 Alpha  occ. eigenvalues --   -9.90708  -9.90683  -9.90677  -9.90594  -9.90531
 Alpha  occ. eigenvalues --   -9.89875  -2.91890  -1.72319  -1.71769  -1.71601
 Alpha  occ. eigenvalues --   -0.97816  -0.96550  -0.91040  -0.90689  -0.90095
 Alpha  occ. eigenvalues --   -0.88973  -0.87278  -0.86483  -0.85669  -0.84713
 Alpha  occ. eigenvalues --   -0.74968  -0.73923  -0.73551  -0.73322  -0.72629
 Alpha  occ. eigenvalues --   -0.72061  -0.71902  -0.71290  -0.70631  -0.70427
 Alpha  occ. eigenvalues --   -0.69925  -0.68762  -0.68163  -0.67590  -0.67378
 Alpha  occ. eigenvalues --   -0.66659  -0.65768  -0.65355  -0.64726  -0.64591
 Alpha  occ. eigenvalues --   -0.64340  -0.62355  -0.62281  -0.62059  -0.61109
 Alpha  occ. eigenvalues --   -0.60567  -0.60217  -0.59841  -0.59543  -0.59118
 Alpha  occ. eigenvalues --   -0.58639  -0.57673  -0.56998  -0.55754  -0.55357
 Alpha  occ. eigenvalues --   -0.53903  -0.53632  -0.52917  -0.52527  -0.52147
 Alpha  occ. eigenvalues --   -0.51168  -0.50894  -0.50676  -0.50254  -0.49813
 Alpha  occ. eigenvalues --   -0.49367  -0.48943  -0.48892  -0.48736  -0.46998
 Alpha  occ. eigenvalues --   -0.46172  -0.45510  -0.45396  -0.44801  -0.44213
 Alpha  occ. eigenvalues --   -0.43703  -0.43327  -0.43199  -0.42536  -0.42180
 Alpha  occ. eigenvalues --   -0.42000  -0.41563  -0.41396  -0.41306  -0.41176
 Alpha  occ. eigenvalues --   -0.41086  -0.40728  -0.40703  -0.40378  -0.40147
 Alpha  occ. eigenvalues --   -0.39826  -0.39699  -0.39507  -0.39430  -0.39405
 Alpha  occ. eigenvalues --   -0.39173  -0.38810  -0.38655  -0.38391  -0.38337
 Alpha  occ. eigenvalues --   -0.38115  -0.37947  -0.37817  -0.37622  -0.37408
 Alpha  occ. eigenvalues --   -0.37274  -0.36831  -0.36733  -0.36656  -0.36529
 Alpha  occ. eigenvalues --   -0.36273  -0.36061  -0.35886  -0.35725  -0.35551
 Alpha  occ. eigenvalues --   -0.35542  -0.35275  -0.35206  -0.34976  -0.34884
 Alpha  occ. eigenvalues --   -0.34696  -0.34396  -0.34250  -0.34137  -0.34006
 Alpha  occ. eigenvalues --   -0.33897  -0.33689  -0.33297  -0.33168  -0.33118
 Alpha  occ. eigenvalues --   -0.33026  -0.32877  -0.32636  -0.32421  -0.32233
 Alpha  occ. eigenvalues --   -0.32091  -0.32022  -0.31818  -0.31589  -0.31415
 Alpha  occ. eigenvalues --   -0.31270  -0.31135  -0.30885  -0.30822  -0.30688
 Alpha  occ. eigenvalues --   -0.30653  -0.30315  -0.30298  -0.30067  -0.29783
 Alpha  occ. eigenvalues --   -0.29755  -0.29648  -0.29606  -0.29387  -0.29011
 Alpha  occ. eigenvalues --   -0.28802  -0.28580  -0.28009  -0.27800  -0.27272
 Alpha  occ. eigenvalues --   -0.27131  -0.26954  -0.26634  -0.26397  -0.26298
 Alpha  occ. eigenvalues --   -0.25923  -0.25755  -0.25530  -0.25390  -0.25231
 Alpha  occ. eigenvalues --   -0.24992  -0.24629  -0.24064  -0.24003  -0.23506
 Alpha  occ. eigenvalues --   -0.23183  -0.22803  -0.22217  -0.21858  -0.20917
 Alpha  occ. eigenvalues --   -0.20761  -0.20487  -0.18495  -0.18333  -0.17547
 Alpha  occ. eigenvalues --   -0.16095
 Alpha virt. eigenvalues --   -0.11665  -0.07441  -0.06114  -0.04572  -0.03230
 Alpha virt. eigenvalues --   -0.03173  -0.02678  -0.02048  -0.01306  -0.00651
 Alpha virt. eigenvalues --    0.00693   0.01694   0.01799   0.02532   0.03043

 Mulliken charges:
               1
     1  Mg   0.695645
     2  C   -0.037374
     3  C   -0.064910
     4  C   -0.082254
     5  C   -0.095483
     6  N   -0.184670
     7  C   -0.083908
     8  C   -0.017990
     9  C   -0.030541
    10  C   -0.016699
    11  C    0.144831
    12  C    0.162103
    13  C    0.090987
    14  C    0.081709
    15  O   -0.197254
    16  O   -0.281959
    17  N   -0.277451
    18  C    0.140768
    19  C   -0.126096
    20  C    0.071873
    21  C    0.198309
    22  C    0.211845
    23  C   -0.122269
    24  O   -0.178986
    25  C    0.134150
    26  N   -0.230646
    27  C   -0.036800
    28  C    0.030841
    29  C    0.026881
    30  C   -0.001643
    31  C    0.114512
    32  C    0.099740
    33  C    0.065581
    34  N   -0.271413
    35  C    0.123164
    36  C   -0.208458
    37  C    0.090544
    38  C    0.097608
    39  C    0.187990
    40  C   -0.045565
    41  O   -0.141041
    42  C    0.090390
    43  C    0.127680
    44  O   -0.163593
    45  O   -0.286132
    46  C    0.207318
    47  C    0.340480
    48  C   -0.073771
    49  C   -0.207959
    50  C    0.173731
    51  C    0.119980
    52  C    0.103408
    53  C    0.063716
    54  C   -0.006214
    55  C    0.104895
    56  C    0.095685
    57  C    0.059412
    58  C    0.078347
    59  C   -0.087049
    60  C    0.105851
    61  C    0.097456
    62  C    0.045701
    63  C    0.133167
    64  C   -0.091910
    65  C    0.137130
    66  C    0.107853
    67  H   -0.057955
    68  H   -0.081993
    69  H   -0.046192
    70  H   -0.013963
    71  H   -0.024856
    72  H   -0.003009
    73  H    0.000879
    74  H   -0.012168
    75  H   -0.002397
    76  H   -0.008965
    77  H    0.023330
    78  H    0.000164
    79  H   -0.040823
    80  H    0.008104
    81  H    0.004070
    82  H    0.013970
    83  H    0.017495
    84  H   -0.021868
    85  H   -0.011239
    86  H   -0.010909
    87  H   -0.007590
    88  H   -0.009270
    89  H   -0.009994
    90  H   -0.021599
    91  H   -0.023991
    92  H   -0.017732
    93  H   -0.023024
    94  H    0.010755
    95  H    0.001709
    96  H    0.005010
    97  H    0.007195
    98  H    0.005390
    99  H    0.029013
   100  H    0.020573
   101  H    0.019697
   102  H    0.004369
   103  H   -0.012595
   104  H   -0.036222
   105  H    0.001635
   106  H    0.002287
   107  H   -0.007310
   108  H   -0.053652
   109  H   -0.025380
   110  H   -0.026205
   111  H   -0.038624
   112  H   -0.035503
   113  H    0.001535
   114  H   -0.044082
   115  H   -0.019954
   116  H   -0.035828
   117  H   -0.018664
   118  H   -0.036945
   119  H   -0.051095
   120  H   -0.024400
   121  H   -0.028894
   122  H   -0.025257
   123  H   -0.040690
   124  H   -0.032200
   125  H   -0.014153
   126  H   -0.025348
   127  H   -0.024264
   128  H   -0.043692
   129  H   -0.030825
   130  H   -0.026001
   131  H   -0.037428
   132  H   -0.038498
   133  H   -0.032189
   134  H   -0.038870
   135  H   -0.004713
   136  H   -0.030096
   137  H   -0.023924
   138  H   -0.020073
   139  H   -0.027931
   140  H   -0.027377
 Sum of Mulliken charges =  -0.00000

 Dipole moment (field-independent basis, Debye):
    X=              1.5968    Y=              3.1762    Z=              2.8344  Tot=              4.5467
 Quadrupole moment (field-independent basis, Debye-Ang):
   XX=           -367.0543   YY=           -439.9730   ZZ=           -394.7905
   XY=             25.5720   XZ=             -7.0272   YZ=             16.5856

 Normal termination of Gaussian 16 at Fri Apr 29 04:10:27 2022.
