 Gaussian 16, Revision A.03,
 Gaussian 16:  ES64L-G16RevA.03 25-Dec-2016

 -----------------------------------
 #p cam-b3lyp/Def2SVP td=(nstates=5)
 -----------------------------------

 -------------------------------------------------------
 step_1851_chromophore_2 TDDFT with cam-b3lyp functional
 -------------------------------------------------------
 Symbolic Z-matrix:
 Charge =  0 Multiplicity = 1

                         Standard orientation:
 ---------------------------------------------------------------------
 Center     Atomic      Atomic             Coordinates (Angstroms)
 Number     Number       Type             X           Y           Z
 ---------------------------------------------------------------------
      1         12           0        4.237030    1.134141   -0.362177
      2          6           0        4.086835   -2.429085   -0.709109
      3          6           0        1.819494    1.442791   -2.838090
      4          6           0        4.041100    4.378972    0.270780
      5          6           0        6.390842    0.659522    2.413378
      6          7           0        3.043524   -0.363983   -1.614620
      7          6           0        3.183350   -1.754897   -1.582809
      8          6           0        2.352479   -2.479261   -2.650306
      9          6           0        1.965630   -1.149479   -3.553654
     10          6           0        2.252286    0.089288   -2.596627
     11          6           0        2.690973   -1.010992   -4.909140
     12          6           0        1.173519   -3.419902   -2.188415
     13          6           0        0.259769   -2.823886   -1.173619
     14          6           0       -1.243142   -3.052022   -1.348500
     15          8           0       -1.828840   -3.412926   -2.374538
     16          8           0       -1.826853   -2.592727   -0.195183
     17          7           0        3.021417    2.671267   -1.074325
     18          6           0        2.153771    2.637344   -2.146651
     19          6           0        1.637200    3.944987   -2.449750
     20          6           0        2.335512    4.764854   -1.524281
     21          6           0        3.232376    3.954191   -0.767503
     22          6           0        0.653159    4.327689   -3.441393
     23          6           0        2.065745    6.235284   -1.437208
     24          8           0        1.316677    6.810781   -2.229395
     25          6           0        2.738581    7.156160   -0.413712
     26          7           0        5.107631    2.321359    1.078707
     27          6           0        5.002883    3.663003    1.077992
     28          6           0        5.741267    4.277338    2.256987
     29          6           0        6.645519    3.190023    2.782528
     30          6           0        5.929195    1.970521    2.120819
     31          6           0        6.444899    5.659727    2.128338
     32          6           0        6.627141    3.092702    4.330378
     33          6           0        7.998369    3.061831    5.031302
     34          7           0        5.136067   -0.495480    0.593273
     35          6           0        5.938128   -0.526112    1.735802
     36          6           0        6.296033   -1.878035    2.040061
     37          6           0        5.648092   -2.621590    1.076001
     38          6           0        4.895934   -1.791483    0.241686
     39          6           0        7.181315   -2.346413    3.139951
     40          6           0        5.364516   -4.016292    0.667142
     41          8           0        5.831953   -5.089147    1.054541
     42          6           0        4.385583   -3.972088   -0.560311
     43          6           0        4.953747   -4.624827   -1.749471
     44          8           0        4.319535   -5.336039   -2.481127
     45          8           0        6.330748   -4.464590   -1.789553
     46          6           0        6.955018   -5.444734   -2.768118
     47          6           0       -3.332887   -2.685382   -0.131367
     48          6           0       -3.789457   -3.126967    1.225574
     49          6           0       -4.188222   -2.378990    2.256293
     50          6           0       -4.208540   -0.896292    2.401255
     51          6           0       -4.864245   -3.184273    3.451473
     52          6           0       -6.311652   -3.605761    3.372281
     53          6           0       -6.863989   -3.768880    1.910230
     54          6           0       -8.353215   -3.685153    1.743079
     55          6           0       -9.074298   -5.037944    1.854282
     56          6           0       -8.882888   -2.903160    0.531294
     57          6           0       -9.346947   -1.453465    0.913541
     58          6           0       -8.093309   -0.515555    1.011805
     59          6           0       -8.198062    0.651737   -0.004590
     60          6           0       -6.830661    0.906400   -0.674677
     61          6           0       -8.788342    1.965269    0.625466
     62          6           0       -9.396410    2.848311   -0.519091
     63          6           0      -10.934034    2.811683   -0.550443
     64          6           0      -11.643614    4.129274   -0.694563
     65          6           0      -12.375881    4.617293    0.518515
     66          6           0      -12.725731    4.048324   -1.711246
     67          1           0        1.131653    1.514284   -3.683879
     68          1           0        4.122308    5.416431    0.604020
     69          1           0        7.273086    0.611593    3.055401
     70          1           0        3.101629   -3.092737   -3.151679
     71          1           0        0.886430   -1.089738   -3.693085
     72          1           0        3.263701   -0.083379   -4.934232
     73          1           0        1.982448   -1.112887   -5.731205
     74          1           0        3.396151   -1.831977   -5.035177
     75          1           0        1.654022   -4.356978   -1.909986
     76          1           0        0.612547   -3.544435   -3.114680
     77          1           0        0.364259   -1.742162   -1.093840
     78          1           0        0.463002   -3.293191   -0.210830
     79          1           0        0.141034    3.445830   -3.826880
     80          1           0        1.079239    4.852403   -4.296436
     81          1           0       -0.195269    4.904664   -3.074823
     82          1           0        3.782500    7.132084   -0.726495
     83          1           0        2.460453    7.152054    0.640237
     84          1           0        2.270942    8.087974   -0.730843
     85          1           0        4.884580    4.520097    2.885775
     86          1           0        7.664344    3.187329    2.395967
     87          1           0        7.481261    5.579167    2.458366
     88          1           0        6.053129    6.586186    2.546266
     89          1           0        6.334631    5.829503    1.056766
     90          1           0        6.046796    2.183977    4.489821
     91          1           0        6.028104    3.872152    4.801772
     92          1           0        8.063020    3.778553    5.850167
     93          1           0        8.757193    3.553319    4.423515
     94          1           0        8.326938    2.057572    5.299525
     95          1           0        6.662887   -2.229792    4.090947
     96          1           0        8.030626   -1.670847    3.041042
     97          1           0        7.421201   -3.405661    3.044613
     98          1           0        3.501636   -4.520005   -0.232271
     99          1           0        6.416897   -6.392802   -2.791995
    100          1           0        7.936796   -5.589593   -2.317988
    101          1           0        7.042121   -5.089662   -3.794574
    102          1           0       -3.796631   -3.395317   -0.815683
    103          1           0       -3.750282   -1.697847   -0.329198
    104          1           0       -4.005544   -4.190311    1.320068
    105          1           0       -3.942526   -0.626489    3.423130
    106          1           0       -5.207469   -0.572446    2.110926
    107          1           0       -3.554744   -0.407882    1.678360
    108          1           0       -4.663625   -2.622087    4.364060
    109          1           0       -4.154220   -3.981195    3.671666
    110          1           0       -6.969894   -3.147749    4.109804
    111          1           0       -6.349210   -4.639336    3.717228
    112          1           0       -6.584020   -4.763719    1.566421
    113          1           0       -6.386266   -3.014550    1.284975
    114          1           0       -8.649060   -3.101795    2.615515
    115          1           0      -10.078137   -5.184249    1.455679
    116          1           0       -9.354440   -5.220130    2.891851
    117          1           0       -8.420012   -5.862924    1.571647
    118          1           0       -9.555630   -3.408499   -0.160877
    119          1           0       -8.055217   -2.626620   -0.122494
    120          1           0       -9.912852   -1.340072    1.837826
    121          1           0       -9.973891   -1.158757    0.072400
    122          1           0       -7.163449   -1.085562    1.010640
    123          1           0       -8.092597   -0.036601    1.991400
    124          1           0       -8.828889    0.319537   -0.829438
    125          1           0       -6.542718    1.953163   -0.773626
    126          1           0       -6.836233    0.522843   -1.695574
    127          1           0       -6.091664    0.295194   -0.156706
    128          1           0       -7.966055    2.546790    1.043670
    129          1           0       -9.456978    1.821771    1.473815
    130          1           0       -8.957824    2.614564   -1.488738
    131          1           0       -8.943382    3.799924   -0.238670
    132          1           0      -11.366458    2.418895    0.370314
    133          1           0      -11.080151    2.158904   -1.411074
    134          1           0      -10.838954    4.777600   -1.040568
    135          1           0      -13.184937    5.303729    0.271382
    136          1           0      -11.630279    4.996901    1.217452
    137          1           0      -12.778015    3.728390    1.004304
    138          1           0      -12.678795    3.137451   -2.309605
    139          1           0      -12.616872    4.967220   -2.286581
    140          1           0      -13.743370    4.227702   -1.363609
 ---------------------------------------------------------------------

 SCF Done:  E(RCAM-B3LYP) =  -3007.13670543     A.U. after   18 cycles

 Excitation energies and oscillator strengths:

 Excited State   1:      Singlet-A      1.7333 eV  715.33 nm  f=0.3537  <S**2>=0.000
     245 -> 248       -0.19208
     246 -> 247        0.68259
     245 <- 248       -0.10984
 This state for optimization and/or second-order correction.
 Total Energy, E(TD-HF/TD-DFT) =  -3007.07300966
 Copying the excited state density for this state as the 1-particle RhoCI density.

 Excited State   2:      Singlet-A      2.2610 eV  548.35 nm  f=0.0831  <S**2>=0.000
     245 -> 247        0.61962
     246 -> 248        0.33044

 Excited State   3:      Singlet-A      3.4286 eV  361.62 nm  f=0.0170  <S**2>=0.000
     242 -> 247       -0.39621
     244 -> 247        0.54533

 Excited State   4:      Singlet-A      3.4673 eV  357.59 nm  f=0.4094  <S**2>=0.000
     242 -> 247       -0.27744
     244 -> 247       -0.29195
     245 -> 247       -0.23690
     246 -> 248        0.51050

 Excited State   5:      Singlet-A      3.5005 eV  354.19 nm  f=0.0538  <S**2>=0.000
     239 -> 247        0.14325
     240 -> 247        0.49891
     240 -> 248        0.11023
     240 -> 249       -0.27099
     240 -> 250        0.11295
     240 -> 251       -0.16402
     244 -> 247        0.13778
     246 -> 248        0.14702

 The electronic state is 1-A.
 Alpha  occ. eigenvalues --  -46.88817 -19.25022 -19.24735 -19.20471 -19.19606
 Alpha  occ. eigenvalues --  -19.18684 -19.18530 -14.42554 -14.42428 -14.39882
 Alpha  occ. eigenvalues --  -14.39200 -10.39368 -10.39038 -10.34939 -10.34688
 Alpha  occ. eigenvalues --  -10.31929 -10.31848 -10.31787 -10.31658 -10.31297
 Alpha  occ. eigenvalues --  -10.30835 -10.30680 -10.30596 -10.29422 -10.28885
 Alpha  occ. eigenvalues --  -10.28558 -10.28445 -10.28311 -10.28299 -10.28296
 Alpha  occ. eigenvalues --  -10.28083 -10.28059 -10.28035 -10.27475 -10.27224
 Alpha  occ. eigenvalues --  -10.26989 -10.26809 -10.26752 -10.26729 -10.26684
 Alpha  occ. eigenvalues --  -10.26573 -10.26078 -10.26054 -10.25963 -10.25960
 Alpha  occ. eigenvalues --  -10.25829 -10.25807 -10.25730 -10.25675 -10.25590
 Alpha  occ. eigenvalues --  -10.25551 -10.25200 -10.25068 -10.24948 -10.24774
 Alpha  occ. eigenvalues --  -10.24737 -10.24708 -10.24599 -10.24523 -10.24413
 Alpha  occ. eigenvalues --  -10.24366 -10.24243 -10.24229 -10.24162 -10.24151
 Alpha  occ. eigenvalues --  -10.23397  -3.17363  -1.92268  -1.91817  -1.91664
 Alpha  occ. eigenvalues --   -1.16335  -1.14905  -1.09672  -1.08839  -1.07932
 Alpha  occ. eigenvalues --   -1.06722  -1.05129  -1.04274  -1.03166  -1.02229
 Alpha  occ. eigenvalues --   -0.91956  -0.90792  -0.90364  -0.90040  -0.89365
 Alpha  occ. eigenvalues --   -0.88947  -0.88606  -0.87901  -0.87393  -0.86854
 Alpha  occ. eigenvalues --   -0.86490  -0.85100  -0.84449  -0.83735  -0.83519
 Alpha  occ. eigenvalues --   -0.82747  -0.81885  -0.81363  -0.80676  -0.80412
 Alpha  occ. eigenvalues --   -0.80143  -0.78084  -0.77825  -0.77716  -0.76462
 Alpha  occ. eigenvalues --   -0.75893  -0.75541  -0.75158  -0.74843  -0.74354
 Alpha  occ. eigenvalues --   -0.73717  -0.72611  -0.71988  -0.70603  -0.69963
 Alpha  occ. eigenvalues --   -0.68541  -0.68229  -0.67486  -0.66931  -0.66262
 Alpha  occ. eigenvalues --   -0.65290  -0.64885  -0.64787  -0.64268  -0.63839
 Alpha  occ. eigenvalues --   -0.63323  -0.62832  -0.62585  -0.62414  -0.60880
 Alpha  occ. eigenvalues --   -0.59743  -0.58915  -0.58781  -0.58261  -0.57675
 Alpha  occ. eigenvalues --   -0.57004  -0.56701  -0.56467  -0.55643  -0.55259
 Alpha  occ. eigenvalues --   -0.54914  -0.54676  -0.54504  -0.54394  -0.54099
 Alpha  occ. eigenvalues --   -0.53898  -0.53369  -0.53301  -0.53086  -0.53043
 Alpha  occ. eigenvalues --   -0.52638  -0.52478  -0.52404  -0.52122  -0.51903
 Alpha  occ. eigenvalues --   -0.51634  -0.51227  -0.51124  -0.51084  -0.50720
 Alpha  occ. eigenvalues --   -0.50536  -0.50270  -0.50201  -0.50026  -0.49586
 Alpha  occ. eigenvalues --   -0.49471  -0.49206  -0.49047  -0.48777  -0.48597
 Alpha  occ. eigenvalues --   -0.48531  -0.48385  -0.48192  -0.47903  -0.47669
 Alpha  occ. eigenvalues --   -0.47533  -0.47486  -0.47235  -0.47015  -0.46885
 Alpha  occ. eigenvalues --   -0.46685  -0.46579  -0.46276  -0.45900  -0.45869
 Alpha  occ. eigenvalues --   -0.45773  -0.45558  -0.45081  -0.44908  -0.44745
 Alpha  occ. eigenvalues --   -0.44602  -0.44466  -0.44288  -0.43944  -0.43819
 Alpha  occ. eigenvalues --   -0.43793  -0.43668  -0.43509  -0.43400  -0.43158
 Alpha  occ. eigenvalues --   -0.42877  -0.42625  -0.42463  -0.42176  -0.42101
 Alpha  occ. eigenvalues --   -0.42079  -0.41887  -0.41484  -0.41435  -0.41397
 Alpha  occ. eigenvalues --   -0.41196  -0.40868  -0.40838  -0.40434  -0.40162
 Alpha  occ. eigenvalues --   -0.39897  -0.39575  -0.39164  -0.38968  -0.38194
 Alpha  occ. eigenvalues --   -0.37971  -0.37925  -0.37568  -0.37427  -0.37169
 Alpha  occ. eigenvalues --   -0.36779  -0.36647  -0.36476  -0.36256  -0.35888
 Alpha  occ. eigenvalues --   -0.35754  -0.35562  -0.35078  -0.34616  -0.34029
 Alpha  occ. eigenvalues --   -0.34019  -0.33835  -0.33310  -0.31247  -0.30871
 Alpha  occ. eigenvalues --   -0.30634  -0.30467  -0.30310  -0.29620  -0.24348
 Alpha  occ. eigenvalues --   -0.21402
 Alpha virt. eigenvalues --   -0.08718  -0.02439   0.00427   0.02254   0.02596
 Alpha virt. eigenvalues --    0.04254   0.04878   0.05338   0.05831   0.06408
 Alpha virt. eigenvalues --    0.07514   0.07890   0.08516   0.08639   0.09367

 Mulliken charges:
               1
     1  Mg   0.828075
     2  C   -0.059789
     3  C   -0.076673
     4  C   -0.108732
     5  C   -0.094049
     6  N   -0.250457
     7  C   -0.046872
     8  C   -0.060239
     9  C   -0.079656
    10  C   -0.000158
    11  C    0.084203
    12  C    0.109326
    13  C    0.017228
    14  C    0.167468
    15  O   -0.241877
    16  O   -0.346487
    17  N   -0.366050
    18  C    0.146950
    19  C   -0.123739
    20  C   -0.004221
    21  C    0.227132
    22  C    0.150812
    23  C   -0.040565
    24  O   -0.218446
    25  C    0.048192
    26  N   -0.309234
    27  C    0.002149
    28  C   -0.033170
    29  C   -0.036721
    30  C    0.018794
    31  C    0.059313
    32  C    0.042353
    33  C    0.003479
    34  N   -0.358362
    35  C    0.122635
    36  C   -0.206475
    37  C    0.009198
    38  C    0.128128
    39  C    0.135189
    40  C    0.059809
    41  O   -0.180554
    42  C    0.013183
    43  C    0.216039
    44  O   -0.204873
    45  O   -0.349281
    46  C    0.169567
    47  C    0.312421
    48  C   -0.101796
    49  C   -0.227649
    50  C    0.114782
    51  C    0.062900
    52  C    0.045809
    53  C    0.017062
    54  C   -0.066977
    55  C    0.046057
    56  C    0.040872
    57  C    0.009291
    58  C    0.030753
    59  C   -0.137569
    60  C    0.053395
    61  C    0.044616
    62  C   -0.011599
    63  C    0.081011
    64  C   -0.152586
    65  C    0.073917
    66  C    0.043178
    67  H   -0.020625
    68  H   -0.046179
    69  H   -0.013758
    70  H    0.020386
    71  H    0.008202
    72  H    0.022259
    73  H    0.025402
    74  H    0.013501
    75  H    0.025991
    76  H    0.025583
    77  H    0.052660
    78  H    0.033385
    79  H   -0.012265
    80  H    0.038367
    81  H    0.035197
    82  H    0.040368
    83  H    0.047857
    84  H    0.017154
    85  H    0.025250
    86  H    0.023821
    87  H    0.017764
    88  H    0.016810
    89  H    0.012965
    90  H    0.011627
    91  H    0.005497
    92  H    0.007897
    93  H   -0.000662
    94  H    0.032856
    95  H    0.026674
    96  H    0.025534
    97  H    0.034931
    98  H    0.045557
    99  H    0.052800
   100  H    0.044463
   101  H    0.040759
   102  H    0.036157
   103  H    0.012304
   104  H   -0.003497
   105  H    0.026206
   106  H    0.021275
   107  H    0.018602
   108  H   -0.021503
   109  H    0.006658
   110  H    0.003029
   111  H   -0.007815
   112  H   -0.007917
   113  H    0.021860
   114  H   -0.012173
   115  H    0.006185
   116  H   -0.010760
   117  H    0.004609
   118  H   -0.005456
   119  H   -0.021568
   120  H    0.002799
   121  H   -0.000740
   122  H   -0.008314
   123  H   -0.011898
   124  H   -0.002398
   125  H    0.009597
   126  H   -0.000174
   127  H   -0.006462
   128  H   -0.013517
   129  H   -0.002516
   130  H    0.001690
   131  H   -0.008428
   132  H   -0.011596
   133  H   -0.003111
   134  H   -0.006365
   135  H    0.019351
   136  H   -0.004400
   137  H    0.000308
   138  H    0.004941
   139  H   -0.001924
   140  H   -0.001494
 Sum of Mulliken charges =  -0.00000

 Dipole moment (field-independent basis, Debye):
    X=              1.3762    Y=              4.0614    Z=              2.5778  Tot=              5.0034
 Quadrupole moment (field-independent basis, Debye-Ang):
   XX=           -368.3580   YY=           -434.8963   ZZ=           -393.1489
   XY=             29.0325   XZ=             -7.9340   YZ=             17.1001

 Normal termination of Gaussian 16 at Fri Apr 29 03:10:40 2022.
