 Gaussian 16, Revision A.03,
 Gaussian 16:  ES64L-G16RevA.03 25-Dec-2016

 ---------------------------------
 #p PBE1PBE/Def2SVP td=(nstates=5)
 ---------------------------------

 -----------------------------------------------------
 step_1851_chromophore_2 TDDFT with PBE1PBE functional
 -----------------------------------------------------
 Symbolic Z-matrix:
 Charge =  0 Multiplicity = 1

                         Standard orientation:
 ---------------------------------------------------------------------
 Center     Atomic      Atomic             Coordinates (Angstroms)
 Number     Number       Type             X           Y           Z
 ---------------------------------------------------------------------
      1         12           0        4.237030    1.134141   -0.362177
      2          6           0        4.086835   -2.429085   -0.709109
      3          6           0        1.819494    1.442791   -2.838090
      4          6           0        4.041100    4.378972    0.270780
      5          6           0        6.390842    0.659522    2.413378
      6          7           0        3.043524   -0.363983   -1.614620
      7          6           0        3.183350   -1.754897   -1.582809
      8          6           0        2.352479   -2.479261   -2.650306
      9          6           0        1.965630   -1.149479   -3.553654
     10          6           0        2.252286    0.089288   -2.596627
     11          6           0        2.690973   -1.010992   -4.909140
     12          6           0        1.173519   -3.419902   -2.188415
     13          6           0        0.259769   -2.823886   -1.173619
     14          6           0       -1.243142   -3.052022   -1.348500
     15          8           0       -1.828840   -3.412926   -2.374538
     16          8           0       -1.826853   -2.592727   -0.195183
     17          7           0        3.021417    2.671267   -1.074325
     18          6           0        2.153771    2.637344   -2.146651
     19          6           0        1.637200    3.944987   -2.449750
     20          6           0        2.335512    4.764854   -1.524281
     21          6           0        3.232376    3.954191   -0.767503
     22          6           0        0.653159    4.327689   -3.441393
     23          6           0        2.065745    6.235284   -1.437208
     24          8           0        1.316677    6.810781   -2.229395
     25          6           0        2.738581    7.156160   -0.413712
     26          7           0        5.107631    2.321359    1.078707
     27          6           0        5.002883    3.663003    1.077992
     28          6           0        5.741267    4.277338    2.256987
     29          6           0        6.645519    3.190023    2.782528
     30          6           0        5.929195    1.970521    2.120819
     31          6           0        6.444899    5.659727    2.128338
     32          6           0        6.627141    3.092702    4.330378
     33          6           0        7.998369    3.061831    5.031302
     34          7           0        5.136067   -0.495480    0.593273
     35          6           0        5.938128   -0.526112    1.735802
     36          6           0        6.296033   -1.878035    2.040061
     37          6           0        5.648092   -2.621590    1.076001
     38          6           0        4.895934   -1.791483    0.241686
     39          6           0        7.181315   -2.346413    3.139951
     40          6           0        5.364516   -4.016292    0.667142
     41          8           0        5.831953   -5.089147    1.054541
     42          6           0        4.385583   -3.972088   -0.560311
     43          6           0        4.953747   -4.624827   -1.749471
     44          8           0        4.319535   -5.336039   -2.481127
     45          8           0        6.330748   -4.464590   -1.789553
     46          6           0        6.955018   -5.444734   -2.768118
     47          6           0       -3.332887   -2.685382   -0.131367
     48          6           0       -3.789457   -3.126967    1.225574
     49          6           0       -4.188222   -2.378990    2.256293
     50          6           0       -4.208540   -0.896292    2.401255
     51          6           0       -4.864245   -3.184273    3.451473
     52          6           0       -6.311652   -3.605761    3.372281
     53          6           0       -6.863989   -3.768880    1.910230
     54          6           0       -8.353215   -3.685153    1.743079
     55          6           0       -9.074298   -5.037944    1.854282
     56          6           0       -8.882888   -2.903160    0.531294
     57          6           0       -9.346947   -1.453465    0.913541
     58          6           0       -8.093309   -0.515555    1.011805
     59          6           0       -8.198062    0.651737   -0.004590
     60          6           0       -6.830661    0.906400   -0.674677
     61          6           0       -8.788342    1.965269    0.625466
     62          6           0       -9.396410    2.848311   -0.519091
     63          6           0      -10.934034    2.811683   -0.550443
     64          6           0      -11.643614    4.129274   -0.694563
     65          6           0      -12.375881    4.617293    0.518515
     66          6           0      -12.725731    4.048324   -1.711246
     67          1           0        1.131653    1.514284   -3.683879
     68          1           0        4.122308    5.416431    0.604020
     69          1           0        7.273086    0.611593    3.055401
     70          1           0        3.101629   -3.092737   -3.151679
     71          1           0        0.886430   -1.089738   -3.693085
     72          1           0        3.263701   -0.083379   -4.934232
     73          1           0        1.982448   -1.112887   -5.731205
     74          1           0        3.396151   -1.831977   -5.035177
     75          1           0        1.654022   -4.356978   -1.909986
     76          1           0        0.612547   -3.544435   -3.114680
     77          1           0        0.364259   -1.742162   -1.093840
     78          1           0        0.463002   -3.293191   -0.210830
     79          1           0        0.141034    3.445830   -3.826880
     80          1           0        1.079239    4.852403   -4.296436
     81          1           0       -0.195269    4.904664   -3.074823
     82          1           0        3.782500    7.132084   -0.726495
     83          1           0        2.460453    7.152054    0.640237
     84          1           0        2.270942    8.087974   -0.730843
     85          1           0        4.884580    4.520097    2.885775
     86          1           0        7.664344    3.187329    2.395967
     87          1           0        7.481261    5.579167    2.458366
     88          1           0        6.053129    6.586186    2.546266
     89          1           0        6.334631    5.829503    1.056766
     90          1           0        6.046796    2.183977    4.489821
     91          1           0        6.028104    3.872152    4.801772
     92          1           0        8.063020    3.778553    5.850167
     93          1           0        8.757193    3.553319    4.423515
     94          1           0        8.326938    2.057572    5.299525
     95          1           0        6.662887   -2.229792    4.090947
     96          1           0        8.030626   -1.670847    3.041042
     97          1           0        7.421201   -3.405661    3.044613
     98          1           0        3.501636   -4.520005   -0.232271
     99          1           0        6.416897   -6.392802   -2.791995
    100          1           0        7.936796   -5.589593   -2.317988
    101          1           0        7.042121   -5.089662   -3.794574
    102          1           0       -3.796631   -3.395317   -0.815683
    103          1           0       -3.750282   -1.697847   -0.329198
    104          1           0       -4.005544   -4.190311    1.320068
    105          1           0       -3.942526   -0.626489    3.423130
    106          1           0       -5.207469   -0.572446    2.110926
    107          1           0       -3.554744   -0.407882    1.678360
    108          1           0       -4.663625   -2.622087    4.364060
    109          1           0       -4.154220   -3.981195    3.671666
    110          1           0       -6.969894   -3.147749    4.109804
    111          1           0       -6.349210   -4.639336    3.717228
    112          1           0       -6.584020   -4.763719    1.566421
    113          1           0       -6.386266   -3.014550    1.284975
    114          1           0       -8.649060   -3.101795    2.615515
    115          1           0      -10.078137   -5.184249    1.455679
    116          1           0       -9.354440   -5.220130    2.891851
    117          1           0       -8.420012   -5.862924    1.571647
    118          1           0       -9.555630   -3.408499   -0.160877
    119          1           0       -8.055217   -2.626620   -0.122494
    120          1           0       -9.912852   -1.340072    1.837826
    121          1           0       -9.973891   -1.158757    0.072400
    122          1           0       -7.163449   -1.085562    1.010640
    123          1           0       -8.092597   -0.036601    1.991400
    124          1           0       -8.828889    0.319537   -0.829438
    125          1           0       -6.542718    1.953163   -0.773626
    126          1           0       -6.836233    0.522843   -1.695574
    127          1           0       -6.091664    0.295194   -0.156706
    128          1           0       -7.966055    2.546790    1.043670
    129          1           0       -9.456978    1.821771    1.473815
    130          1           0       -8.957824    2.614564   -1.488738
    131          1           0       -8.943382    3.799924   -0.238670
    132          1           0      -11.366458    2.418895    0.370314
    133          1           0      -11.080151    2.158904   -1.411074
    134          1           0      -10.838954    4.777600   -1.040568
    135          1           0      -13.184937    5.303729    0.271382
    136          1           0      -11.630279    4.996901    1.217452
    137          1           0      -12.778015    3.728390    1.004304
    138          1           0      -12.678795    3.137451   -2.309605
    139          1           0      -12.616872    4.967220   -2.286581
    140          1           0      -13.743370    4.227702   -1.363609
 ---------------------------------------------------------------------

 SCF Done:  E(RPBE1PBE) =  -3005.32646066     A.U. after   15 cycles

 Excitation energies and oscillator strengths:

 Excited State   1:      Singlet-A      1.8746 eV  661.40 nm  f=0.3444  <S**2>=0.000
     245 -> 248       -0.18868
     246 -> 247        0.68847
 This state for optimization and/or second-order correction.
 Total Energy, E(TD-HF/TD-DFT) =  -3005.25757184
 Copying the excited state density for this state as the 1-particle RhoCI density.

 Excited State   2:      Singlet-A      2.2678 eV  546.72 nm  f=0.0851  <S**2>=0.000
     245 -> 247        0.63316
     246 -> 248        0.30577

 Excited State   3:      Singlet-A      2.9683 eV  417.69 nm  f=0.0001  <S**2>=0.000
     242 -> 247        0.40304
     242 -> 249       -0.10129
     243 -> 247        0.52570
     243 -> 249       -0.11783
     244 -> 247       -0.10421

 Excited State   4:      Singlet-A      2.9785 eV  416.26 nm  f=0.0002  <S**2>=0.000
     243 -> 247        0.12209
     244 -> 247        0.66583
     244 -> 249        0.15431

 Excited State   5:      Singlet-A      3.0811 eV  402.40 nm  f=0.0002  <S**2>=0.000
     240 -> 247       -0.11145
     242 -> 247        0.54066
     243 -> 247       -0.42289

 The electronic state is 1-A.
 Alpha  occ. eigenvalues --  -46.92205 -19.25733 -19.25440 -19.20763 -19.19921
 Alpha  occ. eigenvalues --  -19.18933 -19.18746 -14.41992 -14.41988 -14.39413
 Alpha  occ. eigenvalues --  -14.38990 -10.36422 -10.36085 -10.32015 -10.31934
 Alpha  occ. eigenvalues --  -10.29462 -10.29372 -10.29219 -10.29214 -10.28927
 Alpha  occ. eigenvalues --  -10.28775 -10.28093 -10.27945 -10.27427 -10.26722
 Alpha  occ. eigenvalues --  -10.26259 -10.26208 -10.26082 -10.26081 -10.25936
 Alpha  occ. eigenvalues --  -10.25931 -10.25772 -10.25580 -10.25175 -10.25013
 Alpha  occ. eigenvalues --  -10.24771 -10.24653 -10.24258 -10.24211 -10.24200
 Alpha  occ. eigenvalues --  -10.24157 -10.23717 -10.23443 -10.23437 -10.23373
 Alpha  occ. eigenvalues --  -10.23372 -10.23330 -10.23247 -10.23133 -10.23042
 Alpha  occ. eigenvalues --  -10.22916 -10.22777 -10.22742 -10.22514 -10.22448
 Alpha  occ. eigenvalues --  -10.22333 -10.22303 -10.22256 -10.22172 -10.21976
 Alpha  occ. eigenvalues --  -10.21836 -10.21745 -10.21684 -10.21610 -10.21551
 Alpha  occ. eigenvalues --  -10.20781  -3.14332  -1.87178  -1.86704  -1.86556
 Alpha  occ. eigenvalues --   -1.11134  -1.09710  -1.04231  -1.03724  -1.02841
 Alpha  occ. eigenvalues --   -1.01599  -0.99689  -0.98840  -0.97910  -0.96899
 Alpha  occ. eigenvalues --   -0.86382  -0.84891  -0.84475  -0.84350  -0.83490
 Alpha  occ. eigenvalues --   -0.83154  -0.82824  -0.82015  -0.81599  -0.81278
 Alpha  occ. eigenvalues --   -0.80828  -0.79298  -0.78628  -0.78004  -0.77824
 Alpha  occ. eigenvalues --   -0.76919  -0.76103  -0.75500  -0.74926  -0.74765
 Alpha  occ. eigenvalues --   -0.74289  -0.72297  -0.72124  -0.72000  -0.70771
 Alpha  occ. eigenvalues --   -0.70115  -0.69836  -0.69259  -0.68953  -0.68508
 Alpha  occ. eigenvalues --   -0.68033  -0.67058  -0.66398  -0.64902  -0.64369
 Alpha  occ. eigenvalues --   -0.62896  -0.62565  -0.61948  -0.61163  -0.60668
 Alpha  occ. eigenvalues --   -0.59675  -0.59464  -0.59126  -0.58828  -0.57968
 Alpha  occ. eigenvalues --   -0.57447  -0.57182  -0.56979  -0.56945  -0.55326
 Alpha  occ. eigenvalues --   -0.54350  -0.53418  -0.53236  -0.52937  -0.52136
 Alpha  occ. eigenvalues --   -0.51579  -0.51172  -0.50944  -0.50064  -0.49854
 Alpha  occ. eigenvalues --   -0.49324  -0.49236  -0.49081  -0.48923  -0.48599
 Alpha  occ. eigenvalues --   -0.48317  -0.48023  -0.47737  -0.47569  -0.47371
 Alpha  occ. eigenvalues --   -0.47137  -0.47065  -0.46946  -0.46653  -0.46356
 Alpha  occ. eigenvalues --   -0.46313  -0.45808  -0.45679  -0.45618  -0.45238
 Alpha  occ. eigenvalues --   -0.45112  -0.44857  -0.44768  -0.44601  -0.44234
 Alpha  occ. eigenvalues --   -0.44005  -0.43757  -0.43686  -0.43356  -0.43260
 Alpha  occ. eigenvalues --   -0.43225  -0.43085  -0.42846  -0.42534  -0.42303
 Alpha  occ. eigenvalues --   -0.42124  -0.42020  -0.41869  -0.41671  -0.41526
 Alpha  occ. eigenvalues --   -0.41297  -0.41216  -0.40984  -0.40656  -0.40508
 Alpha  occ. eigenvalues --   -0.40437  -0.40374  -0.39822  -0.39698  -0.39387
 Alpha  occ. eigenvalues --   -0.39200  -0.39169  -0.39082  -0.38738  -0.38566
 Alpha  occ. eigenvalues --   -0.38536  -0.38465  -0.38279  -0.38224  -0.37951
 Alpha  occ. eigenvalues --   -0.37639  -0.37526  -0.37178  -0.37016  -0.36899
 Alpha  occ. eigenvalues --   -0.36851  -0.36788  -0.36282  -0.36216  -0.36152
 Alpha  occ. eigenvalues --   -0.36039  -0.35733  -0.35610  -0.35161  -0.35089
 Alpha  occ. eigenvalues --   -0.34860  -0.34372  -0.34045  -0.33803  -0.32996
 Alpha  occ. eigenvalues --   -0.32969  -0.32733  -0.32569  -0.32406  -0.31913
 Alpha  occ. eigenvalues --   -0.31811  -0.31470  -0.31290  -0.31131  -0.30820
 Alpha  occ. eigenvalues --   -0.30664  -0.30484  -0.29982  -0.29450  -0.29266
 Alpha  occ. eigenvalues --   -0.28888  -0.28866  -0.28722  -0.26880  -0.25985
 Alpha  occ. eigenvalues --   -0.25955  -0.25440  -0.25385  -0.25310  -0.21267
 Alpha  occ. eigenvalues --   -0.19032
 Alpha virt. eigenvalues --   -0.11232  -0.05873  -0.03799  -0.01950  -0.00547
 Alpha virt. eigenvalues --   -0.00218   0.00209   0.01228   0.01501   0.02238
 Alpha virt. eigenvalues --    0.03555   0.04547   0.04604   0.05379   0.06066

 Mulliken charges:
               1
     1  Mg   0.975682
     2  C   -0.068109
     3  C   -0.066469
     4  C   -0.100065
     5  C   -0.079430
     6  N   -0.353094
     7  C    0.029076
     8  C   -0.123166
     9  C   -0.153548
    10  C    0.036312
    11  C    0.027108
    12  C    0.052689
    13  C   -0.063228
    14  C    0.236427
    15  O   -0.275224
    16  O   -0.374402
    17  N   -0.482094
    18  C    0.161138
    19  C   -0.146589
    20  C   -0.054552
    21  C    0.241560
    22  C    0.092992
    23  C    0.012641
    24  O   -0.252563
    25  C   -0.031456
    26  N   -0.419326
    27  C    0.047839
    28  C   -0.105570
    29  C   -0.128725
    30  C    0.059651
    31  C    0.001744
    32  C   -0.010388
    33  C   -0.067915
    34  N   -0.484463
    35  C    0.145659
    36  C   -0.226675
    37  C   -0.049712
    38  C    0.183837
    39  C    0.078657
    40  C    0.166178
    41  O   -0.224234
    42  C   -0.099402
    43  C    0.305172
    44  O   -0.240930
    45  O   -0.378028
    46  C    0.113306
    47  C    0.268963
    48  C   -0.121512
    49  C   -0.272005
    50  C    0.045859
    51  C    0.008277
    52  C   -0.019437
    53  C   -0.037744
    54  C   -0.152719
    55  C   -0.010506
    56  C   -0.017712
    57  C   -0.051243
    58  C   -0.033909
    59  C   -0.219707
    60  C   -0.008557
    61  C   -0.009782
    62  C   -0.076196
    63  C    0.033885
    64  C   -0.247116
    65  C    0.006824
    66  C   -0.017701
    67  H    0.010390
    68  H   -0.008455
    69  H    0.018636
    70  H    0.061770
    71  H    0.045073
    72  H    0.050302
    73  H    0.052119
    74  H    0.040625
    75  H    0.058249
    76  H    0.059029
    77  H    0.087591
    78  H    0.066306
    79  H    0.015051
    80  H    0.064777
    81  H    0.061295
    82  H    0.067394
    83  H    0.072435
    84  H    0.045459
    85  H    0.063213
    86  H    0.059881
    87  H    0.045140
    88  H    0.043611
    89  H    0.041234
    90  H    0.045271
    91  H    0.037983
    92  H    0.036084
    93  H    0.027007
    94  H    0.058735
    95  H    0.056158
    96  H    0.053194
    97  H    0.063378
    98  H    0.082305
    99  H    0.073725
   100  H    0.066166
   101  H    0.062771
   102  H    0.061874
   103  H    0.040451
   104  H    0.026485
   105  H    0.053103
   106  H    0.055122
   107  H    0.046614
   108  H    0.011381
   109  H    0.038154
   110  H    0.032383
   111  H    0.027190
   112  H    0.024896
   113  H    0.056292
   114  H    0.028097
   115  H    0.032769
   116  H    0.017240
   117  H    0.031400
   118  H    0.025493
   119  H    0.015373
   120  H    0.034193
   121  H    0.031777
   122  H    0.030694
   123  H    0.022000
   124  H    0.035978
   125  H    0.036244
   126  H    0.027767
   127  H    0.024722
   128  H    0.019957
   129  H    0.028439
   130  H    0.033959
   131  H    0.023863
   132  H    0.019869
   133  H    0.028813
   134  H    0.031392
   135  H    0.047154
   136  H    0.025336
   137  H    0.028521
   138  H    0.031824
   139  H    0.026993
   140  H    0.026012
 Sum of Mulliken charges =  -0.00000

 Dipole moment (field-independent basis, Debye):
    X=              1.6244    Y=              3.7440    Z=              2.8499  Tot=              4.9778
 Quadrupole moment (field-independent basis, Debye-Ang):
   XX=           -362.6183   YY=           -432.6046   ZZ=           -389.2262
   XY=             28.3666   XZ=             -5.9132   YZ=             17.9794

 Normal termination of Gaussian 16 at Fri Apr 29 03:27:20 2022.
