 Gaussian 16, Revision A.03,
 Gaussian 16:  ES64L-G16RevA.03 25-Dec-2016

 --------------------------------
 #p wB97XD/Def2SVP td=(nstates=5)
 --------------------------------

 ----------------------------------------------------
 step_1851_chromophore_2 TDDFT with wB97XD functional
 ----------------------------------------------------
 Symbolic Z-matrix:
 Charge =  0 Multiplicity = 1

                         Standard orientation:
 ---------------------------------------------------------------------
 Center     Atomic      Atomic             Coordinates (Angstroms)
 Number     Number       Type             X           Y           Z
 ---------------------------------------------------------------------
      1         12           0        4.237030    1.134141   -0.362177
      2          6           0        4.086835   -2.429085   -0.709109
      3          6           0        1.819494    1.442791   -2.838090
      4          6           0        4.041100    4.378972    0.270780
      5          6           0        6.390842    0.659522    2.413378
      6          7           0        3.043524   -0.363983   -1.614620
      7          6           0        3.183350   -1.754897   -1.582809
      8          6           0        2.352479   -2.479261   -2.650306
      9          6           0        1.965630   -1.149479   -3.553654
     10          6           0        2.252286    0.089288   -2.596627
     11          6           0        2.690973   -1.010992   -4.909140
     12          6           0        1.173519   -3.419902   -2.188415
     13          6           0        0.259769   -2.823886   -1.173619
     14          6           0       -1.243142   -3.052022   -1.348500
     15          8           0       -1.828840   -3.412926   -2.374538
     16          8           0       -1.826853   -2.592727   -0.195183
     17          7           0        3.021417    2.671267   -1.074325
     18          6           0        2.153771    2.637344   -2.146651
     19          6           0        1.637200    3.944987   -2.449750
     20          6           0        2.335512    4.764854   -1.524281
     21          6           0        3.232376    3.954191   -0.767503
     22          6           0        0.653159    4.327689   -3.441393
     23          6           0        2.065745    6.235284   -1.437208
     24          8           0        1.316677    6.810781   -2.229395
     25          6           0        2.738581    7.156160   -0.413712
     26          7           0        5.107631    2.321359    1.078707
     27          6           0        5.002883    3.663003    1.077992
     28          6           0        5.741267    4.277338    2.256987
     29          6           0        6.645519    3.190023    2.782528
     30          6           0        5.929195    1.970521    2.120819
     31          6           0        6.444899    5.659727    2.128338
     32          6           0        6.627141    3.092702    4.330378
     33          6           0        7.998369    3.061831    5.031302
     34          7           0        5.136067   -0.495480    0.593273
     35          6           0        5.938128   -0.526112    1.735802
     36          6           0        6.296033   -1.878035    2.040061
     37          6           0        5.648092   -2.621590    1.076001
     38          6           0        4.895934   -1.791483    0.241686
     39          6           0        7.181315   -2.346413    3.139951
     40          6           0        5.364516   -4.016292    0.667142
     41          8           0        5.831953   -5.089147    1.054541
     42          6           0        4.385583   -3.972088   -0.560311
     43          6           0        4.953747   -4.624827   -1.749471
     44          8           0        4.319535   -5.336039   -2.481127
     45          8           0        6.330748   -4.464590   -1.789553
     46          6           0        6.955018   -5.444734   -2.768118
     47          6           0       -3.332887   -2.685382   -0.131367
     48          6           0       -3.789457   -3.126967    1.225574
     49          6           0       -4.188222   -2.378990    2.256293
     50          6           0       -4.208540   -0.896292    2.401255
     51          6           0       -4.864245   -3.184273    3.451473
     52          6           0       -6.311652   -3.605761    3.372281
     53          6           0       -6.863989   -3.768880    1.910230
     54          6           0       -8.353215   -3.685153    1.743079
     55          6           0       -9.074298   -5.037944    1.854282
     56          6           0       -8.882888   -2.903160    0.531294
     57          6           0       -9.346947   -1.453465    0.913541
     58          6           0       -8.093309   -0.515555    1.011805
     59          6           0       -8.198062    0.651737   -0.004590
     60          6           0       -6.830661    0.906400   -0.674677
     61          6           0       -8.788342    1.965269    0.625466
     62          6           0       -9.396410    2.848311   -0.519091
     63          6           0      -10.934034    2.811683   -0.550443
     64          6           0      -11.643614    4.129274   -0.694563
     65          6           0      -12.375881    4.617293    0.518515
     66          6           0      -12.725731    4.048324   -1.711246
     67          1           0        1.131653    1.514284   -3.683879
     68          1           0        4.122308    5.416431    0.604020
     69          1           0        7.273086    0.611593    3.055401
     70          1           0        3.101629   -3.092737   -3.151679
     71          1           0        0.886430   -1.089738   -3.693085
     72          1           0        3.263701   -0.083379   -4.934232
     73          1           0        1.982448   -1.112887   -5.731205
     74          1           0        3.396151   -1.831977   -5.035177
     75          1           0        1.654022   -4.356978   -1.909986
     76          1           0        0.612547   -3.544435   -3.114680
     77          1           0        0.364259   -1.742162   -1.093840
     78          1           0        0.463002   -3.293191   -0.210830
     79          1           0        0.141034    3.445830   -3.826880
     80          1           0        1.079239    4.852403   -4.296436
     81          1           0       -0.195269    4.904664   -3.074823
     82          1           0        3.782500    7.132084   -0.726495
     83          1           0        2.460453    7.152054    0.640237
     84          1           0        2.270942    8.087974   -0.730843
     85          1           0        4.884580    4.520097    2.885775
     86          1           0        7.664344    3.187329    2.395967
     87          1           0        7.481261    5.579167    2.458366
     88          1           0        6.053129    6.586186    2.546266
     89          1           0        6.334631    5.829503    1.056766
     90          1           0        6.046796    2.183977    4.489821
     91          1           0        6.028104    3.872152    4.801772
     92          1           0        8.063020    3.778553    5.850167
     93          1           0        8.757193    3.553319    4.423515
     94          1           0        8.326938    2.057572    5.299525
     95          1           0        6.662887   -2.229792    4.090947
     96          1           0        8.030626   -1.670847    3.041042
     97          1           0        7.421201   -3.405661    3.044613
     98          1           0        3.501636   -4.520005   -0.232271
     99          1           0        6.416897   -6.392802   -2.791995
    100          1           0        7.936796   -5.589593   -2.317988
    101          1           0        7.042121   -5.089662   -3.794574
    102          1           0       -3.796631   -3.395317   -0.815683
    103          1           0       -3.750282   -1.697847   -0.329198
    104          1           0       -4.005544   -4.190311    1.320068
    105          1           0       -3.942526   -0.626489    3.423130
    106          1           0       -5.207469   -0.572446    2.110926
    107          1           0       -3.554744   -0.407882    1.678360
    108          1           0       -4.663625   -2.622087    4.364060
    109          1           0       -4.154220   -3.981195    3.671666
    110          1           0       -6.969894   -3.147749    4.109804
    111          1           0       -6.349210   -4.639336    3.717228
    112          1           0       -6.584020   -4.763719    1.566421
    113          1           0       -6.386266   -3.014550    1.284975
    114          1           0       -8.649060   -3.101795    2.615515
    115          1           0      -10.078137   -5.184249    1.455679
    116          1           0       -9.354440   -5.220130    2.891851
    117          1           0       -8.420012   -5.862924    1.571647
    118          1           0       -9.555630   -3.408499   -0.160877
    119          1           0       -8.055217   -2.626620   -0.122494
    120          1           0       -9.912852   -1.340072    1.837826
    121          1           0       -9.973891   -1.158757    0.072400
    122          1           0       -7.163449   -1.085562    1.010640
    123          1           0       -8.092597   -0.036601    1.991400
    124          1           0       -8.828889    0.319537   -0.829438
    125          1           0       -6.542718    1.953163   -0.773626
    126          1           0       -6.836233    0.522843   -1.695574
    127          1           0       -6.091664    0.295194   -0.156706
    128          1           0       -7.966055    2.546790    1.043670
    129          1           0       -9.456978    1.821771    1.473815
    130          1           0       -8.957824    2.614564   -1.488738
    131          1           0       -8.943382    3.799924   -0.238670
    132          1           0      -11.366458    2.418895    0.370314
    133          1           0      -11.080151    2.158904   -1.411074
    134          1           0      -10.838954    4.777600   -1.040568
    135          1           0      -13.184937    5.303729    0.271382
    136          1           0      -11.630279    4.996901    1.217452
    137          1           0      -12.778015    3.728390    1.004304
    138          1           0      -12.678795    3.137451   -2.309605
    139          1           0      -12.616872    4.967220   -2.286581
    140          1           0      -13.743370    4.227702   -1.363609
 ---------------------------------------------------------------------

 SCF Done:  E(RwB97XD) =  -3007.83611860     A.U. after   19 cycles

 Excitation energies and oscillator strengths:

 Excited State   1:      Singlet-A      1.6849 eV  735.85 nm  f=0.3525  <S**2>=0.000
     245 -> 248       -0.19637
     246 -> 247        0.68075
     245 <- 248       -0.11870
 This state for optimization and/or second-order correction.
 Total Energy, E(TD-HF/TD-DFT) =  -3007.77419915
 Copying the excited state density for this state as the 1-particle RhoCI density.

 Excited State   2:      Singlet-A      2.2081 eV  561.49 nm  f=0.0811  <S**2>=0.000
     245 -> 247        0.61837
     246 -> 248        0.33071

 Excited State   3:      Singlet-A      3.4452 eV  359.88 nm  f=0.0794  <S**2>=0.000
     240 -> 247       -0.10754
     241 -> 247        0.46454
     241 -> 249       -0.12261
     242 -> 247        0.15594
     244 -> 247       -0.38909
     246 -> 248       -0.22004

 Excited State   4:      Singlet-A      3.4864 eV  355.62 nm  f=0.3905  <S**2>=0.000
     244 -> 247       -0.41097
     245 -> 247       -0.22954
     246 -> 248        0.48891

 Excited State   5:      Singlet-A      3.5030 eV  353.94 nm  f=0.0172  <S**2>=0.000
     240 -> 247        0.46233
     240 -> 249       -0.26121
     240 -> 250        0.16769
     241 -> 247        0.20607
     241 -> 249       -0.16270
     241 -> 250        0.12705
     244 -> 247        0.21939

 The electronic state is 1-A.
 Alpha  occ. eigenvalues --  -46.95169 -19.30226 -19.29965 -19.25389 -19.24540
 Alpha  occ. eigenvalues --  -19.23747 -19.23539 -14.47160 -14.47010 -14.44519
 Alpha  occ. eigenvalues --  -14.43783 -10.43181 -10.42828 -10.38952 -10.38675
 Alpha  occ. eigenvalues --  -10.36008 -10.35877 -10.35727 -10.35386 -10.35302
 Alpha  occ. eigenvalues --  -10.34825 -10.34808 -10.34686 -10.33380 -10.33025
 Alpha  occ. eigenvalues --  -10.32654 -10.32574 -10.32373 -10.32360 -10.32225
 Alpha  occ. eigenvalues --  -10.32211 -10.32121 -10.32102 -10.31454 -10.31231
 Alpha  occ. eigenvalues --  -10.31061 -10.30827 -10.30814 -10.30646 -10.30607
 Alpha  occ. eigenvalues --  -10.30513 -10.30019 -10.29890 -10.29819 -10.29784
 Alpha  occ. eigenvalues --  -10.29750 -10.29726 -10.29641 -10.29543 -10.29537
 Alpha  occ. eigenvalues --  -10.29503 -10.29099 -10.29041 -10.28884 -10.28694
 Alpha  occ. eigenvalues --  -10.28682 -10.28629 -10.28541 -10.28493 -10.28328
 Alpha  occ. eigenvalues --  -10.28188 -10.28132 -10.28060 -10.28052 -10.27988
 Alpha  occ. eigenvalues --  -10.27207  -3.21151  -1.94746  -1.94274  -1.94122
 Alpha  occ. eigenvalues --   -1.18464  -1.17067  -1.11917  -1.11023  -1.10130
 Alpha  occ. eigenvalues --   -1.08908  -1.07177  -1.06340  -1.05153  -1.04239
 Alpha  occ. eigenvalues --   -0.93893  -0.92556  -0.92122  -0.91902  -0.91145
 Alpha  occ. eigenvalues --   -0.90925  -0.90443  -0.89679  -0.89382  -0.88777
 Alpha  occ. eigenvalues --   -0.88420  -0.86960  -0.86297  -0.85600  -0.85413
 Alpha  occ. eigenvalues --   -0.84583  -0.83817  -0.83239  -0.82591  -0.82362
 Alpha  occ. eigenvalues --   -0.81958  -0.80074  -0.79715  -0.79611  -0.78363
 Alpha  occ. eigenvalues --   -0.77745  -0.77473  -0.76955  -0.76643  -0.76177
 Alpha  occ. eigenvalues --   -0.75622  -0.74555  -0.73977  -0.72526  -0.71882
 Alpha  occ. eigenvalues --   -0.70489  -0.70152  -0.69516  -0.68795  -0.68171
 Alpha  occ. eigenvalues --   -0.67218  -0.66901  -0.66701  -0.66263  -0.65646
 Alpha  occ. eigenvalues --   -0.65121  -0.64636  -0.64559  -0.64378  -0.62930
 Alpha  occ. eigenvalues --   -0.61715  -0.60815  -0.60732  -0.60226  -0.59589
 Alpha  occ. eigenvalues --   -0.58949  -0.58684  -0.58381  -0.57533  -0.57216
 Alpha  occ. eigenvalues --   -0.56779  -0.56609  -0.56438  -0.56302  -0.55998
 Alpha  occ. eigenvalues --   -0.55753  -0.55290  -0.55156  -0.55051  -0.54945
 Alpha  occ. eigenvalues --   -0.54536  -0.54406  -0.54344  -0.54030  -0.53752
 Alpha  occ. eigenvalues --   -0.53547  -0.53196  -0.53065  -0.52975  -0.52592
 Alpha  occ. eigenvalues --   -0.52418  -0.52222  -0.52089  -0.51923  -0.51486
 Alpha  occ. eigenvalues --   -0.51332  -0.51197  -0.50959  -0.50651  -0.50520
 Alpha  occ. eigenvalues --   -0.50455  -0.50281  -0.50106  -0.49794  -0.49562
 Alpha  occ. eigenvalues --   -0.49491  -0.49394  -0.49143  -0.48931  -0.48823
 Alpha  occ. eigenvalues --   -0.48539  -0.48469  -0.48203  -0.47808  -0.47764
 Alpha  occ. eigenvalues --   -0.47688  -0.47447  -0.46993  -0.46881  -0.46594
 Alpha  occ. eigenvalues --   -0.46443  -0.46348  -0.46196  -0.45817  -0.45702
 Alpha  occ. eigenvalues --   -0.45696  -0.45564  -0.45422  -0.45296  -0.45057
 Alpha  occ. eigenvalues --   -0.44774  -0.44586  -0.44441  -0.44077  -0.43967
 Alpha  occ. eigenvalues --   -0.43960  -0.43862  -0.43432  -0.43313  -0.43272
 Alpha  occ. eigenvalues --   -0.43157  -0.42764  -0.42708  -0.42269  -0.42051
 Alpha  occ. eigenvalues --   -0.41812  -0.41417  -0.41113  -0.40833  -0.40039
 Alpha  occ. eigenvalues --   -0.39918  -0.39772  -0.39615  -0.39334  -0.38995
 Alpha  occ. eigenvalues --   -0.38854  -0.38498  -0.38320  -0.38180  -0.37723
 Alpha  occ. eigenvalues --   -0.37696  -0.37441  -0.37016  -0.36441  -0.36034
 Alpha  occ. eigenvalues --   -0.35911  -0.35677  -0.35514  -0.33467  -0.32887
 Alpha  occ. eigenvalues --   -0.32665  -0.32629  -0.32238  -0.31739  -0.26277
 Alpha  occ. eigenvalues --   -0.23217
 Alpha virt. eigenvalues --   -0.07061  -0.00520   0.02500   0.04618   0.05405
 Alpha virt. eigenvalues --    0.06494   0.07063   0.07900   0.08266   0.08803
 Alpha virt. eigenvalues --    0.10141   0.11079   0.11244   0.12128   0.12812

 Mulliken charges:
               1
     1  Mg   0.965728
     2  C   -0.071846
     3  C   -0.085607
     4  C   -0.115463
     5  C   -0.099543
     6  N   -0.317335
     7  C   -0.010102
     8  C   -0.093313
     9  C   -0.129031
    10  C    0.021396
    11  C    0.036272
    12  C    0.065796
    13  C   -0.043325
    14  C    0.226597
    15  O   -0.273268
    16  O   -0.374461
    17  N   -0.449834
    18  C    0.160438
    19  C   -0.136298
    20  C   -0.050988
    21  C    0.246719
    22  C    0.101545
    23  C    0.007335
    24  O   -0.247302
    25  C   -0.016249
    26  N   -0.387279
    27  C    0.036214
    28  C   -0.084320
    29  C   -0.097430
    30  C    0.048668
    31  C    0.013466
    32  C    0.000041
    33  C   -0.051207
    34  N   -0.446650
    35  C    0.134635
    36  C   -0.220847
    37  C   -0.042314
    38  C    0.164154
    39  C    0.089382
    40  C    0.143164
    41  O   -0.216190
    42  C   -0.059200
    43  C    0.282277
    44  O   -0.236138
    45  O   -0.378552
    46  C    0.129393
    47  C    0.282163
    48  C   -0.127381
    49  C   -0.254337
    50  C    0.065543
    51  C    0.022387
    52  C   -0.005991
    53  C   -0.011834
    54  C   -0.123734
    55  C   -0.000071
    56  C    0.004374
    57  C   -0.036113
    58  C    0.000465
    59  C   -0.188361
    60  C    0.006742
    61  C    0.004321
    62  C   -0.059905
    63  C    0.047292
    64  C   -0.217126
    65  C    0.022965
    66  C   -0.005245
    67  H    0.005694
    68  H   -0.025163
    69  H    0.011405
    70  H    0.046602
    71  H    0.034585
    72  H    0.043318
    73  H    0.047753
    74  H    0.035686
    75  H    0.050299
    76  H    0.050858
    77  H    0.076428
    78  H    0.060331
    79  H    0.010329
    80  H    0.063174
    81  H    0.059176
    82  H    0.061332
    83  H    0.070622
    84  H    0.043555
    85  H    0.051928
    86  H    0.048997
    87  H    0.040167
    88  H    0.039555
    89  H    0.032160
    90  H    0.035831
    91  H    0.030412
    92  H    0.030525
    93  H    0.018892
    94  H    0.054153
    95  H    0.049933
    96  H    0.045661
    97  H    0.059737
    98  H    0.075917
    99  H    0.069163
   100  H    0.063090
   101  H    0.058683
   102  H    0.058565
   103  H    0.034376
   104  H    0.021895
   105  H    0.048650
   106  H    0.041340
   107  H    0.041306
   108  H    0.003950
   109  H    0.031169
   110  H    0.026801
   111  H    0.018555
   112  H    0.014593
   113  H    0.035409
   114  H    0.010594
   115  H    0.027787
   116  H    0.010970
   117  H    0.025048
   118  H    0.019905
   119  H    0.001180
   120  H    0.027026
   121  H    0.022621
   122  H   -0.001983
   123  H    0.012135
   124  H    0.019522
   125  H    0.030442
   126  H    0.022604
   127  H    0.013885
   128  H    0.010867
   129  H    0.020192
   130  H    0.025663
   131  H    0.015145
   132  H    0.007620
   133  H    0.019771
   134  H    0.019989
   135  H    0.040810
   136  H    0.019170
   137  H    0.020441
   138  H    0.026208
   139  H    0.020658
   140  H    0.019050
 Sum of Mulliken charges =  -0.00000

 Dipole moment (field-independent basis, Debye):
    X=              1.3278    Y=              4.2774    Z=              2.5307  Tot=              5.1442
 Quadrupole moment (field-independent basis, Debye-Ang):
   XX=           -364.3383   YY=           -430.3526   ZZ=           -389.0566
   XY=             29.5488   XZ=             -7.6139   YZ=             17.1918

 Normal termination of Gaussian 16 at Fri Apr 29 03:56:29 2022.
