 Gaussian 16, Revision A.03,
 Gaussian 16:  ES64L-G16RevA.03 25-Dec-2016

 --------------------
 #p ZINDO=(nstates=5)
 --------------------

 -----------------------------
 step_1851_chromophore_2 ZINDO
 -----------------------------
 Symbolic Z-matrix:
 Charge =  0 Multiplicity = 1

                         Standard orientation:
 ---------------------------------------------------------------------
 Center     Atomic      Atomic             Coordinates (Angstroms)
 Number     Number       Type             X           Y           Z
 ---------------------------------------------------------------------
      1         12           0        4.237030    1.134141   -0.362177
      2          6           0        4.086835   -2.429085   -0.709109
      3          6           0        1.819494    1.442791   -2.838090
      4          6           0        4.041100    4.378972    0.270780
      5          6           0        6.390842    0.659522    2.413378
      6          7           0        3.043524   -0.363983   -1.614620
      7          6           0        3.183350   -1.754897   -1.582809
      8          6           0        2.352479   -2.479261   -2.650306
      9          6           0        1.965630   -1.149479   -3.553654
     10          6           0        2.252286    0.089288   -2.596627
     11          6           0        2.690973   -1.010992   -4.909140
     12          6           0        1.173519   -3.419902   -2.188415
     13          6           0        0.259769   -2.823886   -1.173619
     14          6           0       -1.243142   -3.052022   -1.348500
     15          8           0       -1.828840   -3.412926   -2.374538
     16          8           0       -1.826853   -2.592727   -0.195183
     17          7           0        3.021417    2.671267   -1.074325
     18          6           0        2.153771    2.637344   -2.146651
     19          6           0        1.637200    3.944987   -2.449750
     20          6           0        2.335512    4.764854   -1.524281
     21          6           0        3.232376    3.954191   -0.767503
     22          6           0        0.653159    4.327689   -3.441393
     23          6           0        2.065745    6.235284   -1.437208
     24          8           0        1.316677    6.810781   -2.229395
     25          6           0        2.738581    7.156160   -0.413712
     26          7           0        5.107631    2.321359    1.078707
     27          6           0        5.002883    3.663003    1.077992
     28          6           0        5.741267    4.277338    2.256987
     29          6           0        6.645519    3.190023    2.782528
     30          6           0        5.929195    1.970521    2.120819
     31          6           0        6.444899    5.659727    2.128338
     32          6           0        6.627141    3.092702    4.330378
     33          6           0        7.998369    3.061831    5.031302
     34          7           0        5.136067   -0.495480    0.593273
     35          6           0        5.938128   -0.526112    1.735802
     36          6           0        6.296033   -1.878035    2.040061
     37          6           0        5.648092   -2.621590    1.076001
     38          6           0        4.895934   -1.791483    0.241686
     39          6           0        7.181315   -2.346413    3.139951
     40          6           0        5.364516   -4.016292    0.667142
     41          8           0        5.831953   -5.089147    1.054541
     42          6           0        4.385583   -3.972088   -0.560311
     43          6           0        4.953747   -4.624827   -1.749471
     44          8           0        4.319535   -5.336039   -2.481127
     45          8           0        6.330748   -4.464590   -1.789553
     46          6           0        6.955018   -5.444734   -2.768118
     47          6           0       -3.332887   -2.685382   -0.131367
     48          6           0       -3.789457   -3.126967    1.225574
     49          6           0       -4.188222   -2.378990    2.256293
     50          6           0       -4.208540   -0.896292    2.401255
     51          6           0       -4.864245   -3.184273    3.451473
     52          6           0       -6.311652   -3.605761    3.372281
     53          6           0       -6.863989   -3.768880    1.910230
     54          6           0       -8.353215   -3.685153    1.743079
     55          6           0       -9.074298   -5.037944    1.854282
     56          6           0       -8.882888   -2.903160    0.531294
     57          6           0       -9.346947   -1.453465    0.913541
     58          6           0       -8.093309   -0.515555    1.011805
     59          6           0       -8.198062    0.651737   -0.004590
     60          6           0       -6.830661    0.906400   -0.674677
     61          6           0       -8.788342    1.965269    0.625466
     62          6           0       -9.396410    2.848311   -0.519091
     63          6           0      -10.934034    2.811683   -0.550443
     64          6           0      -11.643614    4.129274   -0.694563
     65          6           0      -12.375881    4.617293    0.518515
     66          6           0      -12.725731    4.048324   -1.711246
     67          1           0        1.131653    1.514284   -3.683879
     68          1           0        4.122308    5.416431    0.604020
     69          1           0        7.273086    0.611593    3.055401
     70          1           0        3.101629   -3.092737   -3.151679
     71          1           0        0.886430   -1.089738   -3.693085
     72          1           0        3.263701   -0.083379   -4.934232
     73          1           0        1.982448   -1.112887   -5.731205
     74          1           0        3.396151   -1.831977   -5.035177
     75          1           0        1.654022   -4.356978   -1.909986
     76          1           0        0.612547   -3.544435   -3.114680
     77          1           0        0.364259   -1.742162   -1.093840
     78          1           0        0.463002   -3.293191   -0.210830
     79          1           0        0.141034    3.445830   -3.826880
     80          1           0        1.079239    4.852403   -4.296436
     81          1           0       -0.195269    4.904664   -3.074823
     82          1           0        3.782500    7.132084   -0.726495
     83          1           0        2.460453    7.152054    0.640237
     84          1           0        2.270942    8.087974   -0.730843
     85          1           0        4.884580    4.520097    2.885775
     86          1           0        7.664344    3.187329    2.395967
     87          1           0        7.481261    5.579167    2.458366
     88          1           0        6.053129    6.586186    2.546266
     89          1           0        6.334631    5.829503    1.056766
     90          1           0        6.046796    2.183977    4.489821
     91          1           0        6.028104    3.872152    4.801772
     92          1           0        8.063020    3.778553    5.850167
     93          1           0        8.757193    3.553319    4.423515
     94          1           0        8.326938    2.057572    5.299525
     95          1           0        6.662887   -2.229792    4.090947
     96          1           0        8.030626   -1.670847    3.041042
     97          1           0        7.421201   -3.405661    3.044613
     98          1           0        3.501636   -4.520005   -0.232271
     99          1           0        6.416897   -6.392802   -2.791995
    100          1           0        7.936796   -5.589593   -2.317988
    101          1           0        7.042121   -5.089662   -3.794574
    102          1           0       -3.796631   -3.395317   -0.815683
    103          1           0       -3.750282   -1.697847   -0.329198
    104          1           0       -4.005544   -4.190311    1.320068
    105          1           0       -3.942526   -0.626489    3.423130
    106          1           0       -5.207469   -0.572446    2.110926
    107          1           0       -3.554744   -0.407882    1.678360
    108          1           0       -4.663625   -2.622087    4.364060
    109          1           0       -4.154220   -3.981195    3.671666
    110          1           0       -6.969894   -3.147749    4.109804
    111          1           0       -6.349210   -4.639336    3.717228
    112          1           0       -6.584020   -4.763719    1.566421
    113          1           0       -6.386266   -3.014550    1.284975
    114          1           0       -8.649060   -3.101795    2.615515
    115          1           0      -10.078137   -5.184249    1.455679
    116          1           0       -9.354440   -5.220130    2.891851
    117          1           0       -8.420012   -5.862924    1.571647
    118          1           0       -9.555630   -3.408499   -0.160877
    119          1           0       -8.055217   -2.626620   -0.122494
    120          1           0       -9.912852   -1.340072    1.837826
    121          1           0       -9.973891   -1.158757    0.072400
    122          1           0       -7.163449   -1.085562    1.010640
    123          1           0       -8.092597   -0.036601    1.991400
    124          1           0       -8.828889    0.319537   -0.829438
    125          1           0       -6.542718    1.953163   -0.773626
    126          1           0       -6.836233    0.522843   -1.695574
    127          1           0       -6.091664    0.295194   -0.156706
    128          1           0       -7.966055    2.546790    1.043670
    129          1           0       -9.456978    1.821771    1.473815
    130          1           0       -8.957824    2.614564   -1.488738
    131          1           0       -8.943382    3.799924   -0.238670
    132          1           0      -11.366458    2.418895    0.370314
    133          1           0      -11.080151    2.158904   -1.411074
    134          1           0      -10.838954    4.777600   -1.040568
    135          1           0      -13.184937    5.303729    0.271382
    136          1           0      -11.630279    4.996901    1.217452
    137          1           0      -12.778015    3.728390    1.004304
    138          1           0      -12.678795    3.137451   -2.309605
    139          1           0      -12.616872    4.967220   -2.286581
    140          1           0      -13.743370    4.227702   -1.363609
 ---------------------------------------------------------------------

 SCF Done:  E(RZINDO/S) =  -474.312665933     A.U. after   20 cycles

 Excitation energies and oscillator strengths:

 Excited State   1:      Singlet-A      1.3308 eV  931.62 nm  f=0.5299  <S**2>=0.000
     175 ->178         0.18447
     176 ->177         0.66624
 This state for optimization and/or second-order correction.
 Total Energy, E(CIS/TDA) =  -474.263758451
 Copying the excited state density for this state as the 1-particle RhoCI density.

 Excited State   2:      Singlet-A      1.9204 eV  645.62 nm  f=0.0128  <S**2>=0.000
     175 ->177         0.51006
     176 ->178        -0.46462

 Excited State   3:      Singlet-A      2.8721 eV  431.69 nm  f=0.0000  <S**2>=0.000
     168 ->177         0.32676
     168 ->178        -0.13616
     168 ->179        -0.40057
     168 ->180         0.29174
     168 ->185        -0.22901

 Excited State   4:      Singlet-A      3.0345 eV  408.58 nm  f=1.2318  <S**2>=0.000
     170 ->177         0.12269
     170 ->179         0.10748
     170 ->180         0.12883
     175 ->177         0.41677
     176 ->178         0.47077

 Excited State   5:      Singlet-A      3.0586 eV  405.36 nm  f=0.1889  <S**2>=0.000
     170 ->177         0.22818
     170 ->179         0.28830
     170 ->180         0.33417
     170 ->184         0.10477
     170 ->185         0.21289
     170 ->187         0.17240
     171 ->177         0.12041
     175 ->177        -0.15483
     176 ->178        -0.17592

 The electronic state is 1-A.
 Alpha  occ. eigenvalues --   -1.84353  -1.83042  -1.79889  -1.72166  -1.71858
 Alpha  occ. eigenvalues --   -1.69612  -1.66772  -1.63660  -1.60747  -1.56829
 Alpha  occ. eigenvalues --   -1.56084  -1.52065  -1.49198  -1.47969  -1.46543
 Alpha  occ. eigenvalues --   -1.44889  -1.42150  -1.41453  -1.39556  -1.38714
 Alpha  occ. eigenvalues --   -1.35416  -1.33727  -1.32771  -1.31742  -1.28768
 Alpha  occ. eigenvalues --   -1.28009  -1.26253  -1.23334  -1.22242  -1.18655
 Alpha  occ. eigenvalues --   -1.15895  -1.14817  -1.14644  -1.14249  -1.13015
 Alpha  occ. eigenvalues --   -1.12917  -1.11577  -1.11373  -1.05987  -1.04648
 Alpha  occ. eigenvalues --   -1.04457  -1.00965  -1.00741  -0.97956  -0.96910
 Alpha  occ. eigenvalues --   -0.96374  -0.94425  -0.93916  -0.93135  -0.91633
 Alpha  occ. eigenvalues --   -0.91142  -0.90489  -0.89098  -0.88562  -0.88087
 Alpha  occ. eigenvalues --   -0.85971  -0.83615  -0.83341  -0.81843  -0.80389
 Alpha  occ. eigenvalues --   -0.79030  -0.78372  -0.77285  -0.77184  -0.76765
 Alpha  occ. eigenvalues --   -0.76235  -0.75977  -0.74858  -0.74026  -0.73198
 Alpha  occ. eigenvalues --   -0.73036  -0.72422  -0.72343  -0.71138  -0.71091
 Alpha  occ. eigenvalues --   -0.70715  -0.70064  -0.69597  -0.68499  -0.68090
 Alpha  occ. eigenvalues --   -0.66940  -0.66710  -0.66656  -0.66160  -0.65496
 Alpha  occ. eigenvalues --   -0.65387  -0.64848  -0.64486  -0.64130  -0.64023
 Alpha  occ. eigenvalues --   -0.63637  -0.63249  -0.62263  -0.62126  -0.61771
 Alpha  occ. eigenvalues --   -0.61662  -0.61338  -0.60879  -0.60631  -0.59983
 Alpha  occ. eigenvalues --   -0.59177  -0.59144  -0.58615  -0.58272  -0.58119
 Alpha  occ. eigenvalues --   -0.57526  -0.57176  -0.56883  -0.56618  -0.56409
 Alpha  occ. eigenvalues --   -0.55913  -0.55789  -0.55546  -0.55099  -0.54805
 Alpha  occ. eigenvalues --   -0.54734  -0.54120  -0.53634  -0.53421  -0.53154
 Alpha  occ. eigenvalues --   -0.52942  -0.52632  -0.52367  -0.52179  -0.51984
 Alpha  occ. eigenvalues --   -0.51270  -0.51115  -0.51084  -0.50982  -0.50486
 Alpha  occ. eigenvalues --   -0.50128  -0.49822  -0.49523  -0.49233  -0.48960
 Alpha  occ. eigenvalues --   -0.48788  -0.48702  -0.48226  -0.47733  -0.47683
 Alpha  occ. eigenvalues --   -0.47205  -0.47056  -0.46738  -0.46411  -0.46222
 Alpha  occ. eigenvalues --   -0.45956  -0.45679  -0.45382  -0.45047  -0.44710
 Alpha  occ. eigenvalues --   -0.44540  -0.44427  -0.44163  -0.44067  -0.43586
 Alpha  occ. eigenvalues --   -0.43134  -0.42789  -0.42223  -0.41955  -0.41793
 Alpha  occ. eigenvalues --   -0.41587  -0.41368  -0.41199  -0.39345  -0.39178
 Alpha  occ. eigenvalues --   -0.38538  -0.37251  -0.35720  -0.35061  -0.34350
 Alpha  occ. eigenvalues --   -0.34140  -0.32697  -0.32627  -0.32347  -0.27156
 Alpha  occ. eigenvalues --   -0.22273
 Alpha virt. eigenvalues --   -0.08510  -0.02903  -0.00712   0.01353   0.01645
 Alpha virt. eigenvalues --    0.01734   0.02496   0.02795   0.04127   0.04694
 Alpha virt. eigenvalues --    0.05770   0.06510   0.06745   0.07434   0.07622

 Mulliken charges:
               1
     1  Mg   0.428052
     2  C   -0.035877
     3  C   -0.078610
     4  C   -0.111095
     5  C   -0.072423
     6  N   -0.275854
     7  C    0.086386
     8  C   -0.010629
     9  C    0.000924
    10  C    0.155968
    11  C   -0.044406
    12  C   -0.015379
    13  C    0.015041
    14  C    0.464255
    15  O   -0.519359
    16  O   -0.269400
    17  N   -0.334242
    18  C    0.132091
    19  C    0.067124
    20  C   -0.046988
    21  C    0.166612
    22  C   -0.023532
    23  C    0.319161
    24  O   -0.527662
    25  C   -0.046651
    26  N   -0.258450
    27  C    0.159165
    28  C    0.016304
    29  C    0.004363
    30  C    0.071267
    31  C   -0.065867
    32  C   -0.032973
    33  C   -0.061242
    34  N   -0.326473
    35  C    0.064556
    36  C    0.018158
    37  C   -0.055441
    38  C    0.093347
    39  C   -0.039510
    40  C    0.320007
    41  O   -0.531056
    42  C    0.053737
    43  C    0.497144
    44  O   -0.516195
    45  O   -0.264856
    46  C    0.071816
    47  C    0.102450
    48  C   -0.089784
    49  C    0.002434
    50  C   -0.037387
    51  C   -0.028966
    52  C   -0.029027
    53  C   -0.029312
    54  C   -0.000816
    55  C   -0.062699
    56  C   -0.039229
    57  C   -0.040989
    58  C   -0.042130
    59  C   -0.010526
    60  C   -0.061729
    61  C   -0.037212
    62  C   -0.043016
    63  C   -0.033549
    64  C   -0.005713
    65  C   -0.048632
    66  C   -0.058886
    67  H    0.031209
    68  H    0.023796
    69  H    0.035132
    70  H    0.039634
    71  H    0.026799
    72  H    0.027170
    73  H    0.026174
    74  H    0.023344
    75  H    0.040584
    76  H    0.032556
    77  H    0.051117
    78  H    0.039182
    79  H    0.009591
    80  H    0.046661
    81  H    0.045550
    82  H    0.044922
    83  H    0.050159
    84  H    0.029650
    85  H    0.036464
    86  H    0.042795
    87  H    0.024060
    88  H    0.027183
    89  H    0.015492
    90  H    0.023402
    91  H    0.018112
    92  H    0.018802
    93  H    0.013246
    94  H    0.030464
    95  H    0.029867
    96  H    0.030449
    97  H    0.036655
    98  H    0.056820
    99  H    0.052439
   100  H    0.032662
   101  H    0.044035
   102  H    0.055121
   103  H    0.038705
   104  H    0.027451
   105  H    0.031625
   106  H    0.034938
   107  H    0.020711
   108  H    0.006411
   109  H    0.021795
   110  H    0.032259
   111  H    0.008410
   112  H    0.021090
   113  H    0.024260
   114  H    0.012993
   115  H    0.022794
   116  H    0.004189
   117  H    0.020915
   118  H    0.025285
   119  H    0.009241
   120  H    0.023013
   121  H    0.015073
   122  H    0.028804
   123  H    0.006570
   124  H    0.021375
   125  H    0.022382
   126  H    0.010882
   127  H    0.018062
   128  H    0.010264
   129  H    0.024647
   130  H    0.024277
   131  H    0.011601
   132  H    0.022628
   133  H    0.020298
   134  H    0.019969
   135  H    0.027781
   136  H    0.007583
   137  H    0.017887
   138  H    0.019549
   139  H    0.008651
   140  H    0.017749
 Sum of Mulliken charges =  -0.00000

 Dipole moment (field-independent basis, Debye):
    X=              1.2514    Y=              7.6502    Z=              2.1117  Tot=              8.0344
 N-N= 4.432977931215D+03 E-N= 0.000000000000D+00  KE=-9.539964109807D+03
 Leave Link  601 at Fri Apr 29 04:10:36 2022, MaxMem=  6710886400 cpu:               0.8 elap:               0.1
 (Enter /sw/apps/gaussian-16.0/g16/l9999.exe)
 1\1\GINC-BP1-COMPUTE154\SP\RZINDO CIS\STO-3G\C55H74Mg1N4O6\OF15641\29-
 Apr-2022\0\\#p ZINDO=(nstates=5)\\step_1851_chromophore_2 ZINDO\\0,1\M
 g,0,1.907,-0.478,43.111\C,0,5.416,0.126,42.709\C,0,1.238,2.459,41.38\C
 ,0,-1.311,-1.26,43.081\C,0,2.725,-3.635,44.501\N,0,3.215,1.109,42.107\
 C,0,4.613,1.137,42.103\C,0,5.199,2.411,41.48\C,0,3.799,3.29,41.443\C,0
 ,2.639,2.214,41.614\C,0,3.683,4.432,42.475\C,0,6.026,2.293,40.142\C,0,
 5.378,1.477,39.077\C,0,5.436,2.005,37.642\O,0,5.689,3.159,37.281\O,0,4

 Normal termination of Gaussian 16 at Fri Apr 29 04:10:36 2022.
