 Gaussian 16, Revision A.03,
 Gaussian 16:  ES64L-G16RevA.03 25-Dec-2016

 ------------------------------
 #p blyp/Def2SVP td=(nstates=5)
 ------------------------------

 ---------------------------------------------------
 step_1001_chromophore_11 TDDFT with blyp functional
 ---------------------------------------------------
 Symbolic Z-matrix:
 Charge =  0 Multiplicity = 1

                         Standard orientation:
 ---------------------------------------------------------------------
 Center     Atomic      Atomic             Coordinates (Angstroms)
 Number     Number       Type             X           Y           Z
 ---------------------------------------------------------------------
      1         12           0       -4.805448    1.358790    0.685791
      2          6           0       -5.549927   -2.008952    0.049528
      3          6           0       -2.457554    0.288182    3.110680
      4          6           0       -3.472434    4.450646    0.620532
      5          6           0       -7.137451    2.280090   -1.678827
      6          7           0       -4.063472   -0.688404    1.468747
      7          6           0       -4.531846   -1.898917    1.059297
      8          6           0       -3.927838   -2.962057    1.985928
      9          6           0       -3.015479   -2.264359    3.028044
     10          6           0       -3.228219   -0.772342    2.537504
     11          6           0       -3.365833   -2.580077    4.454225
     12          6           0       -3.341596   -4.271188    1.312107
     13          6           0       -2.243552   -4.076500    0.239886
     14          6           0       -0.736663   -4.110548    0.691649
     15          8           0       -0.375634   -3.774338    1.773958
     16          8           0        0.081071   -4.640314   -0.295353
     17          7           0       -3.275701    2.287190    1.784346
     18          6           0       -2.438453    1.643081    2.717224
     19          6           0       -1.561762    2.716317    3.290554
     20          6           0       -1.770643    3.882830    2.548838
     21          6           0       -2.863875    3.609341    1.583205
     22          6           0       -0.548172    2.403820    4.399108
     23          6           0       -0.818165    5.064686    2.593120
     24          8           0        0.018077    5.153144    3.477453
     25          6           0       -0.847616    6.054428    1.545066
     26          7           0       -5.126290    3.045927   -0.513466
     27          6           0       -4.420685    4.178324   -0.270597
     28          6           0       -5.141829    5.284661   -1.104131
     29          6           0       -6.040443    4.590470   -2.172029
     30          6           0       -6.192476    3.222951   -1.403384
     31          6           0       -5.762276    6.394649   -0.267617
     32          6           0       -5.480739    4.373308   -3.615528
     33          6           0       -5.742014    5.454955   -4.670306
     34          7           0       -6.140722    0.336320   -0.550864
     35          6           0       -7.129524    0.865955   -1.316908
     36          6           0       -8.031521   -0.168468   -1.767591
     37          6           0       -7.385774   -1.356677   -1.359119
     38          6           0       -6.229980   -0.987022   -0.612889
     39          6           0       -9.210070   -0.092074   -2.693319
     40          6           0       -7.424770   -2.820961   -1.319575
     41          8           0       -8.310996   -3.594411   -1.748045
     42          6           0       -6.176792   -3.252162   -0.602880
     43          6           0       -5.328768   -3.844891   -1.610956
     44          8           0       -4.447611   -3.271029   -2.241723
     45          8           0       -5.601955   -5.184430   -1.770139
     46          6           0       -4.523063   -5.970701   -2.409992
     47          6           0        1.415784   -4.946907    0.101600
     48          6           0        2.209935   -3.661090    0.016269
     49          6           0        3.350009   -3.362430    0.659524
     50          6           0        4.133203   -4.444884    1.522560
     51          6           0        4.121953   -2.130522    0.370561
     52          6           0        4.639262   -1.880800   -1.065800
     53          6           0        6.116218   -1.429232   -1.144889
     54          6           0        6.337784    0.136085   -1.342881
     55          6           0        6.807740    0.531032   -2.723731
     56          6           0        7.204574    0.629359   -0.196434
     57          6           0        8.600670   -0.037959   -0.065270
     58          6           0        9.765064    0.914343    0.268628
     59          6           0       11.038377    0.253993    0.723171
     60          6           0       11.085580    0.267355    2.257848
     61          6           0       12.312173    1.088310    0.251004
     62          6           0       13.148844    0.419309   -0.884888
     63          6           0       14.721651    0.586359   -0.663118
     64          6           0       15.465895    0.759200   -2.044875
     65          6           0       16.938394    0.221929   -1.867202
     66          6           0       15.330396    2.201499   -2.571662
     67          1           0       -1.791419   -0.033283    3.913552
     68          1           0       -3.159895    5.488658    0.483391
     69          1           0       -7.989103    2.613128   -2.277241
     70          1           0       -4.875745   -3.318467    2.389057
     71          1           0       -1.990008   -2.542177    2.783652
     72          1           0       -2.459790   -2.657231    5.055267
     73          1           0       -3.955734   -3.496400    4.418389
     74          1           0       -3.923901   -1.734475    4.854428
     75          1           0       -4.174606   -4.768745    0.816914
     76          1           0       -3.075890   -4.994669    2.082417
     77          1           0       -2.482234   -3.121709   -0.226761
     78          1           0       -2.447069   -4.893531   -0.451994
     79          1           0       -0.577471    3.039355    5.284507
     80          1           0        0.467722    2.387538    4.004006
     81          1           0       -0.608739    1.432679    4.891753
     82          1           0        0.042743    6.683801    1.570432
     83          1           0       -1.594740    6.805307    1.800609
     84          1           0       -0.898764    5.611964    0.550335
     85          1           0       -4.320457    5.667360   -1.711159
     86          1           0       -7.011167    5.086597   -2.173152
     87          1           0       -5.165122    7.304726   -0.327161
     88          1           0       -5.711097    6.105615    0.781219
     89          1           0       -6.801876    6.571845   -0.543837
     90          1           0       -5.841470    3.435060   -4.036841
     91          1           0       -4.391612    4.337049   -3.623569
     92          1           0       -4.744313    5.796965   -4.945368
     93          1           0       -6.299829    6.307385   -4.280366
     94          1           0       -6.338591    5.123260   -5.519786
     95          1           0       -9.106760    0.647498   -3.486328
     96          1           0      -10.170422    0.071520   -2.202926
     97          1           0       -9.271428   -1.075916   -3.157481
     98          1           0       -6.415761   -4.014913    0.138041
     99          1           0       -4.105243   -6.553208   -1.587743
    100          1           0       -3.826378   -5.416553   -3.039122
    101          1           0       -5.058350   -6.701766   -3.015809
    102          1           0        1.836625   -5.581459   -0.678401
    103          1           0        1.509154   -5.405969    1.085117
    104          1           0        1.838938   -2.934292   -0.705703
    105          1           0        3.715688   -5.430769    1.316833
    106          1           0        4.069854   -4.203390    2.584220
    107          1           0        5.192642   -4.358013    1.282916
    108          1           0        4.960863   -2.042233    1.061127
    109          1           0        3.371804   -1.341604    0.425072
    110          1           0        4.041112   -1.114080   -1.556317
    111          1           0        4.543760   -2.821117   -1.609616
    112          1           0        6.751291   -2.024289   -1.801352
    113          1           0        6.576452   -1.707706   -0.196284
    114          1           0        5.416521    0.718354   -1.358359
    115          1           0        6.044898    1.052066   -3.301868
    116          1           0        7.046393   -0.364454   -3.298291
    117          1           0        7.743496    1.087440   -2.689863
    118          1           0        6.741338    0.342772    0.747628
    119          1           0        7.248338    1.717189   -0.243898
    120          1           0        8.908590   -0.529549   -0.987186
    121          1           0        8.616747   -0.743996    0.765268
    122          1           0        9.385550    1.733316    0.879046
    123          1           0       10.056401    1.288840   -0.712966
    124          1           0       10.962035   -0.777933    0.382364
    125          1           0       12.035401   -0.085844    2.659534
    126          1           0       10.255926   -0.349271    2.602420
    127          1           0       10.778863    1.211591    2.707842
    128          1           0       12.982786    1.133663    1.108621
    129          1           0       11.992604    2.066385   -0.110738
    130          1           0       12.913954    0.889161   -1.839372
    131          1           0       12.847591   -0.627699   -0.841350
    132          1           0       14.967518   -0.362188   -0.184538
    133          1           0       14.981082    1.404561    0.008310
    134          1           0       15.035752    0.111070   -2.808274
    135          1           0       17.005793   -0.239692   -0.882714
    136          1           0       17.691180    0.953783   -2.157655
    137          1           0       17.127512   -0.619594   -2.532779
    138          1           0       16.206155    2.341408   -3.205396
    139          1           0       15.104985    2.969048   -1.831858
    140          1           0       14.579739    2.154044   -3.360538
 ---------------------------------------------------------------------

 SCF Done:  E(RB-LYP) =  -3007.37246888     A.U. after   21 cycles

 Excitation energies and oscillator strengths:

 Excited State   1:      Singlet-A      1.8248 eV  679.44 nm  f=0.3062  <S**2>=0.000
     245 -> 248        0.18966
     246 -> 247        0.68619
     246 <- 247       -0.14801
 This state for optimization and/or second-order correction.
 Total Energy, E(TD-HF/TD-DFT) =  -3007.30540901
 Copying the excited state density for this state as the 1-particle RhoCI density.

 Excited State   2:      Singlet-A      1.8530 eV  669.09 nm  f=0.0014  <S**2>=0.000
     244 -> 247        0.70593

 Excited State   3:      Singlet-A      1.9229 eV  644.77 nm  f=0.0195  <S**2>=0.000
     243 -> 247        0.57538
     245 -> 247       -0.39154

 Excited State   4:      Singlet-A      2.0963 eV  591.43 nm  f=0.0564  <S**2>=0.000
     243 -> 247        0.39748
     245 -> 247        0.51841
     246 -> 248       -0.23754

 Excited State   5:      Singlet-A      2.1491 eV  576.92 nm  f=0.0012  <S**2>=0.000
     242 -> 247        0.70642

 The electronic state is 1-A.
 Alpha  occ. eigenvalues --  -46.27086 -18.82292 -18.81686 -18.78094 -18.76601
 Alpha  occ. eigenvalues --  -18.75450 -18.74959 -14.03533 -14.02493 -14.01544
 Alpha  occ. eigenvalues --  -14.00524 -10.04818 -10.03774  -9.99630  -9.99236
 Alpha  occ. eigenvalues --   -9.98159  -9.97761  -9.97208  -9.96801  -9.96728
 Alpha  occ. eigenvalues --   -9.96189  -9.96167  -9.95904  -9.95611  -9.94232
 Alpha  occ. eigenvalues --   -9.94144  -9.94125  -9.94097  -9.94075  -9.93861
 Alpha  occ. eigenvalues --   -9.93626  -9.93561  -9.93471  -9.93446  -9.93315
 Alpha  occ. eigenvalues --   -9.93045  -9.92715  -9.92645  -9.92543  -9.92445
 Alpha  occ. eigenvalues --   -9.92428  -9.92416  -9.92325  -9.92056  -9.92048
 Alpha  occ. eigenvalues --   -9.92013  -9.91816  -9.91789  -9.91674  -9.91589
 Alpha  occ. eigenvalues --   -9.91536  -9.91443  -9.91345  -9.91249  -9.91105
 Alpha  occ. eigenvalues --   -9.91063  -9.91018  -9.90951  -9.90943  -9.90924
 Alpha  occ. eigenvalues --   -9.90916  -9.90741  -9.90460  -9.90443  -9.90396
 Alpha  occ. eigenvalues --   -9.90305  -2.91657  -1.72090  -1.71531  -1.71369
 Alpha  occ. eigenvalues --   -0.99190  -0.97474  -0.92178  -0.91431  -0.89784
 Alpha  occ. eigenvalues --   -0.89384  -0.86766  -0.85608  -0.84946  -0.83467
 Alpha  occ. eigenvalues --   -0.76230  -0.73478  -0.72807  -0.72379  -0.72359
 Alpha  occ. eigenvalues --   -0.71601  -0.71586  -0.70648  -0.70573  -0.69788
 Alpha  occ. eigenvalues --   -0.69077  -0.69019  -0.68154  -0.67797  -0.67322
 Alpha  occ. eigenvalues --   -0.66620  -0.66367  -0.65557  -0.65102  -0.64436
 Alpha  occ. eigenvalues --   -0.63985  -0.62294  -0.62095  -0.61586  -0.60943
 Alpha  occ. eigenvalues --   -0.60504  -0.60261  -0.59827  -0.59655  -0.58432
 Alpha  occ. eigenvalues --   -0.58221  -0.57788  -0.56678  -0.55647  -0.54190
 Alpha  occ. eigenvalues --   -0.54186  -0.53870  -0.52511  -0.52244  -0.51219
 Alpha  occ. eigenvalues --   -0.51136  -0.50861  -0.50647  -0.50447  -0.49333
 Alpha  occ. eigenvalues --   -0.49129  -0.48526  -0.48066  -0.47788  -0.46467
 Alpha  occ. eigenvalues --   -0.46206  -0.45872  -0.45666  -0.45477  -0.45222
 Alpha  occ. eigenvalues --   -0.44026  -0.43709  -0.43360  -0.42833  -0.42416
 Alpha  occ. eigenvalues --   -0.42071  -0.41935  -0.41706  -0.41491  -0.41268
 Alpha  occ. eigenvalues --   -0.40985  -0.40763  -0.40444  -0.40304  -0.40138
 Alpha  occ. eigenvalues --   -0.40052  -0.39937  -0.39626  -0.39476  -0.38779
 Alpha  occ. eigenvalues --   -0.38719  -0.38508  -0.38379  -0.38334  -0.38259
 Alpha  occ. eigenvalues --   -0.38225  -0.38153  -0.37849  -0.37613  -0.37306
 Alpha  occ. eigenvalues --   -0.36901  -0.36837  -0.36713  -0.36548  -0.36483
 Alpha  occ. eigenvalues --   -0.36266  -0.36160  -0.35926  -0.35669  -0.35154
 Alpha  occ. eigenvalues --   -0.35046  -0.35010  -0.34988  -0.34785  -0.34595
 Alpha  occ. eigenvalues --   -0.34361  -0.34117  -0.33887  -0.33824  -0.33737
 Alpha  occ. eigenvalues --   -0.33503  -0.33452  -0.33349  -0.33170  -0.33129
 Alpha  occ. eigenvalues --   -0.32959  -0.32816  -0.32660  -0.32486  -0.32329
 Alpha  occ. eigenvalues --   -0.32047  -0.31770  -0.31625  -0.31518  -0.31172
 Alpha  occ. eigenvalues --   -0.31041  -0.30869  -0.30700  -0.30532  -0.30391
 Alpha  occ. eigenvalues --   -0.30271  -0.29945  -0.29846  -0.29700  -0.29619
 Alpha  occ. eigenvalues --   -0.29451  -0.29172  -0.29136  -0.28851  -0.28768
 Alpha  occ. eigenvalues --   -0.28401  -0.28237  -0.28085  -0.27922  -0.27517
 Alpha  occ. eigenvalues --   -0.27163  -0.27009  -0.26666  -0.26452  -0.26388
 Alpha  occ. eigenvalues --   -0.26167  -0.25925  -0.25547  -0.25463  -0.25097
 Alpha  occ. eigenvalues --   -0.24836  -0.24572  -0.24528  -0.23672  -0.23234
 Alpha  occ. eigenvalues --   -0.23046  -0.22974  -0.22171  -0.21964  -0.20599
 Alpha  occ. eigenvalues --   -0.20419  -0.19462  -0.18646  -0.18313  -0.17473
 Alpha  occ. eigenvalues --   -0.15893
 Alpha virt. eigenvalues --   -0.11567  -0.06846  -0.06339  -0.04704  -0.02736
 Alpha virt. eigenvalues --   -0.02463  -0.02205  -0.01537  -0.01328   0.00530
 Alpha virt. eigenvalues --    0.01155   0.02058   0.02280   0.02455   0.03082

 Mulliken charges:
               1
     1  Mg   0.684652
     2  C    0.026890
     3  C   -0.025667
     4  C   -0.036993
     5  C   -0.051138
     6  N   -0.175992
     7  C   -0.098519
     8  C    0.020481
     9  C    0.007313
    10  C   -0.035204
    11  C    0.156770
    12  C    0.088399
    13  C    0.102102
    14  C    0.098472
    15  O   -0.146243
    16  O   -0.260697
    17  N   -0.327995
    18  C    0.153450
    19  C   -0.112932
    20  C    0.035888
    21  C    0.148288
    22  C    0.171086
    23  C   -0.106553
    24  O   -0.160210
    25  C    0.171385
    26  N   -0.264939
    27  C    0.015977
    28  C   -0.008382
    29  C    0.035439
    30  C    0.035875
    31  C    0.161521
    32  C    0.096411
    33  C    0.066823
    34  N   -0.225061
    35  C    0.084251
    36  C   -0.179192
    37  C    0.098118
    38  C    0.046983
    39  C    0.165342
    40  C   -0.060743
    41  O   -0.157388
    42  C    0.075492
    43  C    0.120361
    44  O   -0.183525
    45  O   -0.280573
    46  C    0.211442
    47  C    0.341368
    48  C   -0.147878
    49  C   -0.135670
    50  C    0.116018
    51  C    0.151459
    52  C    0.106824
    53  C    0.083069
    54  C   -0.066484
    55  C    0.115652
    56  C    0.124806
    57  C    0.022783
    58  C    0.091654
    59  C   -0.065954
    60  C    0.109379
    61  C    0.102520
    62  C    0.055257
    63  C    0.074583
    64  C   -0.116125
    65  C    0.112658
    66  C    0.135767
    67  H   -0.056717
    68  H   -0.073519
    69  H   -0.063854
    70  H   -0.029714
    71  H    0.003012
    72  H   -0.003527
    73  H   -0.002249
    74  H   -0.012947
    75  H   -0.031944
    76  H   -0.029465
    77  H    0.033650
    78  H   -0.012228
    79  H    0.003184
    80  H    0.006989
    81  H   -0.036659
    82  H   -0.023442
    83  H    0.011050
    84  H    0.015050
    85  H   -0.043743
    86  H   -0.039707
    87  H   -0.007491
    88  H   -0.010404
    89  H   -0.006055
    90  H   -0.015211
    91  H   -0.021822
    92  H   -0.006821
    93  H   -0.019201
    94  H   -0.001669
    95  H   -0.007353
    96  H   -0.000586
    97  H    0.005109
    98  H   -0.005970
    99  H    0.015797
   100  H    0.043192
   101  H    0.009629
   102  H   -0.001920
   103  H    0.004628
   104  H   -0.038091
   105  H   -0.008541
   106  H    0.002833
   107  H   -0.006966
   108  H   -0.033670
   109  H   -0.017573
   110  H   -0.027596
   111  H   -0.037509
   112  H   -0.039201
   113  H   -0.044937
   114  H   -0.043123
   115  H   -0.013898
   116  H   -0.033970
   117  H   -0.018820
   118  H   -0.035135
   119  H   -0.033392
   120  H   -0.025397
   121  H   -0.026425
   122  H   -0.028600
   123  H   -0.046286
   124  H   -0.035408
   125  H   -0.008312
   126  H   -0.041517
   127  H   -0.023938
   128  H   -0.035424
   129  H   -0.024112
   130  H   -0.028578
   131  H   -0.030472
   132  H   -0.030146
   133  H   -0.014609
   134  H   -0.034861
   135  H   -0.019939
   136  H   -0.017343
   137  H   -0.029714
   138  H   -0.030755
   139  H    0.005888
   140  H   -0.024488
 Sum of Mulliken charges =  -0.00000

 Dipole moment (field-independent basis, Debye):
    X=              1.2055    Y=              0.3204    Z=             -0.6747  Tot=              1.4182
 Quadrupole moment (field-independent basis, Debye-Ang):
   XX=           -422.2034   YY=           -382.0893   ZZ=           -409.0484
   XY=            -42.3704   XZ=            -15.7975   YZ=            -24.1761

 Normal termination of Gaussian 16 at Tue May  3 15:02:45 2022.
