 Gaussian 16, Revision A.03,
 Gaussian 16:  ES64L-G16RevA.03 25-Dec-2016

 -----------------------------------
 #p cam-b3lyp/Def2SVP td=(nstates=5)
 -----------------------------------

 --------------------------------------------------------
 step_1001_chromophore_11 TDDFT with cam-b3lyp functional
 --------------------------------------------------------
 Symbolic Z-matrix:
 Charge =  0 Multiplicity = 1

                         Standard orientation:
 ---------------------------------------------------------------------
 Center     Atomic      Atomic             Coordinates (Angstroms)
 Number     Number       Type             X           Y           Z
 ---------------------------------------------------------------------
      1         12           0       -4.805448    1.358790    0.685791
      2          6           0       -5.549927   -2.008952    0.049528
      3          6           0       -2.457554    0.288182    3.110680
      4          6           0       -3.472434    4.450646    0.620532
      5          6           0       -7.137451    2.280090   -1.678827
      6          7           0       -4.063472   -0.688404    1.468747
      7          6           0       -4.531846   -1.898917    1.059297
      8          6           0       -3.927838   -2.962057    1.985928
      9          6           0       -3.015479   -2.264359    3.028044
     10          6           0       -3.228219   -0.772342    2.537504
     11          6           0       -3.365833   -2.580077    4.454225
     12          6           0       -3.341596   -4.271188    1.312107
     13          6           0       -2.243552   -4.076500    0.239886
     14          6           0       -0.736663   -4.110548    0.691649
     15          8           0       -0.375634   -3.774338    1.773958
     16          8           0        0.081071   -4.640314   -0.295353
     17          7           0       -3.275701    2.287190    1.784346
     18          6           0       -2.438453    1.643081    2.717224
     19          6           0       -1.561762    2.716317    3.290554
     20          6           0       -1.770643    3.882830    2.548838
     21          6           0       -2.863875    3.609341    1.583205
     22          6           0       -0.548172    2.403820    4.399108
     23          6           0       -0.818165    5.064686    2.593120
     24          8           0        0.018077    5.153144    3.477453
     25          6           0       -0.847616    6.054428    1.545066
     26          7           0       -5.126290    3.045927   -0.513466
     27          6           0       -4.420685    4.178324   -0.270597
     28          6           0       -5.141829    5.284661   -1.104131
     29          6           0       -6.040443    4.590470   -2.172029
     30          6           0       -6.192476    3.222951   -1.403384
     31          6           0       -5.762276    6.394649   -0.267617
     32          6           0       -5.480739    4.373308   -3.615528
     33          6           0       -5.742014    5.454955   -4.670306
     34          7           0       -6.140722    0.336320   -0.550864
     35          6           0       -7.129524    0.865955   -1.316908
     36          6           0       -8.031521   -0.168468   -1.767591
     37          6           0       -7.385774   -1.356677   -1.359119
     38          6           0       -6.229980   -0.987022   -0.612889
     39          6           0       -9.210070   -0.092074   -2.693319
     40          6           0       -7.424770   -2.820961   -1.319575
     41          8           0       -8.310996   -3.594411   -1.748045
     42          6           0       -6.176792   -3.252162   -0.602880
     43          6           0       -5.328768   -3.844891   -1.610956
     44          8           0       -4.447611   -3.271029   -2.241723
     45          8           0       -5.601955   -5.184430   -1.770139
     46          6           0       -4.523063   -5.970701   -2.409992
     47          6           0        1.415784   -4.946907    0.101600
     48          6           0        2.209935   -3.661090    0.016269
     49          6           0        3.350009   -3.362430    0.659524
     50          6           0        4.133203   -4.444884    1.522560
     51          6           0        4.121953   -2.130522    0.370561
     52          6           0        4.639262   -1.880800   -1.065800
     53          6           0        6.116218   -1.429232   -1.144889
     54          6           0        6.337784    0.136085   -1.342881
     55          6           0        6.807740    0.531032   -2.723731
     56          6           0        7.204574    0.629359   -0.196434
     57          6           0        8.600670   -0.037959   -0.065270
     58          6           0        9.765064    0.914343    0.268628
     59          6           0       11.038377    0.253993    0.723171
     60          6           0       11.085580    0.267355    2.257848
     61          6           0       12.312173    1.088310    0.251004
     62          6           0       13.148844    0.419309   -0.884888
     63          6           0       14.721651    0.586359   -0.663118
     64          6           0       15.465895    0.759200   -2.044875
     65          6           0       16.938394    0.221929   -1.867202
     66          6           0       15.330396    2.201499   -2.571662
     67          1           0       -1.791419   -0.033283    3.913552
     68          1           0       -3.159895    5.488658    0.483391
     69          1           0       -7.989103    2.613128   -2.277241
     70          1           0       -4.875745   -3.318467    2.389057
     71          1           0       -1.990008   -2.542177    2.783652
     72          1           0       -2.459790   -2.657231    5.055267
     73          1           0       -3.955734   -3.496400    4.418389
     74          1           0       -3.923901   -1.734475    4.854428
     75          1           0       -4.174606   -4.768745    0.816914
     76          1           0       -3.075890   -4.994669    2.082417
     77          1           0       -2.482234   -3.121709   -0.226761
     78          1           0       -2.447069   -4.893531   -0.451994
     79          1           0       -0.577471    3.039355    5.284507
     80          1           0        0.467722    2.387538    4.004006
     81          1           0       -0.608739    1.432679    4.891753
     82          1           0        0.042743    6.683801    1.570432
     83          1           0       -1.594740    6.805307    1.800609
     84          1           0       -0.898764    5.611964    0.550335
     85          1           0       -4.320457    5.667360   -1.711159
     86          1           0       -7.011167    5.086597   -2.173152
     87          1           0       -5.165122    7.304726   -0.327161
     88          1           0       -5.711097    6.105615    0.781219
     89          1           0       -6.801876    6.571845   -0.543837
     90          1           0       -5.841470    3.435060   -4.036841
     91          1           0       -4.391612    4.337049   -3.623569
     92          1           0       -4.744313    5.796965   -4.945368
     93          1           0       -6.299829    6.307385   -4.280366
     94          1           0       -6.338591    5.123260   -5.519786
     95          1           0       -9.106760    0.647498   -3.486328
     96          1           0      -10.170422    0.071520   -2.202926
     97          1           0       -9.271428   -1.075916   -3.157481
     98          1           0       -6.415761   -4.014913    0.138041
     99          1           0       -4.105243   -6.553208   -1.587743
    100          1           0       -3.826378   -5.416553   -3.039122
    101          1           0       -5.058350   -6.701766   -3.015809
    102          1           0        1.836625   -5.581459   -0.678401
    103          1           0        1.509154   -5.405969    1.085117
    104          1           0        1.838938   -2.934292   -0.705703
    105          1           0        3.715688   -5.430769    1.316833
    106          1           0        4.069854   -4.203390    2.584220
    107          1           0        5.192642   -4.358013    1.282916
    108          1           0        4.960863   -2.042233    1.061127
    109          1           0        3.371804   -1.341604    0.425072
    110          1           0        4.041112   -1.114080   -1.556317
    111          1           0        4.543760   -2.821117   -1.609616
    112          1           0        6.751291   -2.024289   -1.801352
    113          1           0        6.576452   -1.707706   -0.196284
    114          1           0        5.416521    0.718354   -1.358359
    115          1           0        6.044898    1.052066   -3.301868
    116          1           0        7.046393   -0.364454   -3.298291
    117          1           0        7.743496    1.087440   -2.689863
    118          1           0        6.741338    0.342772    0.747628
    119          1           0        7.248338    1.717189   -0.243898
    120          1           0        8.908590   -0.529549   -0.987186
    121          1           0        8.616747   -0.743996    0.765268
    122          1           0        9.385550    1.733316    0.879046
    123          1           0       10.056401    1.288840   -0.712966
    124          1           0       10.962035   -0.777933    0.382364
    125          1           0       12.035401   -0.085844    2.659534
    126          1           0       10.255926   -0.349271    2.602420
    127          1           0       10.778863    1.211591    2.707842
    128          1           0       12.982786    1.133663    1.108621
    129          1           0       11.992604    2.066385   -0.110738
    130          1           0       12.913954    0.889161   -1.839372
    131          1           0       12.847591   -0.627699   -0.841350
    132          1           0       14.967518   -0.362188   -0.184538
    133          1           0       14.981082    1.404561    0.008310
    134          1           0       15.035752    0.111070   -2.808274
    135          1           0       17.005793   -0.239692   -0.882714
    136          1           0       17.691180    0.953783   -2.157655
    137          1           0       17.127512   -0.619594   -2.532779
    138          1           0       16.206155    2.341408   -3.205396
    139          1           0       15.104985    2.969048   -1.831858
    140          1           0       14.579739    2.154044   -3.360538
 ---------------------------------------------------------------------

 SCF Done:  E(RCAM-B3LYP) =  -3007.16758399     A.U. after   17 cycles

 Excitation energies and oscillator strengths:

 Excited State   1:      Singlet-A      1.7474 eV  709.52 nm  f=0.3919  <S**2>=0.000
     245 -> 248        0.17636
     246 -> 247        0.68664
     245 <- 248        0.10512
 This state for optimization and/or second-order correction.
 Total Energy, E(TD-HF/TD-DFT) =  -3007.10336717
 Copying the excited state density for this state as the 1-particle RhoCI density.

 Excited State   2:      Singlet-A      2.3137 eV  535.87 nm  f=0.0912  <S**2>=0.000
     245 -> 247        0.63258
     246 -> 248       -0.30127

 Excited State   3:      Singlet-A      3.4014 eV  364.51 nm  f=0.0015  <S**2>=0.000
     241 -> 249       -0.18670
     242 -> 247        0.52207
     243 -> 247       -0.38022

 Excited State   4:      Singlet-A      3.4631 eV  358.02 nm  f=0.1137  <S**2>=0.000
     241 -> 247        0.45961
     241 -> 249       -0.16541
     242 -> 247       -0.23649
     242 -> 249       -0.11968
     245 -> 247       -0.12036
     246 -> 248       -0.35968

 Excited State   5:      Singlet-A      3.5371 eV  350.52 nm  f=0.0747  <S**2>=0.000
     239 -> 247        0.11369
     241 -> 247        0.23801
     241 -> 249       -0.15852
     242 -> 247        0.22659
     243 -> 247        0.48053
     246 -> 248        0.27312

 The electronic state is 1-A.
 Alpha  occ. eigenvalues --  -46.88661 -19.25122 -19.24586 -19.21115 -19.19703
 Alpha  occ. eigenvalues --  -19.18433 -19.18422 -14.42677 -14.41028 -14.40290
 Alpha  occ. eigenvalues --  -14.38759 -10.40108 -10.39211 -10.34794 -10.34593
 Alpha  occ. eigenvalues --  -10.32115 -10.31934 -10.31737 -10.31528 -10.31492
 Alpha  occ. eigenvalues --  -10.31012 -10.30587 -10.30310 -10.29442 -10.29324
 Alpha  occ. eigenvalues --  -10.28691 -10.28299 -10.28046 -10.27998 -10.27961
 Alpha  occ. eigenvalues --  -10.27865 -10.27617 -10.27570 -10.27336 -10.27288
 Alpha  occ. eigenvalues --  -10.27253 -10.27143 -10.26468 -10.26375 -10.26342
 Alpha  occ. eigenvalues --  -10.26305 -10.26164 -10.26102 -10.25968 -10.25814
 Alpha  occ. eigenvalues --  -10.25804 -10.25773 -10.25444 -10.25312 -10.25310
 Alpha  occ. eigenvalues --  -10.25293 -10.25102 -10.24993 -10.24989 -10.24963
 Alpha  occ. eigenvalues --  -10.24858 -10.24834 -10.24681 -10.24671 -10.24619
 Alpha  occ. eigenvalues --  -10.24499 -10.24490 -10.24068 -10.24043 -10.24029
 Alpha  occ. eigenvalues --  -10.23979  -3.17132  -1.92042  -1.91573  -1.91436
 Alpha  occ. eigenvalues --   -1.17701  -1.16011  -1.10098  -1.10074  -1.07919
 Alpha  occ. eigenvalues --   -1.07284  -1.04244  -1.03284  -1.02533  -1.01228
 Alpha  occ. eigenvalues --   -0.93325  -0.90370  -0.89642  -0.89179  -0.89133
 Alpha  occ. eigenvalues --   -0.88296  -0.88123  -0.87301  -0.87182  -0.86070
 Alpha  occ. eigenvalues --   -0.85994  -0.85461  -0.84396  -0.83899  -0.83552
 Alpha  occ. eigenvalues --   -0.82956  -0.82477  -0.81342  -0.81045  -0.80284
 Alpha  occ. eigenvalues --   -0.79772  -0.77824  -0.77582  -0.77395  -0.76305
 Alpha  occ. eigenvalues --   -0.75886  -0.75645  -0.75144  -0.74998  -0.73637
 Alpha  occ. eigenvalues --   -0.73320  -0.72762  -0.71590  -0.70483  -0.68785
 Alpha  occ. eigenvalues --   -0.68580  -0.68526  -0.67076  -0.66757  -0.65239
 Alpha  occ. eigenvalues --   -0.65172  -0.65097  -0.64778  -0.64521  -0.63177
 Alpha  occ. eigenvalues --   -0.63047  -0.62445  -0.61734  -0.61586  -0.60099
 Alpha  occ. eigenvalues --   -0.59793  -0.59538  -0.59309  -0.59205  -0.58633
 Alpha  occ. eigenvalues --   -0.57478  -0.57159  -0.56552  -0.56083  -0.55630
 Alpha  occ. eigenvalues --   -0.55506  -0.54897  -0.54609  -0.54450  -0.53981
 Alpha  occ. eigenvalues --   -0.53772  -0.53460  -0.53244  -0.53120  -0.52982
 Alpha  occ. eigenvalues --   -0.52726  -0.52517  -0.52308  -0.52035  -0.51479
 Alpha  occ. eigenvalues --   -0.51238  -0.51074  -0.50956  -0.50715  -0.50638
 Alpha  occ. eigenvalues --   -0.50568  -0.50440  -0.50279  -0.50020  -0.49760
 Alpha  occ. eigenvalues --   -0.49585  -0.49330  -0.49099  -0.48884  -0.48754
 Alpha  occ. eigenvalues --   -0.48599  -0.48567  -0.48205  -0.47815  -0.47370
 Alpha  occ. eigenvalues --   -0.47009  -0.46912  -0.46757  -0.46682  -0.46528
 Alpha  occ. eigenvalues --   -0.46301  -0.46133  -0.45900  -0.45645  -0.45470
 Alpha  occ. eigenvalues --   -0.45463  -0.45186  -0.44968  -0.44925  -0.44765
 Alpha  occ. eigenvalues --   -0.44692  -0.44482  -0.44385  -0.44091  -0.43968
 Alpha  occ. eigenvalues --   -0.43750  -0.43550  -0.43304  -0.43209  -0.43075
 Alpha  occ. eigenvalues --   -0.42899  -0.42386  -0.42257  -0.41908  -0.41844
 Alpha  occ. eigenvalues --   -0.41564  -0.41544  -0.41477  -0.40983  -0.40853
 Alpha  occ. eigenvalues --   -0.40611  -0.40300  -0.40261  -0.40040  -0.39834
 Alpha  occ. eigenvalues --   -0.39515  -0.39259  -0.39067  -0.39044  -0.38459
 Alpha  occ. eigenvalues --   -0.38067  -0.37876  -0.37495  -0.37248  -0.37181
 Alpha  occ. eigenvalues --   -0.37023  -0.36987  -0.36672  -0.36282  -0.36132
 Alpha  occ. eigenvalues --   -0.35894  -0.35792  -0.35156  -0.34672  -0.34398
 Alpha  occ. eigenvalues --   -0.33776  -0.33562  -0.32958  -0.31766  -0.30981
 Alpha  occ. eigenvalues --   -0.30568  -0.30208  -0.29509  -0.29099  -0.24413
 Alpha  occ. eigenvalues --   -0.21218
 Alpha virt. eigenvalues --   -0.08611  -0.01744   0.00217   0.02231   0.02546
 Alpha virt. eigenvalues --    0.05275   0.05432   0.05823   0.05999   0.07051
 Alpha virt. eigenvalues --    0.08179   0.08327   0.08633   0.08754   0.09557

 Mulliken charges:
               1
     1  Mg   0.816227
     2  C    0.010786
     3  C   -0.038316
     4  C   -0.076844
     5  C   -0.063833
     6  N   -0.241045
     7  C   -0.065321
     8  C   -0.029350
     9  C   -0.049210
    10  C   -0.013247
    11  C    0.096686
    12  C    0.042695
    13  C    0.034108
    14  C    0.180622
    15  O   -0.187882
    16  O   -0.326214
    17  N   -0.415340
    18  C    0.162187
    19  C   -0.115525
    20  C   -0.031993
    21  C    0.187915
    22  C    0.116423
    23  C   -0.023007
    24  O   -0.198978
    25  C    0.073178
    26  N   -0.343233
    27  C    0.053429
    28  C   -0.071164
    29  C   -0.012729
    30  C    0.053320
    31  C    0.099720
    32  C    0.040497
    33  C    0.006170
    34  N   -0.314761
    35  C    0.088882
    36  C   -0.174588
    37  C    0.022241
    38  C    0.081521
    39  C    0.111350
    40  C    0.033416
    41  O   -0.196735
    42  C   -0.009946
    43  C    0.208358
    44  O   -0.219432
    45  O   -0.342123
    46  C    0.169875
    47  C    0.300999
    48  C   -0.167740
    49  C   -0.155060
    50  C    0.059093
    51  C    0.088821
    52  C    0.052121
    53  C    0.026604
    54  C   -0.120427
    55  C    0.055056
    56  C    0.071322
    57  C   -0.028097
    58  C    0.044379
    59  C   -0.127041
    60  C    0.051216
    61  C    0.048025
    62  C    0.008098
    63  C    0.018001
    64  C   -0.173481
    65  C    0.051317
    66  C    0.071393
    67  H   -0.018799
    68  H   -0.036432
    69  H   -0.028793
    70  H    0.005753
    71  H    0.040531
    72  H    0.021107
    73  H    0.022504
    74  H    0.013244
    75  H   -0.006047
    76  H    0.002714
    77  H    0.063950
    78  H    0.018947
    79  H    0.033231
    80  H    0.035803
    81  H   -0.007724
    82  H    0.015619
    83  H    0.041256
    84  H    0.044836
    85  H   -0.007900
    86  H   -0.004548
    87  H    0.016282
    88  H    0.016013
    89  H    0.019451
    90  H    0.015946
    91  H    0.005144
    92  H    0.015191
    93  H    0.003737
    94  H    0.021885
    95  H    0.015397
    96  H    0.024404
    97  H    0.031165
    98  H    0.038810
    99  H    0.034819
   100  H    0.069423
   101  H    0.034697
   102  H    0.027860
   103  H    0.033412
   104  H   -0.002890
   105  H    0.013086
   106  H    0.027538
   107  H    0.015973
   108  H   -0.005665
   109  H    0.013027
   110  H   -0.000026
   111  H   -0.005647
   112  H   -0.009075
   113  H   -0.017734
   114  H   -0.009894
   115  H    0.010911
   116  H   -0.008610
   117  H    0.004606
   118  H   -0.006231
   119  H   -0.004125
   120  H    0.000206
   121  H   -0.002039
   122  H   -0.001150
   123  H   -0.018061
   124  H   -0.003092
   125  H    0.015922
   126  H   -0.016498
   127  H    0.001112
   128  H   -0.006234
   129  H    0.004472
   130  H   -0.002654
   131  H   -0.002743
   132  H   -0.001507
   133  H    0.012016
   134  H   -0.002028
   135  H    0.005054
   136  H    0.006894
   137  H   -0.004678
   138  H   -0.004939
   139  H    0.028570
   140  H   -0.000145
 Sum of Mulliken charges =  -0.00000

 Dipole moment (field-independent basis, Debye):
    X=              1.9488    Y=              0.7192    Z=             -0.0590  Tot=              2.0780
 Quadrupole moment (field-independent basis, Debye-Ang):
   XX=           -428.5357   YY=           -377.4706   ZZ=           -407.4440
   XY=            -43.8462   XZ=            -17.6127   YZ=            -24.3288

 Normal termination of Gaussian 16 at Tue May  3 13:47:39 2022.
