 Gaussian 16, Revision A.03,
 Gaussian 16:  ES64L-G16RevA.03 25-Dec-2016

 ---------------------------------
 #p PBE1PBE/Def2SVP td=(nstates=5)
 ---------------------------------

 ------------------------------------------------------
 step_1001_chromophore_11 TDDFT with PBE1PBE functional
 ------------------------------------------------------
 Symbolic Z-matrix:
 Charge =  0 Multiplicity = 1

                         Standard orientation:
 ---------------------------------------------------------------------
 Center     Atomic      Atomic             Coordinates (Angstroms)
 Number     Number       Type             X           Y           Z
 ---------------------------------------------------------------------
      1         12           0       -4.805448    1.358790    0.685791
      2          6           0       -5.549927   -2.008952    0.049528
      3          6           0       -2.457554    0.288182    3.110680
      4          6           0       -3.472434    4.450646    0.620532
      5          6           0       -7.137451    2.280090   -1.678827
      6          7           0       -4.063472   -0.688404    1.468747
      7          6           0       -4.531846   -1.898917    1.059297
      8          6           0       -3.927838   -2.962057    1.985928
      9          6           0       -3.015479   -2.264359    3.028044
     10          6           0       -3.228219   -0.772342    2.537504
     11          6           0       -3.365833   -2.580077    4.454225
     12          6           0       -3.341596   -4.271188    1.312107
     13          6           0       -2.243552   -4.076500    0.239886
     14          6           0       -0.736663   -4.110548    0.691649
     15          8           0       -0.375634   -3.774338    1.773958
     16          8           0        0.081071   -4.640314   -0.295353
     17          7           0       -3.275701    2.287190    1.784346
     18          6           0       -2.438453    1.643081    2.717224
     19          6           0       -1.561762    2.716317    3.290554
     20          6           0       -1.770643    3.882830    2.548838
     21          6           0       -2.863875    3.609341    1.583205
     22          6           0       -0.548172    2.403820    4.399108
     23          6           0       -0.818165    5.064686    2.593120
     24          8           0        0.018077    5.153144    3.477453
     25          6           0       -0.847616    6.054428    1.545066
     26          7           0       -5.126290    3.045927   -0.513466
     27          6           0       -4.420685    4.178324   -0.270597
     28          6           0       -5.141829    5.284661   -1.104131
     29          6           0       -6.040443    4.590470   -2.172029
     30          6           0       -6.192476    3.222951   -1.403384
     31          6           0       -5.762276    6.394649   -0.267617
     32          6           0       -5.480739    4.373308   -3.615528
     33          6           0       -5.742014    5.454955   -4.670306
     34          7           0       -6.140722    0.336320   -0.550864
     35          6           0       -7.129524    0.865955   -1.316908
     36          6           0       -8.031521   -0.168468   -1.767591
     37          6           0       -7.385774   -1.356677   -1.359119
     38          6           0       -6.229980   -0.987022   -0.612889
     39          6           0       -9.210070   -0.092074   -2.693319
     40          6           0       -7.424770   -2.820961   -1.319575
     41          8           0       -8.310996   -3.594411   -1.748045
     42          6           0       -6.176792   -3.252162   -0.602880
     43          6           0       -5.328768   -3.844891   -1.610956
     44          8           0       -4.447611   -3.271029   -2.241723
     45          8           0       -5.601955   -5.184430   -1.770139
     46          6           0       -4.523063   -5.970701   -2.409992
     47          6           0        1.415784   -4.946907    0.101600
     48          6           0        2.209935   -3.661090    0.016269
     49          6           0        3.350009   -3.362430    0.659524
     50          6           0        4.133203   -4.444884    1.522560
     51          6           0        4.121953   -2.130522    0.370561
     52          6           0        4.639262   -1.880800   -1.065800
     53          6           0        6.116218   -1.429232   -1.144889
     54          6           0        6.337784    0.136085   -1.342881
     55          6           0        6.807740    0.531032   -2.723731
     56          6           0        7.204574    0.629359   -0.196434
     57          6           0        8.600670   -0.037959   -0.065270
     58          6           0        9.765064    0.914343    0.268628
     59          6           0       11.038377    0.253993    0.723171
     60          6           0       11.085580    0.267355    2.257848
     61          6           0       12.312173    1.088310    0.251004
     62          6           0       13.148844    0.419309   -0.884888
     63          6           0       14.721651    0.586359   -0.663118
     64          6           0       15.465895    0.759200   -2.044875
     65          6           0       16.938394    0.221929   -1.867202
     66          6           0       15.330396    2.201499   -2.571662
     67          1           0       -1.791419   -0.033283    3.913552
     68          1           0       -3.159895    5.488658    0.483391
     69          1           0       -7.989103    2.613128   -2.277241
     70          1           0       -4.875745   -3.318467    2.389057
     71          1           0       -1.990008   -2.542177    2.783652
     72          1           0       -2.459790   -2.657231    5.055267
     73          1           0       -3.955734   -3.496400    4.418389
     74          1           0       -3.923901   -1.734475    4.854428
     75          1           0       -4.174606   -4.768745    0.816914
     76          1           0       -3.075890   -4.994669    2.082417
     77          1           0       -2.482234   -3.121709   -0.226761
     78          1           0       -2.447069   -4.893531   -0.451994
     79          1           0       -0.577471    3.039355    5.284507
     80          1           0        0.467722    2.387538    4.004006
     81          1           0       -0.608739    1.432679    4.891753
     82          1           0        0.042743    6.683801    1.570432
     83          1           0       -1.594740    6.805307    1.800609
     84          1           0       -0.898764    5.611964    0.550335
     85          1           0       -4.320457    5.667360   -1.711159
     86          1           0       -7.011167    5.086597   -2.173152
     87          1           0       -5.165122    7.304726   -0.327161
     88          1           0       -5.711097    6.105615    0.781219
     89          1           0       -6.801876    6.571845   -0.543837
     90          1           0       -5.841470    3.435060   -4.036841
     91          1           0       -4.391612    4.337049   -3.623569
     92          1           0       -4.744313    5.796965   -4.945368
     93          1           0       -6.299829    6.307385   -4.280366
     94          1           0       -6.338591    5.123260   -5.519786
     95          1           0       -9.106760    0.647498   -3.486328
     96          1           0      -10.170422    0.071520   -2.202926
     97          1           0       -9.271428   -1.075916   -3.157481
     98          1           0       -6.415761   -4.014913    0.138041
     99          1           0       -4.105243   -6.553208   -1.587743
    100          1           0       -3.826378   -5.416553   -3.039122
    101          1           0       -5.058350   -6.701766   -3.015809
    102          1           0        1.836625   -5.581459   -0.678401
    103          1           0        1.509154   -5.405969    1.085117
    104          1           0        1.838938   -2.934292   -0.705703
    105          1           0        3.715688   -5.430769    1.316833
    106          1           0        4.069854   -4.203390    2.584220
    107          1           0        5.192642   -4.358013    1.282916
    108          1           0        4.960863   -2.042233    1.061127
    109          1           0        3.371804   -1.341604    0.425072
    110          1           0        4.041112   -1.114080   -1.556317
    111          1           0        4.543760   -2.821117   -1.609616
    112          1           0        6.751291   -2.024289   -1.801352
    113          1           0        6.576452   -1.707706   -0.196284
    114          1           0        5.416521    0.718354   -1.358359
    115          1           0        6.044898    1.052066   -3.301868
    116          1           0        7.046393   -0.364454   -3.298291
    117          1           0        7.743496    1.087440   -2.689863
    118          1           0        6.741338    0.342772    0.747628
    119          1           0        7.248338    1.717189   -0.243898
    120          1           0        8.908590   -0.529549   -0.987186
    121          1           0        8.616747   -0.743996    0.765268
    122          1           0        9.385550    1.733316    0.879046
    123          1           0       10.056401    1.288840   -0.712966
    124          1           0       10.962035   -0.777933    0.382364
    125          1           0       12.035401   -0.085844    2.659534
    126          1           0       10.255926   -0.349271    2.602420
    127          1           0       10.778863    1.211591    2.707842
    128          1           0       12.982786    1.133663    1.108621
    129          1           0       11.992604    2.066385   -0.110738
    130          1           0       12.913954    0.889161   -1.839372
    131          1           0       12.847591   -0.627699   -0.841350
    132          1           0       14.967518   -0.362188   -0.184538
    133          1           0       14.981082    1.404561    0.008310
    134          1           0       15.035752    0.111070   -2.808274
    135          1           0       17.005793   -0.239692   -0.882714
    136          1           0       17.691180    0.953783   -2.157655
    137          1           0       17.127512   -0.619594   -2.532779
    138          1           0       16.206155    2.341408   -3.205396
    139          1           0       15.104985    2.969048   -1.831858
    140          1           0       14.579739    2.154044   -3.360538
 ---------------------------------------------------------------------

 SCF Done:  E(RPBE1PBE) =  -3005.35465906     A.U. after   15 cycles

 Excitation energies and oscillator strengths:

 Excited State   1:      Singlet-A      1.8791 eV  659.82 nm  f=0.3778  <S**2>=0.000
     245 -> 248        0.17397
     246 -> 247        0.69320
     246 <- 247       -0.10683
 This state for optimization and/or second-order correction.
 Total Energy, E(TD-HF/TD-DFT) =  -3005.28560495
 Copying the excited state density for this state as the 1-particle RhoCI density.

 Excited State   2:      Singlet-A      2.2919 eV  540.96 nm  f=0.0921  <S**2>=0.000
     245 -> 247        0.64668
     246 -> 248       -0.27110

 Excited State   3:      Singlet-A      2.9645 eV  418.24 nm  f=0.0004  <S**2>=0.000
     240 -> 247        0.14339
     241 -> 247        0.42719
     241 -> 249       -0.11793
     242 -> 247       -0.15381
     243 -> 247        0.46553

 Excited State   4:      Singlet-A      3.0610 eV  405.04 nm  f=0.0001  <S**2>=0.000
     242 -> 247        0.61175
     242 -> 249        0.11307
     242 -> 250       -0.11534
     243 -> 247        0.28872

 Excited State   5:      Singlet-A      3.1106 eV  398.58 nm  f=0.0003  <S**2>=0.000
     240 -> 247        0.52146
     241 -> 247        0.22447
     242 -> 247        0.17768
     243 -> 247       -0.35088

 The electronic state is 1-A.
 Alpha  occ. eigenvalues --  -46.92044 -19.25789 -19.25265 -19.21296 -19.19948
 Alpha  occ. eigenvalues --  -19.18846 -19.18446 -14.42029 -14.40743 -14.39834
 Alpha  occ. eigenvalues --  -14.38504 -10.37091 -10.36216 -10.32097 -10.31522
 Alpha  occ. eigenvalues --  -10.29479 -10.29443 -10.29237 -10.29105 -10.29001
 Alpha  occ. eigenvalues --  -10.28446 -10.28271 -10.28076 -10.27470 -10.26640
 Alpha  occ. eigenvalues --  -10.26438 -10.25963 -10.25957 -10.25878 -10.25737
 Alpha  occ. eigenvalues --  -10.25429 -10.25389 -10.25255 -10.25046 -10.25039
 Alpha  occ. eigenvalues --  -10.24872 -10.24736 -10.24211 -10.24093 -10.24044
 Alpha  occ. eigenvalues --  -10.23992 -10.23536 -10.23529 -10.23451 -10.23205
 Alpha  occ. eigenvalues --  -10.23184 -10.23081 -10.22979 -10.22978 -10.22972
 Alpha  occ. eigenvalues --  -10.22848 -10.22783 -10.22630 -10.22569 -10.22501
 Alpha  occ. eigenvalues --  -10.22477 -10.22416 -10.22217 -10.22191 -10.22143
 Alpha  occ. eigenvalues --  -10.22059 -10.21881 -10.21506 -10.21464 -10.21412
 Alpha  occ. eigenvalues --  -10.21390  -3.14097  -1.86947  -1.86457  -1.86322
 Alpha  occ. eigenvalues --   -1.12462  -1.10774  -1.04913  -1.04645  -1.02786
 Alpha  occ. eigenvalues --   -1.02112  -0.99073  -0.97910  -0.97124  -0.95677
 Alpha  occ. eigenvalues --   -0.87782  -0.84443  -0.83742  -0.83446  -0.83352
 Alpha  occ. eigenvalues --   -0.82429  -0.82385  -0.81572  -0.81269  -0.80570
 Alpha  occ. eigenvalues --   -0.80058  -0.79677  -0.78647  -0.78197  -0.77720
 Alpha  occ. eigenvalues --   -0.77075  -0.76613  -0.75731  -0.75301  -0.74532
 Alpha  occ. eigenvalues --   -0.73937  -0.72177  -0.71912  -0.71543  -0.70646
 Alpha  occ. eigenvalues --   -0.69991  -0.69724  -0.69469  -0.69129  -0.67816
 Alpha  occ. eigenvalues --   -0.67616  -0.67209  -0.66018  -0.64777  -0.63290
 Alpha  occ. eigenvalues --   -0.63037  -0.62718  -0.61383  -0.60978  -0.59682
 Alpha  occ. eigenvalues --   -0.59601  -0.59345  -0.59252  -0.59040  -0.57539
 Alpha  occ. eigenvalues --   -0.57254  -0.56621  -0.56362  -0.55817  -0.54655
 Alpha  occ. eigenvalues --   -0.54124  -0.54069  -0.53781  -0.53606  -0.53218
 Alpha  occ. eigenvalues --   -0.52025  -0.51605  -0.51136  -0.50537  -0.50204
 Alpha  occ. eigenvalues --   -0.50025  -0.49205  -0.49184  -0.48897  -0.48428
 Alpha  occ. eigenvalues --   -0.48320  -0.48005  -0.47819  -0.47572  -0.47448
 Alpha  occ. eigenvalues --   -0.47312  -0.46997  -0.46869  -0.46463  -0.45975
 Alpha  occ. eigenvalues --   -0.45752  -0.45581  -0.45511  -0.45348  -0.45174
 Alpha  occ. eigenvalues --   -0.45131  -0.44955  -0.44931  -0.44547  -0.44269
 Alpha  occ. eigenvalues --   -0.44097  -0.43787  -0.43668  -0.43585  -0.43332
 Alpha  occ. eigenvalues --   -0.43223  -0.43140  -0.42753  -0.42524  -0.41988
 Alpha  occ. eigenvalues --   -0.41620  -0.41595  -0.41449  -0.41337  -0.41132
 Alpha  occ. eigenvalues --   -0.41030  -0.40827  -0.40531  -0.40340  -0.40095
 Alpha  occ. eigenvalues --   -0.40074  -0.39780  -0.39663  -0.39646  -0.39567
 Alpha  occ. eigenvalues --   -0.39370  -0.39284  -0.39180  -0.38799  -0.38699
 Alpha  occ. eigenvalues --   -0.38515  -0.38251  -0.38231  -0.37933  -0.37838
 Alpha  occ. eigenvalues --   -0.37612  -0.37297  -0.37009  -0.36747  -0.36571
 Alpha  occ. eigenvalues --   -0.36436  -0.36316  -0.36230  -0.35843  -0.35590
 Alpha  occ. eigenvalues --   -0.35482  -0.35168  -0.35017  -0.34940  -0.34607
 Alpha  occ. eigenvalues --   -0.34412  -0.34057  -0.34004  -0.33817  -0.33250
 Alpha  occ. eigenvalues --   -0.32857  -0.32645  -0.32502  -0.32278  -0.32033
 Alpha  occ. eigenvalues --   -0.31946  -0.31757  -0.31548  -0.31183  -0.30975
 Alpha  occ. eigenvalues --   -0.30890  -0.30629  -0.30036  -0.29554  -0.29220
 Alpha  occ. eigenvalues --   -0.28952  -0.28602  -0.28563  -0.27322  -0.25747
 Alpha  occ. eigenvalues --   -0.25513  -0.25473  -0.25303  -0.24349  -0.21266
 Alpha  occ. eigenvalues --   -0.18837
 Alpha virt. eigenvalues --   -0.11145  -0.05234  -0.04046  -0.02135  -0.00155
 Alpha virt. eigenvalues --    0.00690   0.00779   0.01457   0.01627   0.03495
 Alpha virt. eigenvalues --    0.03956   0.04862   0.05193   0.05402   0.05954

 Mulliken charges:
               1
     1  Mg   0.961335
     2  C   -0.009300
     3  C   -0.035758
     4  C   -0.077288
     5  C   -0.060989
     6  N   -0.349524
     7  C    0.014960
     8  C   -0.097802
     9  C   -0.130850
    10  C    0.029897
    11  C    0.036569
    12  C   -0.013524
    13  C   -0.048249
    14  C    0.251207
    15  O   -0.221430
    16  O   -0.359844
    17  N   -0.522437
    18  C    0.183113
    19  C   -0.143159
    20  C   -0.079824
    21  C    0.217446
    22  C    0.062456
    23  C    0.028198
    24  O   -0.235693
    25  C   -0.003920
    26  N   -0.444686
    27  C    0.093228
    28  C   -0.154994
    29  C   -0.082995
    30  C    0.088608
    31  C    0.041331
    32  C   -0.019169
    33  C   -0.062568
    34  N   -0.443447
    35  C    0.112776
    36  C   -0.184425
    37  C   -0.024798
    38  C    0.147916
    39  C    0.055996
    40  C    0.120128
    41  O   -0.239760
    42  C   -0.125243
    43  C    0.305654
    44  O   -0.253400
    45  O   -0.374126
    46  C    0.114100
    47  C    0.253449
    48  C   -0.178662
    49  C   -0.188784
    50  C   -0.007243
    51  C    0.021488
    52  C   -0.011096
    53  C   -0.027233
    54  C   -0.201315
    55  C   -0.001337
    56  C    0.006674
    57  C   -0.089315
    58  C   -0.006409
    59  C   -0.216471
    60  C   -0.009583
    61  C   -0.007346
    62  C   -0.051935
    63  C   -0.041386
    64  C   -0.262576
    65  C   -0.009977
    66  C    0.010089
    67  H    0.011676
    68  H   -0.002809
    69  H    0.004671
    70  H    0.045953
    71  H    0.084218
    72  H    0.048185
    73  H    0.049595
    74  H    0.041898
    75  H    0.030914
    76  H    0.035625
    77  H    0.097644
    78  H    0.054792
    79  H    0.058740
    80  H    0.061917
    81  H    0.017670
    82  H    0.043733
    83  H    0.067607
    84  H    0.070453
    85  H    0.032169
    86  H    0.032175
    87  H    0.043287
    88  H    0.044729
    89  H    0.045920
    90  H    0.048674
    91  H    0.038062
    92  H    0.042607
    93  H    0.031688
    94  H    0.048866
    95  H    0.042999
    96  H    0.053808
    97  H    0.060014
    98  H    0.073773
    99  H    0.056312
   100  H    0.089310
   101  H    0.057299
   102  H    0.055953
   103  H    0.059471
   104  H    0.027695
   105  H    0.039820
   106  H    0.055719
   107  H    0.043966
   108  H    0.025133
   109  H    0.047656
   110  H    0.032107
   111  H    0.028163
   112  H    0.021682
   113  H    0.016136
   114  H    0.027723
   115  H    0.037812
   116  H    0.018727
   117  H    0.032466
   118  H    0.030163
   119  H    0.027729
   120  H    0.032823
   121  H    0.030411
   122  H    0.029836
   123  H    0.018971
   124  H    0.032545
   125  H    0.043856
   126  H    0.013150
   127  H    0.029226
   128  H    0.027188
   129  H    0.036315
   130  H    0.030727
   131  H    0.030198
   132  H    0.032099
   133  H    0.042985
   134  H    0.035831
   135  H    0.032124
   136  H    0.033429
   137  H    0.023399
   138  H    0.023908
   139  H    0.054445
   140  H    0.027490
 Sum of Mulliken charges =  -0.00000

 Dipole moment (field-independent basis, Debye):
    X=              1.5401    Y=              0.6013    Z=             -0.4632  Tot=              1.7170
 Quadrupole moment (field-independent basis, Debye-Ang):
   XX=           -420.9403   YY=           -374.1313   ZZ=           -404.4256
   XY=            -44.4929   XZ=            -15.5641   YZ=            -25.9798

 Normal termination of Gaussian 16 at Tue May  3 14:12:56 2022.
