 Gaussian 16, Revision A.03,
 Gaussian 16:  ES64L-G16RevA.03 25-Dec-2016

 --------------------------------
 #p wB97XD/Def2SVP td=(nstates=5)
 --------------------------------

 -----------------------------------------------------
 step_1001_chromophore_11 TDDFT with wB97XD functional
 -----------------------------------------------------
 Symbolic Z-matrix:
 Charge =  0 Multiplicity = 1

                         Standard orientation:
 ---------------------------------------------------------------------
 Center     Atomic      Atomic             Coordinates (Angstroms)
 Number     Number       Type             X           Y           Z
 ---------------------------------------------------------------------
      1         12           0       -4.805448    1.358790    0.685791
      2          6           0       -5.549927   -2.008952    0.049528
      3          6           0       -2.457554    0.288182    3.110680
      4          6           0       -3.472434    4.450646    0.620532
      5          6           0       -7.137451    2.280090   -1.678827
      6          7           0       -4.063472   -0.688404    1.468747
      7          6           0       -4.531846   -1.898917    1.059297
      8          6           0       -3.927838   -2.962057    1.985928
      9          6           0       -3.015479   -2.264359    3.028044
     10          6           0       -3.228219   -0.772342    2.537504
     11          6           0       -3.365833   -2.580077    4.454225
     12          6           0       -3.341596   -4.271188    1.312107
     13          6           0       -2.243552   -4.076500    0.239886
     14          6           0       -0.736663   -4.110548    0.691649
     15          8           0       -0.375634   -3.774338    1.773958
     16          8           0        0.081071   -4.640314   -0.295353
     17          7           0       -3.275701    2.287190    1.784346
     18          6           0       -2.438453    1.643081    2.717224
     19          6           0       -1.561762    2.716317    3.290554
     20          6           0       -1.770643    3.882830    2.548838
     21          6           0       -2.863875    3.609341    1.583205
     22          6           0       -0.548172    2.403820    4.399108
     23          6           0       -0.818165    5.064686    2.593120
     24          8           0        0.018077    5.153144    3.477453
     25          6           0       -0.847616    6.054428    1.545066
     26          7           0       -5.126290    3.045927   -0.513466
     27          6           0       -4.420685    4.178324   -0.270597
     28          6           0       -5.141829    5.284661   -1.104131
     29          6           0       -6.040443    4.590470   -2.172029
     30          6           0       -6.192476    3.222951   -1.403384
     31          6           0       -5.762276    6.394649   -0.267617
     32          6           0       -5.480739    4.373308   -3.615528
     33          6           0       -5.742014    5.454955   -4.670306
     34          7           0       -6.140722    0.336320   -0.550864
     35          6           0       -7.129524    0.865955   -1.316908
     36          6           0       -8.031521   -0.168468   -1.767591
     37          6           0       -7.385774   -1.356677   -1.359119
     38          6           0       -6.229980   -0.987022   -0.612889
     39          6           0       -9.210070   -0.092074   -2.693319
     40          6           0       -7.424770   -2.820961   -1.319575
     41          8           0       -8.310996   -3.594411   -1.748045
     42          6           0       -6.176792   -3.252162   -0.602880
     43          6           0       -5.328768   -3.844891   -1.610956
     44          8           0       -4.447611   -3.271029   -2.241723
     45          8           0       -5.601955   -5.184430   -1.770139
     46          6           0       -4.523063   -5.970701   -2.409992
     47          6           0        1.415784   -4.946907    0.101600
     48          6           0        2.209935   -3.661090    0.016269
     49          6           0        3.350009   -3.362430    0.659524
     50          6           0        4.133203   -4.444884    1.522560
     51          6           0        4.121953   -2.130522    0.370561
     52          6           0        4.639262   -1.880800   -1.065800
     53          6           0        6.116218   -1.429232   -1.144889
     54          6           0        6.337784    0.136085   -1.342881
     55          6           0        6.807740    0.531032   -2.723731
     56          6           0        7.204574    0.629359   -0.196434
     57          6           0        8.600670   -0.037959   -0.065270
     58          6           0        9.765064    0.914343    0.268628
     59          6           0       11.038377    0.253993    0.723171
     60          6           0       11.085580    0.267355    2.257848
     61          6           0       12.312173    1.088310    0.251004
     62          6           0       13.148844    0.419309   -0.884888
     63          6           0       14.721651    0.586359   -0.663118
     64          6           0       15.465895    0.759200   -2.044875
     65          6           0       16.938394    0.221929   -1.867202
     66          6           0       15.330396    2.201499   -2.571662
     67          1           0       -1.791419   -0.033283    3.913552
     68          1           0       -3.159895    5.488658    0.483391
     69          1           0       -7.989103    2.613128   -2.277241
     70          1           0       -4.875745   -3.318467    2.389057
     71          1           0       -1.990008   -2.542177    2.783652
     72          1           0       -2.459790   -2.657231    5.055267
     73          1           0       -3.955734   -3.496400    4.418389
     74          1           0       -3.923901   -1.734475    4.854428
     75          1           0       -4.174606   -4.768745    0.816914
     76          1           0       -3.075890   -4.994669    2.082417
     77          1           0       -2.482234   -3.121709   -0.226761
     78          1           0       -2.447069   -4.893531   -0.451994
     79          1           0       -0.577471    3.039355    5.284507
     80          1           0        0.467722    2.387538    4.004006
     81          1           0       -0.608739    1.432679    4.891753
     82          1           0        0.042743    6.683801    1.570432
     83          1           0       -1.594740    6.805307    1.800609
     84          1           0       -0.898764    5.611964    0.550335
     85          1           0       -4.320457    5.667360   -1.711159
     86          1           0       -7.011167    5.086597   -2.173152
     87          1           0       -5.165122    7.304726   -0.327161
     88          1           0       -5.711097    6.105615    0.781219
     89          1           0       -6.801876    6.571845   -0.543837
     90          1           0       -5.841470    3.435060   -4.036841
     91          1           0       -4.391612    4.337049   -3.623569
     92          1           0       -4.744313    5.796965   -4.945368
     93          1           0       -6.299829    6.307385   -4.280366
     94          1           0       -6.338591    5.123260   -5.519786
     95          1           0       -9.106760    0.647498   -3.486328
     96          1           0      -10.170422    0.071520   -2.202926
     97          1           0       -9.271428   -1.075916   -3.157481
     98          1           0       -6.415761   -4.014913    0.138041
     99          1           0       -4.105243   -6.553208   -1.587743
    100          1           0       -3.826378   -5.416553   -3.039122
    101          1           0       -5.058350   -6.701766   -3.015809
    102          1           0        1.836625   -5.581459   -0.678401
    103          1           0        1.509154   -5.405969    1.085117
    104          1           0        1.838938   -2.934292   -0.705703
    105          1           0        3.715688   -5.430769    1.316833
    106          1           0        4.069854   -4.203390    2.584220
    107          1           0        5.192642   -4.358013    1.282916
    108          1           0        4.960863   -2.042233    1.061127
    109          1           0        3.371804   -1.341604    0.425072
    110          1           0        4.041112   -1.114080   -1.556317
    111          1           0        4.543760   -2.821117   -1.609616
    112          1           0        6.751291   -2.024289   -1.801352
    113          1           0        6.576452   -1.707706   -0.196284
    114          1           0        5.416521    0.718354   -1.358359
    115          1           0        6.044898    1.052066   -3.301868
    116          1           0        7.046393   -0.364454   -3.298291
    117          1           0        7.743496    1.087440   -2.689863
    118          1           0        6.741338    0.342772    0.747628
    119          1           0        7.248338    1.717189   -0.243898
    120          1           0        8.908590   -0.529549   -0.987186
    121          1           0        8.616747   -0.743996    0.765268
    122          1           0        9.385550    1.733316    0.879046
    123          1           0       10.056401    1.288840   -0.712966
    124          1           0       10.962035   -0.777933    0.382364
    125          1           0       12.035401   -0.085844    2.659534
    126          1           0       10.255926   -0.349271    2.602420
    127          1           0       10.778863    1.211591    2.707842
    128          1           0       12.982786    1.133663    1.108621
    129          1           0       11.992604    2.066385   -0.110738
    130          1           0       12.913954    0.889161   -1.839372
    131          1           0       12.847591   -0.627699   -0.841350
    132          1           0       14.967518   -0.362188   -0.184538
    133          1           0       14.981082    1.404561    0.008310
    134          1           0       15.035752    0.111070   -2.808274
    135          1           0       17.005793   -0.239692   -0.882714
    136          1           0       17.691180    0.953783   -2.157655
    137          1           0       17.127512   -0.619594   -2.532779
    138          1           0       16.206155    2.341408   -3.205396
    139          1           0       15.104985    2.969048   -1.831858
    140          1           0       14.579739    2.154044   -3.360538
 ---------------------------------------------------------------------

 SCF Done:  E(RwB97XD) =  -3007.86516313     A.U. after   20 cycles

 Excitation energies and oscillator strengths:

 Excited State   1:      Singlet-A      1.7027 eV  728.18 nm  f=0.3911  <S**2>=0.000
     245 -> 248        0.17989
     246 -> 247        0.68440
     245 <- 248        0.11263
 This state for optimization and/or second-order correction.
 Total Energy, E(TD-HF/TD-DFT) =  -3007.80259186
 Copying the excited state density for this state as the 1-particle RhoCI density.

 Excited State   2:      Singlet-A      2.2689 eV  546.44 nm  f=0.0889  <S**2>=0.000
     245 -> 247        0.63010
     246 -> 248       -0.30271

 Excited State   3:      Singlet-A      3.4227 eV  362.24 nm  f=0.0030  <S**2>=0.000
     241 -> 247       -0.25797
     241 -> 249       -0.15076
     242 -> 247        0.50984
     243 -> 247       -0.32331

 Excited State   4:      Singlet-A      3.4828 eV  355.99 nm  f=0.1498  <S**2>=0.000
     241 -> 247        0.43290
     241 -> 249       -0.12262
     242 -> 249       -0.20358
     243 -> 247       -0.13609
     245 -> 247       -0.14182
     246 -> 248       -0.39426

 Excited State   5:      Singlet-A      3.5694 eV  347.35 nm  f=0.1051  <S**2>=0.000
     241 -> 247        0.20854
     241 -> 249       -0.11764
     242 -> 247        0.26313
     242 -> 249       -0.16597
     243 -> 247        0.44219
     245 -> 247        0.11245
     246 -> 248        0.28830

 The electronic state is 1-A.
 Alpha  occ. eigenvalues --  -46.95004 -19.30368 -19.29792 -19.26007 -19.24613
 Alpha  occ. eigenvalues --  -19.23476 -19.23453 -14.47301 -14.45602 -14.44950
 Alpha  occ. eigenvalues --  -14.43303 -10.43900 -10.43023 -10.38782 -10.38569
 Alpha  occ. eigenvalues --  -10.36096 -10.35981 -10.35627 -10.35485 -10.35476
 Alpha  occ. eigenvalues --  -10.35165 -10.34637 -10.34294 -10.33569 -10.33388
 Alpha  occ. eigenvalues --  -10.32851 -10.32312 -10.32178 -10.32007 -10.31921
 Alpha  occ. eigenvalues --  -10.31914 -10.31600 -10.31480 -10.31438 -10.31370
 Alpha  occ. eigenvalues --  -10.31285 -10.31211 -10.30452 -10.30402 -10.30306
 Alpha  occ. eigenvalues --  -10.30214 -10.29994 -10.29956 -10.29953 -10.29732
 Alpha  occ. eigenvalues --  -10.29691 -10.29682 -10.29286 -10.29275 -10.29258
 Alpha  occ. eigenvalues --  -10.29100 -10.29023 -10.28930 -10.28904 -10.28881
 Alpha  occ. eigenvalues --  -10.28856 -10.28790 -10.28608 -10.28599 -10.28548
 Alpha  occ. eigenvalues --  -10.28434 -10.28312 -10.27904 -10.27887 -10.27872
 Alpha  occ. eigenvalues --  -10.27845  -3.20921  -1.94518  -1.94029  -1.93894
 Alpha  occ. eigenvalues --   -1.19853  -1.18142  -1.12342  -1.12267  -1.10103
 Alpha  occ. eigenvalues --   -1.09447  -1.06232  -1.05296  -1.04535  -1.03308
 Alpha  occ. eigenvalues --   -0.95297  -0.92140  -0.91431  -0.91106  -0.90993
 Alpha  occ. eigenvalues --   -0.90074  -0.89968  -0.89238  -0.88952  -0.88033
 Alpha  occ. eigenvalues --   -0.87963  -0.87341  -0.86293  -0.85766  -0.85416
 Alpha  occ. eigenvalues --   -0.84878  -0.84304  -0.83277  -0.82971  -0.82172
 Alpha  occ. eigenvalues --   -0.81612  -0.79759  -0.79479  -0.79345  -0.78210
 Alpha  occ. eigenvalues --   -0.77706  -0.77429  -0.77089  -0.76831  -0.75486
 Alpha  occ. eigenvalues --   -0.75236  -0.74728  -0.73572  -0.72406  -0.70752
 Alpha  occ. eigenvalues --   -0.70499  -0.70387  -0.69102  -0.68643  -0.67187
 Alpha  occ. eigenvalues --   -0.67043  -0.67021  -0.66774  -0.66504  -0.65036
 Alpha  occ. eigenvalues --   -0.64950  -0.64278  -0.63717  -0.63445  -0.62064
 Alpha  occ. eigenvalues --   -0.61683  -0.61571  -0.61230  -0.61132  -0.60589
 Alpha  occ. eigenvalues --   -0.59477  -0.59109  -0.58527  -0.57988  -0.57593
 Alpha  occ. eigenvalues --   -0.57413  -0.56728  -0.56562  -0.56333  -0.55809
 Alpha  occ. eigenvalues --   -0.55710  -0.55407  -0.55123  -0.55065  -0.54901
 Alpha  occ. eigenvalues --   -0.54618  -0.54395  -0.54239  -0.53898  -0.53434
 Alpha  occ. eigenvalues --   -0.53118  -0.52944  -0.52843  -0.52600  -0.52527
 Alpha  occ. eigenvalues --   -0.52455  -0.52308  -0.52194  -0.51959  -0.51734
 Alpha  occ. eigenvalues --   -0.51501  -0.51291  -0.50994  -0.50782  -0.50658
 Alpha  occ. eigenvalues --   -0.50541  -0.50480  -0.50077  -0.49704  -0.49314
 Alpha  occ. eigenvalues --   -0.48880  -0.48784  -0.48639  -0.48615  -0.48411
 Alpha  occ. eigenvalues --   -0.48197  -0.48091  -0.47874  -0.47534  -0.47421
 Alpha  occ. eigenvalues --   -0.47317  -0.47037  -0.46837  -0.46817  -0.46642
 Alpha  occ. eigenvalues --   -0.46556  -0.46400  -0.46265  -0.45948  -0.45875
 Alpha  occ. eigenvalues --   -0.45727  -0.45515  -0.45208  -0.45130  -0.45015
 Alpha  occ. eigenvalues --   -0.44845  -0.44328  -0.44156  -0.43853  -0.43723
 Alpha  occ. eigenvalues --   -0.43582  -0.43430  -0.43421  -0.42929  -0.42718
 Alpha  occ. eigenvalues --   -0.42490  -0.42163  -0.42106  -0.41955  -0.41693
 Alpha  occ. eigenvalues --   -0.41377  -0.41126  -0.40977  -0.40905  -0.40330
 Alpha  occ. eigenvalues --   -0.39935  -0.39725  -0.39464  -0.39298  -0.39017
 Alpha  occ. eigenvalues --   -0.38936  -0.38863  -0.38584  -0.38238  -0.37989
 Alpha  occ. eigenvalues --   -0.37837  -0.37640  -0.36998  -0.36585  -0.36285
 Alpha  occ. eigenvalues --   -0.35778  -0.35399  -0.35208  -0.33967  -0.32942
 Alpha  occ. eigenvalues --   -0.32605  -0.32335  -0.31625  -0.31109  -0.26356
 Alpha  occ. eigenvalues --   -0.23039
 Alpha virt. eigenvalues --   -0.06943   0.00172   0.02288   0.04320   0.05687
 Alpha virt. eigenvalues --    0.07520   0.07624   0.08151   0.08382   0.09880
 Alpha virt. eigenvalues --    0.10686   0.11529   0.11819   0.12082   0.12662

 Mulliken charges:
               1
     1  Mg   0.952645
     2  C   -0.000214
     3  C   -0.049333
     4  C   -0.098045
     5  C   -0.076567
     6  N   -0.309275
     7  C   -0.026739
     8  C   -0.071073
     9  C   -0.102267
    10  C    0.011536
    11  C    0.046816
    12  C    0.006077
    13  C   -0.027240
    14  C    0.238704
    15  O   -0.218204
    16  O   -0.358866
    17  N   -0.495808
    18  C    0.179028
    19  C   -0.131485
    20  C   -0.075001
    21  C    0.218094
    22  C    0.070759
    23  C    0.026665
    24  O   -0.229734
    25  C    0.004570
    26  N   -0.416093
    27  C    0.084553
    28  C   -0.124350
    29  C   -0.057792
    30  C    0.075278
    31  C    0.051147
    32  C   -0.006081
    33  C   -0.048556
    34  N   -0.404078
    35  C    0.100805
    36  C   -0.185701
    37  C   -0.021247
    38  C    0.118965
    39  C    0.067428
    40  C    0.102533
    41  O   -0.231248
    42  C   -0.082752
    43  C    0.275268
    44  O   -0.246832
    45  O   -0.372436
    46  C    0.128194
    47  C    0.270800
    48  C   -0.189033
    49  C   -0.180144
    50  C    0.009262
    51  C    0.041639
    52  C    0.005316
    53  C   -0.008182
    54  C   -0.177349
    55  C    0.006785
    56  C    0.030446
    57  C   -0.073259
    58  C    0.009186
    59  C   -0.186947
    60  C    0.003752
    61  C    0.009035
    62  C   -0.034631
    63  C   -0.026167
    64  C   -0.234145
    65  C    0.002900
    66  C    0.019758
    67  H    0.007131
    68  H   -0.012513
    69  H   -0.000873
    70  H    0.032383
    71  H    0.069872
    72  H    0.043762
    73  H    0.044220
    74  H    0.035398
    75  H    0.016150
    76  H    0.028695
    77  H    0.088951
    78  H    0.045212
    79  H    0.057102
    80  H    0.059394
    81  H    0.014293
    82  H    0.043051
    83  H    0.064483
    84  H    0.066192
    85  H    0.018834
    86  H    0.021365
    87  H    0.038187
    88  H    0.037201
    89  H    0.041562
    90  H    0.041195
    91  H    0.028999
    92  H    0.036523
    93  H    0.024625
    94  H    0.043896
    95  H    0.036404
    96  H    0.047777
    97  H    0.054415
    98  H    0.068810
    99  H    0.051945
   100  H    0.086382
   101  H    0.054300
   102  H    0.051812
   103  H    0.053913
   104  H    0.024423
   105  H    0.033725
   106  H    0.050420
   107  H    0.037653
   108  H    0.015744
   109  H    0.039184
   110  H    0.023843
   111  H    0.019406
   112  H    0.014600
   113  H   -0.000178
   114  H    0.016927
   115  H    0.033707
   116  H    0.011969
   117  H    0.025741
   118  H    0.018651
   119  H    0.019947
   120  H    0.022575
   121  H    0.018964
   122  H    0.021212
   123  H    0.005330
   124  H    0.021306
   125  H    0.038195
   126  H    0.005618
   127  H    0.022306
   128  H    0.015494
   129  H    0.028328
   130  H    0.020171
   131  H    0.021306
   132  H    0.022928
   133  H    0.033984
   134  H    0.025183
   135  H    0.025464
   136  H    0.027907
   137  H    0.017633
   138  H    0.017279
   139  H    0.049714
   140  H    0.021223
 Sum of Mulliken charges =  -0.00000

 Dipole moment (field-independent basis, Debye):
    X=              2.1042    Y=              0.8208    Z=              0.0299  Tot=              2.2588
 Quadrupole moment (field-independent basis, Debye-Ang):
   XX=           -425.6487   YY=           -372.8331   ZZ=           -403.5125
   XY=            -44.3405   XZ=            -17.4895   YZ=            -24.7302

 Normal termination of Gaussian 16 at Tue May  3 14:48:00 2022.
