 Gaussian 16, Revision A.03,
 Gaussian 16:  ES64L-G16RevA.03 25-Dec-2016

 --------------------
 #p ZINDO=(nstates=5)
 --------------------

 ------------------------------
 step_1001_chromophore_11 ZINDO
 ------------------------------
 Symbolic Z-matrix:
 Charge =  0 Multiplicity = 1

                         Standard orientation:
 ---------------------------------------------------------------------
 Center     Atomic      Atomic             Coordinates (Angstroms)
 Number     Number       Type             X           Y           Z
 ---------------------------------------------------------------------
      1         12           0       -4.805448    1.358790    0.685791
      2          6           0       -5.549927   -2.008952    0.049528
      3          6           0       -2.457554    0.288182    3.110680
      4          6           0       -3.472434    4.450646    0.620532
      5          6           0       -7.137451    2.280090   -1.678827
      6          7           0       -4.063472   -0.688404    1.468747
      7          6           0       -4.531846   -1.898917    1.059297
      8          6           0       -3.927838   -2.962057    1.985928
      9          6           0       -3.015479   -2.264359    3.028044
     10          6           0       -3.228219   -0.772342    2.537504
     11          6           0       -3.365833   -2.580077    4.454225
     12          6           0       -3.341596   -4.271188    1.312107
     13          6           0       -2.243552   -4.076500    0.239886
     14          6           0       -0.736663   -4.110548    0.691649
     15          8           0       -0.375634   -3.774338    1.773958
     16          8           0        0.081071   -4.640314   -0.295353
     17          7           0       -3.275701    2.287190    1.784346
     18          6           0       -2.438453    1.643081    2.717224
     19          6           0       -1.561762    2.716317    3.290554
     20          6           0       -1.770643    3.882830    2.548838
     21          6           0       -2.863875    3.609341    1.583205
     22          6           0       -0.548172    2.403820    4.399108
     23          6           0       -0.818165    5.064686    2.593120
     24          8           0        0.018077    5.153144    3.477453
     25          6           0       -0.847616    6.054428    1.545066
     26          7           0       -5.126290    3.045927   -0.513466
     27          6           0       -4.420685    4.178324   -0.270597
     28          6           0       -5.141829    5.284661   -1.104131
     29          6           0       -6.040443    4.590470   -2.172029
     30          6           0       -6.192476    3.222951   -1.403384
     31          6           0       -5.762276    6.394649   -0.267617
     32          6           0       -5.480739    4.373308   -3.615528
     33          6           0       -5.742014    5.454955   -4.670306
     34          7           0       -6.140722    0.336320   -0.550864
     35          6           0       -7.129524    0.865955   -1.316908
     36          6           0       -8.031521   -0.168468   -1.767591
     37          6           0       -7.385774   -1.356677   -1.359119
     38          6           0       -6.229980   -0.987022   -0.612889
     39          6           0       -9.210070   -0.092074   -2.693319
     40          6           0       -7.424770   -2.820961   -1.319575
     41          8           0       -8.310996   -3.594411   -1.748045
     42          6           0       -6.176792   -3.252162   -0.602880
     43          6           0       -5.328768   -3.844891   -1.610956
     44          8           0       -4.447611   -3.271029   -2.241723
     45          8           0       -5.601955   -5.184430   -1.770139
     46          6           0       -4.523063   -5.970701   -2.409992
     47          6           0        1.415784   -4.946907    0.101600
     48          6           0        2.209935   -3.661090    0.016269
     49          6           0        3.350009   -3.362430    0.659524
     50          6           0        4.133203   -4.444884    1.522560
     51          6           0        4.121953   -2.130522    0.370561
     52          6           0        4.639262   -1.880800   -1.065800
     53          6           0        6.116218   -1.429232   -1.144889
     54          6           0        6.337784    0.136085   -1.342881
     55          6           0        6.807740    0.531032   -2.723731
     56          6           0        7.204574    0.629359   -0.196434
     57          6           0        8.600670   -0.037959   -0.065270
     58          6           0        9.765064    0.914343    0.268628
     59          6           0       11.038377    0.253993    0.723171
     60          6           0       11.085580    0.267355    2.257848
     61          6           0       12.312173    1.088310    0.251004
     62          6           0       13.148844    0.419309   -0.884888
     63          6           0       14.721651    0.586359   -0.663118
     64          6           0       15.465895    0.759200   -2.044875
     65          6           0       16.938394    0.221929   -1.867202
     66          6           0       15.330396    2.201499   -2.571662
     67          1           0       -1.791419   -0.033283    3.913552
     68          1           0       -3.159895    5.488658    0.483391
     69          1           0       -7.989103    2.613128   -2.277241
     70          1           0       -4.875745   -3.318467    2.389057
     71          1           0       -1.990008   -2.542177    2.783652
     72          1           0       -2.459790   -2.657231    5.055267
     73          1           0       -3.955734   -3.496400    4.418389
     74          1           0       -3.923901   -1.734475    4.854428
     75          1           0       -4.174606   -4.768745    0.816914
     76          1           0       -3.075890   -4.994669    2.082417
     77          1           0       -2.482234   -3.121709   -0.226761
     78          1           0       -2.447069   -4.893531   -0.451994
     79          1           0       -0.577471    3.039355    5.284507
     80          1           0        0.467722    2.387538    4.004006
     81          1           0       -0.608739    1.432679    4.891753
     82          1           0        0.042743    6.683801    1.570432
     83          1           0       -1.594740    6.805307    1.800609
     84          1           0       -0.898764    5.611964    0.550335
     85          1           0       -4.320457    5.667360   -1.711159
     86          1           0       -7.011167    5.086597   -2.173152
     87          1           0       -5.165122    7.304726   -0.327161
     88          1           0       -5.711097    6.105615    0.781219
     89          1           0       -6.801876    6.571845   -0.543837
     90          1           0       -5.841470    3.435060   -4.036841
     91          1           0       -4.391612    4.337049   -3.623569
     92          1           0       -4.744313    5.796965   -4.945368
     93          1           0       -6.299829    6.307385   -4.280366
     94          1           0       -6.338591    5.123260   -5.519786
     95          1           0       -9.106760    0.647498   -3.486328
     96          1           0      -10.170422    0.071520   -2.202926
     97          1           0       -9.271428   -1.075916   -3.157481
     98          1           0       -6.415761   -4.014913    0.138041
     99          1           0       -4.105243   -6.553208   -1.587743
    100          1           0       -3.826378   -5.416553   -3.039122
    101          1           0       -5.058350   -6.701766   -3.015809
    102          1           0        1.836625   -5.581459   -0.678401
    103          1           0        1.509154   -5.405969    1.085117
    104          1           0        1.838938   -2.934292   -0.705703
    105          1           0        3.715688   -5.430769    1.316833
    106          1           0        4.069854   -4.203390    2.584220
    107          1           0        5.192642   -4.358013    1.282916
    108          1           0        4.960863   -2.042233    1.061127
    109          1           0        3.371804   -1.341604    0.425072
    110          1           0        4.041112   -1.114080   -1.556317
    111          1           0        4.543760   -2.821117   -1.609616
    112          1           0        6.751291   -2.024289   -1.801352
    113          1           0        6.576452   -1.707706   -0.196284
    114          1           0        5.416521    0.718354   -1.358359
    115          1           0        6.044898    1.052066   -3.301868
    116          1           0        7.046393   -0.364454   -3.298291
    117          1           0        7.743496    1.087440   -2.689863
    118          1           0        6.741338    0.342772    0.747628
    119          1           0        7.248338    1.717189   -0.243898
    120          1           0        8.908590   -0.529549   -0.987186
    121          1           0        8.616747   -0.743996    0.765268
    122          1           0        9.385550    1.733316    0.879046
    123          1           0       10.056401    1.288840   -0.712966
    124          1           0       10.962035   -0.777933    0.382364
    125          1           0       12.035401   -0.085844    2.659534
    126          1           0       10.255926   -0.349271    2.602420
    127          1           0       10.778863    1.211591    2.707842
    128          1           0       12.982786    1.133663    1.108621
    129          1           0       11.992604    2.066385   -0.110738
    130          1           0       12.913954    0.889161   -1.839372
    131          1           0       12.847591   -0.627699   -0.841350
    132          1           0       14.967518   -0.362188   -0.184538
    133          1           0       14.981082    1.404561    0.008310
    134          1           0       15.035752    0.111070   -2.808274
    135          1           0       17.005793   -0.239692   -0.882714
    136          1           0       17.691180    0.953783   -2.157655
    137          1           0       17.127512   -0.619594   -2.532779
    138          1           0       16.206155    2.341408   -3.205396
    139          1           0       15.104985    2.969048   -1.831858
    140          1           0       14.579739    2.154044   -3.360538
 ---------------------------------------------------------------------

 SCF Done:  E(RZINDO/S) =  -474.296575680     A.U. after   19 cycles

 Excitation energies and oscillator strengths:

 Excited State   1:      Singlet-A      1.3327 eV  930.35 nm  f=0.5828  <S**2>=0.000
     175 ->178         0.16408
     176 ->177         0.66917
 This state for optimization and/or second-order correction.
 Total Energy, E(CIS/TDA) =  -474.247601143
 Copying the excited state density for this state as the 1-particle RhoCI density.

 Excited State   2:      Singlet-A      1.9948 eV  621.53 nm  f=0.0224  <S**2>=0.000
     175 ->177         0.52661
     176 ->178        -0.43660

 Excited State   3:      Singlet-A      2.8847 eV  429.79 nm  f=0.4064  <S**2>=0.000
     175 ->177         0.28767
     176 ->178         0.40813
     176 ->179         0.38248
     176 ->180         0.18643

 Excited State   4:      Singlet-A      3.0020 eV  413.01 nm  f=0.0479  <S**2>=0.000
     169 ->177         0.13560
     169 ->178        -0.10740
     169 ->179        -0.17264
     169 ->180        -0.14677
     170 ->177         0.24322
     170 ->178        -0.15777
     170 ->179        -0.26061
     170 ->180        -0.21653
     170 ->185         0.10885
     170 ->187        -0.11651
     171 ->177         0.10298
     171 ->179        -0.14159
     171 ->180        -0.10618
     176 ->178         0.10137
     176 ->179         0.10126

 Excited State   5:      Singlet-A      3.0307 eV  409.10 nm  f=0.0005  <S**2>=0.000
     167 ->177         0.10785
     167 ->179         0.18290
     167 ->180        -0.16188
     167 ->185        -0.11302
     168 ->177         0.25766
     168 ->179         0.35259
     168 ->180        -0.32588
     168 ->184         0.15070
     168 ->185        -0.21459

 The electronic state is 1-A.
 Alpha  occ. eigenvalues --   -1.84610  -1.80079  -1.78263  -1.74236  -1.73199
 Alpha  occ. eigenvalues --   -1.69930  -1.65597  -1.61125  -1.60081  -1.57968
 Alpha  occ. eigenvalues --   -1.54823  -1.52484  -1.49645  -1.48327  -1.46025
 Alpha  occ. eigenvalues --   -1.43484  -1.41945  -1.40043  -1.38266  -1.37248
 Alpha  occ. eigenvalues --   -1.36027  -1.32691  -1.32437  -1.30443  -1.28871
 Alpha  occ. eigenvalues --   -1.27508  -1.27087  -1.23903  -1.19955  -1.17964
 Alpha  occ. eigenvalues --   -1.17095  -1.16636  -1.15912  -1.14016  -1.13389
 Alpha  occ. eigenvalues --   -1.12996  -1.10416  -1.10220  -1.04989  -1.03540
 Alpha  occ. eigenvalues --   -1.02223  -1.01410  -0.98797  -0.98027  -0.96754
 Alpha  occ. eigenvalues --   -0.95009  -0.94395  -0.93026  -0.92730  -0.91699
 Alpha  occ. eigenvalues --   -0.90806  -0.89124  -0.88558  -0.87283  -0.85762
 Alpha  occ. eigenvalues --   -0.84334  -0.83873  -0.83472  -0.81226  -0.79861
 Alpha  occ. eigenvalues --   -0.79232  -0.79005  -0.77789  -0.77577  -0.76596
 Alpha  occ. eigenvalues --   -0.76223  -0.76112  -0.75123  -0.75012  -0.74450
 Alpha  occ. eigenvalues --   -0.73027  -0.72259  -0.72025  -0.70970  -0.70933
 Alpha  occ. eigenvalues --   -0.70163  -0.69863  -0.69295  -0.69000  -0.68349
 Alpha  occ. eigenvalues --   -0.67933  -0.67051  -0.66980  -0.66363  -0.65700
 Alpha  occ. eigenvalues --   -0.65558  -0.64928  -0.64551  -0.63937  -0.63470
 Alpha  occ. eigenvalues --   -0.62928  -0.62727  -0.62289  -0.62072  -0.61656
 Alpha  occ. eigenvalues --   -0.61206  -0.60939  -0.60300  -0.59661  -0.59267
 Alpha  occ. eigenvalues --   -0.59116  -0.58849  -0.58632  -0.57905  -0.57859
 Alpha  occ. eigenvalues --   -0.57543  -0.57429  -0.57169  -0.56601  -0.56448
 Alpha  occ. eigenvalues --   -0.56030  -0.55925  -0.55460  -0.55301  -0.54830
 Alpha  occ. eigenvalues --   -0.54538  -0.54345  -0.53888  -0.53166  -0.52840
 Alpha  occ. eigenvalues --   -0.52514  -0.52199  -0.51956  -0.51456  -0.51117
 Alpha  occ. eigenvalues --   -0.50794  -0.50538  -0.50440  -0.50200  -0.49769
 Alpha  occ. eigenvalues --   -0.49712  -0.49468  -0.49251  -0.49071  -0.48922
 Alpha  occ. eigenvalues --   -0.48828  -0.48648  -0.48229  -0.47788  -0.47700
 Alpha  occ. eigenvalues --   -0.47412  -0.47103  -0.46578  -0.46550  -0.46056
 Alpha  occ. eigenvalues --   -0.45959  -0.45852  -0.45540  -0.45363  -0.45155
 Alpha  occ. eigenvalues --   -0.45051  -0.44671  -0.44453  -0.44287  -0.43593
 Alpha  occ. eigenvalues --   -0.43551  -0.42545  -0.42461  -0.42061  -0.41750
 Alpha  occ. eigenvalues --   -0.41404  -0.41275  -0.41255  -0.39324  -0.38878
 Alpha  occ. eigenvalues --   -0.38152  -0.36679  -0.35820  -0.34748  -0.34362
 Alpha  occ. eigenvalues --   -0.34243  -0.32835  -0.31722  -0.31690  -0.27026
 Alpha  occ. eigenvalues --   -0.21936
 Alpha virt. eigenvalues --   -0.08271  -0.02323  -0.00625   0.00809   0.02133
 Alpha virt. eigenvalues --    0.02168   0.02904   0.03451   0.04821   0.04980
 Alpha virt. eigenvalues --    0.06036   0.06879   0.06938   0.07691   0.07888

 Mulliken charges:
               1
     1  Mg   0.424922
     2  C   -0.022772
     3  C   -0.057382
     4  C   -0.093492
     5  C   -0.069032
     6  N   -0.258409
     7  C    0.084160
     8  C    0.002460
     9  C    0.003836
    10  C    0.145674
    11  C   -0.043954
    12  C   -0.026445
    13  C    0.002002
    14  C    0.470605
    15  O   -0.501159
    16  O   -0.271406
    17  N   -0.341182
    18  C    0.117720
    19  C    0.070471
    20  C   -0.045042
    21  C    0.160736
    22  C   -0.036881
    23  C    0.341336
    24  O   -0.525922
    25  C   -0.026197
    26  N   -0.302647
    27  C    0.176972
    28  C    0.004254
    29  C    0.001984
    30  C    0.089584
    31  C   -0.044527
    32  C   -0.024168
    33  C   -0.060486
    34  N   -0.301091
    35  C    0.083006
    36  C    0.000376
    37  C   -0.060854
    38  C    0.091275
    39  C   -0.038066
    40  C    0.337232
    41  O   -0.546366
    42  C    0.074526
    43  C    0.501165
    44  O   -0.541445
    45  O   -0.272981
    46  C    0.071886
    47  C    0.112023
    48  C   -0.074315
    49  C   -0.021826
    50  C   -0.052848
    51  C   -0.021619
    52  C   -0.028106
    53  C   -0.041510
    54  C   -0.009620
    55  C   -0.054626
    56  C   -0.026860
    57  C   -0.039200
    58  C   -0.037927
    59  C   -0.012461
    60  C   -0.059870
    61  C   -0.044479
    62  C   -0.050859
    63  C   -0.040603
    64  C   -0.016280
    65  C   -0.068322
    66  C   -0.060517
    67  H    0.040208
    68  H    0.022480
    69  H    0.022430
    70  H    0.021835
    71  H    0.052067
    72  H    0.024552
    73  H    0.029060
    74  H    0.021910
    75  H    0.013973
    76  H    0.024596
    77  H    0.058115
    78  H    0.036310
    79  H    0.040079
    80  H    0.040564
    81  H    0.016327
    82  H    0.029306
    83  H    0.047416
    84  H    0.038541
    85  H    0.013575
    86  H    0.027859
    87  H    0.020074
    88  H    0.020106
    89  H    0.027479
    90  H    0.026970
    91  H    0.021291
    92  H    0.019524
    93  H    0.013433
    94  H    0.024342
    95  H    0.023241
    96  H    0.030021
    97  H    0.028855
    98  H    0.048892
    99  H    0.033711
   100  H    0.064457
   101  H    0.031029
   102  H    0.037503
   103  H    0.055465
   104  H    0.033022
   105  H    0.024999
   106  H    0.028765
   107  H    0.025486
   108  H    0.026515
   109  H    0.024930
   110  H    0.023039
   111  H    0.016176
   112  H    0.021849
   113  H    0.011059
   114  H    0.018120
   115  H    0.019499
   116  H    0.010032
   117  H    0.018556
   118  H    0.011710
   119  H    0.016154
   120  H    0.019907
   121  H    0.017779
   122  H    0.025451
   123  H    0.004457
   124  H    0.031365
   125  H    0.020041
   126  H    0.003595
   127  H    0.020244
   128  H    0.021460
   129  H    0.025428
   130  H    0.021632
   131  H    0.024305
   132  H    0.015275
   133  H    0.028597
   134  H    0.021021
   135  H    0.024851
   136  H    0.026020
   137  H    0.009521
   138  H    0.017775
   139  H    0.036452
   140  H    0.012862
 Sum of Mulliken charges =  -0.00000

 Dipole moment (field-independent basis, Debye):
    X=              3.1743    Y=              2.0259    Z=              1.9526  Tot=              4.2418
 N-N= 4.361476180378D+03 E-N= 0.000000000000D+00  KE=-9.397662015091D+03
 Leave Link  601 at Tue May  3 15:02:55 2022, MaxMem=  6710886400 cpu:               1.9 elap:               0.1
 (Enter /sw/apps/gaussian-16.0/g16/l9999.exe)
 1\1\GINC-BP1-COMPUTE174\SP\RZINDO CIS\STO-3G\C55H74Mg1N4O6\OF15641\03-
 May-2022\0\\#p ZINDO=(nstates=5)\\step_1001_chromophore_11 ZINDO\\0,1\
 Mg,0,52.476,23.667,44.563\C,0,49.514,25.464,44.017\C,0,50.738,20.71,43
 .683\C,0,55.455,22.141,44.192\C,0,54.054,26.607,45.426\N,0,50.323,23.1
 63,43.881\C,0,49.312,24.065,43.752\C,0,48.022,23.275,43.496\C,0,48.353
 ,21.76,43.476\C,0,49.91,21.875,43.749\C,0,47.54,20.945,44.441\C,0,47.0
 63,23.794,42.346\C,0,47.675,23.933,40.932\C,0,47.558,22.718,39.939\O,0

 Normal termination of Gaussian 16 at Tue May  3 15:02:55 2022.
