 Gaussian 16, Revision A.03,
 Gaussian 16:  ES64L-G16RevA.03 25-Dec-2016

 ------------------------------
 #p blyp/Def2SVP td=(nstates=5)
 ------------------------------

 --------------------------------------------------
 step_1251_chromophore_4 TDDFT with blyp functional
 --------------------------------------------------
 Symbolic Z-matrix:
 Charge =  0 Multiplicity = 1

                         Standard orientation:
 ---------------------------------------------------------------------
 Center     Atomic      Atomic             Coordinates (Angstroms)
 Number     Number       Type             X           Y           Z
 ---------------------------------------------------------------------
      1         12           0        6.187947    0.535539   -0.083530
      2          6           0        3.877306   -2.222432    0.154284
      3          6           0        3.544757    2.629203   -0.479366
      4          6           0        8.312754    3.023494   -0.179585
      5          6           0        8.797991   -1.785101    0.303244
      6          7           0        3.936095    0.178637   -0.225985
      7          6           0        3.218131   -0.961834   -0.004065
      8          6           0        1.766267   -0.697639   -0.218492
      9          6           0        1.709587    0.820918   -0.548275
     10          6           0        3.190302    1.289981   -0.324080
     11          6           0        1.232410    1.258649   -1.987599
     12          6           0        0.839080   -1.231345    0.903070
     13          6           0       -0.565262   -0.542759    1.179679
     14          6           0       -1.805525   -1.326208    1.485701
     15          8           0       -2.145710   -1.643709    2.638735
     16          8           0       -2.559710   -1.682559    0.377560
     17          7           0        6.007062    2.471378   -0.290756
     18          6           0        4.832174    3.230858   -0.485811
     19          6           0        5.077694    4.637490   -0.491111
     20          6           0        6.497440    4.732832   -0.362499
     21          6           0        6.992954    3.385063   -0.251543
     22          6           0        4.012837    5.725730   -0.695289
     23          6           0        7.350483    6.021951   -0.416673
     24          8           0        8.572134    6.002175   -0.133257
     25          6           0        6.670306    7.372471   -0.499473
     26          7           0        8.227625    0.652250   -0.015401
     27          6           0        8.891380    1.815273   -0.047967
     28          6           0       10.460001    1.685686   -0.043499
     29          6           0       10.522342    0.149489    0.239973
     30          6           0        9.099195   -0.363243    0.182912
     31          6           0       11.158856    2.021465   -1.530310
     32          6           0       11.098351   -0.169449    1.667031
     33          6           0       12.264708   -1.101750    1.652125
     34          7           0        6.330282   -1.471989    0.117011
     35          6           0        7.476218   -2.266537    0.382819
     36          6           0        7.127721   -3.637463    0.383479
     37          6           0        5.777272   -3.599302    0.305422
     38          6           0        5.316569   -2.313123    0.221447
     39          6           0        8.152517   -4.786368    0.394603
     40          6           0        4.681102   -4.543277    0.169817
     41          8           0        4.648760   -5.743450    0.153803
     42          6           0        3.320576   -3.669881    0.185583
     43          6           0        2.420093   -3.996734   -0.965498
     44          8           0        2.692418   -3.888754   -2.139438
     45          8           0        1.305322   -4.525853   -0.426921
     46          6           0        0.483921   -5.195167   -1.486300
     47          6           0       -3.516112   -2.762306    0.517834
     48          6           0       -4.912385   -2.180660    0.421321
     49          6           0       -6.182057   -2.636843    0.507667
     50          6           0       -6.510317   -4.119651    0.751898
     51          6           0       -7.494946   -1.705117    0.392423
     52          6           0       -7.941485   -1.015947   -0.918941
     53          6           0       -8.342061    0.508359   -0.754300
     54          6           0       -9.758085    0.605150   -0.244589
     55          6           0      -10.700798    0.466545   -1.492361
     56          6           0       -9.985899    1.817952    0.560305
     57          6           0      -10.805142    1.636250    1.835645
     58          6           0      -11.635580    2.884458    1.959405
     59          6           0      -13.166067    2.638557    2.085565
     60          6           0      -13.886187    3.711602    2.961761
     61          6           0      -13.764453    2.310854    0.701526
     62          6           0      -13.988645    0.881892    0.373532
     63          6           0      -15.174026    0.752771   -0.718149
     64          6           0      -14.896029   -0.341316   -1.754735
     65          6           0      -14.282035    0.374935   -3.029507
     66          6           0      -16.183988   -1.171459   -2.044295
     67          1           0        2.615428    3.200809   -0.507715
     68          1           0        9.075052    3.800046   -0.089949
     69          1           0        9.583296   -2.508853    0.530690
     70          1           0        1.340003   -1.325388   -1.001269
     71          1           0        1.202113    1.431114    0.198984
     72          1           0        0.772819    0.345228   -2.363508
     73          1           0        2.042235    1.592534   -2.636959
     74          1           0        0.533315    2.090773   -1.904142
     75          1           0        1.413126   -1.411211    1.811978
     76          1           0        0.561692   -2.266271    0.700356
     77          1           0       -0.819606    0.142165    0.371408
     78          1           0       -0.333548    0.130494    2.005595
     79          1           0        4.035205    6.616708   -0.066732
     80          1           0        3.003508    5.331012   -0.584593
     81          1           0        4.136865    6.154951   -1.690017
     82          1           0        6.128277    7.551215    0.429282
     83          1           0        6.126941    7.565225   -1.424178
     84          1           0        7.372535    8.206390   -0.505710
     85          1           0       10.908648    2.242386    0.780047
     86          1           0       11.001410   -0.459472   -0.526820
     87          1           0       11.620321    1.139412   -1.973689
     88          1           0       11.944619    2.773222   -1.457424
     89          1           0       10.435477    2.492668   -2.195580
     90          1           0       10.320053   -0.648983    2.260764
     91          1           0       11.460657    0.721729    2.180651
     92          1           0       13.171318   -0.505928    1.763941
     93          1           0       12.472435   -1.579590    0.694165
     94          1           0       12.255595   -1.934386    2.355715
     95          1           0        8.671459   -4.742857   -0.563203
     96          1           0        7.613928   -5.721033    0.234567
     97          1           0        8.775950   -4.772032    1.288262
     98          1           0        2.678474   -3.844346    1.048353
     99          1           0        0.015791   -4.504607   -2.188200
    100          1           0       -0.267543   -5.796571   -0.974626
    101          1           0        1.111875   -5.932044   -1.987470
    102          1           0       -3.404595   -3.458464    1.349156
    103          1           0       -3.324396   -3.397032   -0.347215
    104          1           0       -4.824087   -1.095830    0.480078
    105          1           0       -5.680298   -4.676177    1.186964
    106          1           0       -6.695502   -4.709897   -0.146155
    107          1           0       -7.320101   -4.253816    1.469127
    108          1           0       -7.418757   -0.956079    1.180996
    109          1           0       -8.332065   -2.257337    0.817627
    110          1           0       -8.800181   -1.466431   -1.416677
    111          1           0       -7.177823   -1.106038   -1.691257
    112          1           0       -8.279882    1.042923   -1.702181
    113          1           0       -7.704279    0.991630   -0.013453
    114          1           0       -9.762299   -0.296511    0.367391
    115          1           0      -10.159515    0.256114   -2.413283
    116          1           0      -11.158520    1.447584   -1.624451
    117          1           0      -11.452926   -0.320731   -1.436359
    118          1           0      -10.255190    2.592439   -0.157849
    119          1           0       -9.024990    2.095422    0.994185
    120          1           0      -10.033821    1.538934    2.599377
    121          1           0      -11.448267    0.759718    1.748781
    122          1           0      -11.536370    3.652094    1.192044
    123          1           0      -11.364015    3.382048    2.890313
    124          1           0      -13.177285    1.749141    2.715518
    125          1           0      -13.109730    4.425436    3.238576
    126          1           0      -14.127082    3.287517    3.936272
    127          1           0      -14.673490    4.299870    2.491669
    128          1           0      -13.124162    2.630739   -0.121201
    129          1           0      -14.716220    2.841547    0.700097
    130          1           0      -14.340509    0.383989    1.277087
    131          1           0      -13.033743    0.461804    0.060410
    132          1           0      -15.410250    1.676842   -1.245627
    133          1           0      -16.029379    0.554615   -0.072115
    134          1           0      -14.189961   -1.034848   -1.298442
    135          1           0      -13.197017    0.266655   -3.033759
    136          1           0      -14.405871    1.457170   -3.085695
    137          1           0      -14.838877    0.023549   -3.897326
    138          1           0      -17.029529   -0.704809   -1.538785
    139          1           0      -16.047594   -2.170305   -1.629016
    140          1           0      -16.296927   -1.150944   -3.127940
 ---------------------------------------------------------------------

 SCF Done:  E(RB-LYP) =  -3007.32587654     A.U. after   20 cycles

 Excitation energies and oscillator strengths:

 Excited State   1:      Singlet-A      1.8199 eV  681.26 nm  f=0.2801  <S**2>=0.000
     245 -> 248        0.19507
     246 -> 247        0.68733
     246 <- 247       -0.14663
 This state for optimization and/or second-order correction.
 Total Energy, E(TD-HF/TD-DFT) =  -3007.25899529
 Copying the excited state density for this state as the 1-particle RhoCI density.

 Excited State   2:      Singlet-A      1.9782 eV  626.75 nm  f=0.0010  <S**2>=0.000
     244 -> 247        0.70270

 Excited State   3:      Singlet-A      2.0723 eV  598.28 nm  f=0.0922  <S**2>=0.000
     243 -> 247        0.11608
     245 -> 247        0.62991
     246 -> 248       -0.24994
     246 -> 249        0.11265

 Excited State   4:      Singlet-A      2.1035 eV  589.42 nm  f=0.0017  <S**2>=0.000
     243 -> 247        0.69699
     245 -> 247       -0.10299

 Excited State   5:      Singlet-A      2.4056 eV  515.40 nm  f=0.0000  <S**2>=0.000
     242 -> 247        0.70711

 The electronic state is 1-A.
 Alpha  occ. eigenvalues --  -46.25281 -18.83171 -18.82469 -18.76728 -18.76596
 Alpha  occ. eigenvalues --  -18.76388 -18.75791 -14.03115 -14.02866 -14.01225
 Alpha  occ. eigenvalues --  -14.00715 -10.04606 -10.03557 -10.00519  -9.99869
 Alpha  occ. eigenvalues --   -9.98732  -9.98203  -9.96870  -9.96853  -9.96022
 Alpha  occ. eigenvalues --   -9.95958  -9.95567  -9.95215  -9.95078  -9.94676
 Alpha  occ. eigenvalues --   -9.94376  -9.94255  -9.94238  -9.94204  -9.94086
 Alpha  occ. eigenvalues --   -9.94041  -9.93842  -9.93706  -9.93599  -9.93536
 Alpha  occ. eigenvalues --   -9.93323  -9.93321  -9.93018  -9.92893  -9.92871
 Alpha  occ. eigenvalues --   -9.92790  -9.92761  -9.92687  -9.92660  -9.92431
 Alpha  occ. eigenvalues --   -9.92344  -9.92125  -9.91931  -9.91799  -9.91769
 Alpha  occ. eigenvalues --   -9.91411  -9.91141  -9.91114  -9.90943  -9.90930
 Alpha  occ. eigenvalues --   -9.90872  -9.90766  -9.90726  -9.90661  -9.90645
 Alpha  occ. eigenvalues --   -9.90625  -9.90511  -9.90502  -9.90179  -9.90170
 Alpha  occ. eigenvalues --   -9.90095  -2.90380  -1.70801  -1.70251  -1.70113
 Alpha  occ. eigenvalues --   -0.98868  -0.97526  -0.92827  -0.90527  -0.90167
 Alpha  occ. eigenvalues --   -0.89139  -0.87318  -0.86659  -0.86090  -0.85373
 Alpha  occ. eigenvalues --   -0.74637  -0.74212  -0.72770  -0.72640  -0.72479
 Alpha  occ. eigenvalues --   -0.71707  -0.71566  -0.70894  -0.70695  -0.70493
 Alpha  occ. eigenvalues --   -0.70081  -0.68912  -0.68088  -0.67650  -0.67041
 Alpha  occ. eigenvalues --   -0.66394  -0.65888  -0.65413  -0.65123  -0.64708
 Alpha  occ. eigenvalues --   -0.64005  -0.62916  -0.62817  -0.61705  -0.60907
 Alpha  occ. eigenvalues --   -0.60086  -0.60025  -0.59821  -0.59574  -0.58755
 Alpha  occ. eigenvalues --   -0.58472  -0.58110  -0.57013  -0.56463  -0.54491
 Alpha  occ. eigenvalues --   -0.54278  -0.53878  -0.52695  -0.52146  -0.51858
 Alpha  occ. eigenvalues --   -0.51449  -0.50940  -0.50757  -0.50590  -0.49850
 Alpha  occ. eigenvalues --   -0.49627  -0.49043  -0.48334  -0.48145  -0.47465
 Alpha  occ. eigenvalues --   -0.46892  -0.46692  -0.46050  -0.44992  -0.44734
 Alpha  occ. eigenvalues --   -0.44161  -0.43376  -0.42821  -0.42781  -0.42751
 Alpha  occ. eigenvalues --   -0.41997  -0.41785  -0.41717  -0.41430  -0.40964
 Alpha  occ. eigenvalues --   -0.40841  -0.40675  -0.40252  -0.39999  -0.39872
 Alpha  occ. eigenvalues --   -0.39819  -0.39764  -0.39633  -0.39393  -0.39195
 Alpha  occ. eigenvalues --   -0.39154  -0.38832  -0.38363  -0.38039  -0.37763
 Alpha  occ. eigenvalues --   -0.37740  -0.37515  -0.37320  -0.37262  -0.37178
 Alpha  occ. eigenvalues --   -0.36938  -0.36845  -0.36619  -0.36372  -0.36273
 Alpha  occ. eigenvalues --   -0.36194  -0.36042  -0.35819  -0.35808  -0.35559
 Alpha  occ. eigenvalues --   -0.35478  -0.35293  -0.35030  -0.35004  -0.34858
 Alpha  occ. eigenvalues --   -0.34632  -0.34440  -0.34210  -0.34189  -0.34142
 Alpha  occ. eigenvalues --   -0.33805  -0.33723  -0.33648  -0.33602  -0.33111
 Alpha  occ. eigenvalues --   -0.32993  -0.32899  -0.32673  -0.32367  -0.32316
 Alpha  occ. eigenvalues --   -0.32135  -0.31949  -0.31850  -0.31632  -0.31402
 Alpha  occ. eigenvalues --   -0.31318  -0.31057  -0.31018  -0.30846  -0.30656
 Alpha  occ. eigenvalues --   -0.30579  -0.30411  -0.30333  -0.30238  -0.29968
 Alpha  occ. eigenvalues --   -0.29942  -0.29795  -0.29453  -0.29263  -0.28859
 Alpha  occ. eigenvalues --   -0.28676  -0.28387  -0.28236  -0.28186  -0.27730
 Alpha  occ. eigenvalues --   -0.27442  -0.27197  -0.27014  -0.26875  -0.26455
 Alpha  occ. eigenvalues --   -0.26280  -0.25979  -0.25965  -0.25533  -0.25339
 Alpha  occ. eigenvalues --   -0.25260  -0.25098  -0.24175  -0.23312  -0.23212
 Alpha  occ. eigenvalues --   -0.22958  -0.22423  -0.21807  -0.21444  -0.21326
 Alpha  occ. eigenvalues --   -0.20807  -0.20361  -0.19145  -0.18696  -0.17446
 Alpha  occ. eigenvalues --   -0.15857
 Alpha virt. eigenvalues --   -0.11521  -0.07126  -0.06063  -0.04592  -0.04047
 Alpha virt. eigenvalues --   -0.02440  -0.02188  -0.01312  -0.00572  -0.00313
 Alpha virt. eigenvalues --    0.00652   0.01217   0.02097   0.02414   0.02755

 Mulliken charges:
               1
     1  Mg   0.729101
     2  C   -0.035691
     3  C   -0.055663
     4  C   -0.057865
     5  C   -0.096497
     6  N   -0.182288
     7  C   -0.046279
     8  C    0.028090
     9  C   -0.009964
    10  C   -0.047270
    11  C    0.134727
    12  C    0.054497
    13  C    0.152206
    14  C    0.081930
    15  O   -0.204308
    16  O   -0.276536
    17  N   -0.337736
    18  C    0.186508
    19  C   -0.123809
    20  C    0.027641
    21  C    0.159369
    22  C    0.169837
    23  C   -0.041017
    24  O   -0.188190
    25  C    0.125900
    26  N   -0.217154
    27  C   -0.021740
    28  C    0.053110
    29  C    0.013271
    30  C    0.033877
    31  C    0.091154
    32  C    0.102582
    33  C    0.051988
    34  N   -0.282435
    35  C    0.119903
    36  C   -0.217962
    37  C    0.089852
    38  C    0.109419
    39  C    0.196701
    40  C   -0.021329
    41  O   -0.103154
    42  C    0.069518
    43  C    0.072975
    44  O   -0.172148
    45  O   -0.260156
    46  C    0.216034
    47  C    0.329447
    48  C   -0.097215
    49  C   -0.124176
    50  C    0.108190
    51  C    0.130697
    52  C    0.100996
    53  C    0.061888
    54  C   -0.086618
    55  C    0.101992
    56  C    0.107512
    57  C    0.119817
    58  C    0.097133
    59  C   -0.107853
    60  C    0.135703
    61  C    0.119412
    62  C    0.046683
    63  C    0.085627
    64  C   -0.114112
    65  C    0.096652
    66  C    0.120760
    67  H   -0.070280
    68  H   -0.052073
    69  H   -0.050109
    70  H   -0.003711
    71  H   -0.020748
    72  H   -0.005890
    73  H    0.008198
    74  H   -0.006602
    75  H   -0.022017
    76  H   -0.017805
    77  H   -0.012034
    78  H   -0.003690
    79  H   -0.008576
    80  H   -0.012670
    81  H    0.001729
    82  H    0.023103
    83  H    0.001051
    84  H   -0.021071
    85  H   -0.009512
    86  H   -0.013747
    87  H   -0.000058
    88  H   -0.004843
    89  H    0.004078
    90  H   -0.010963
    91  H   -0.016370
    92  H   -0.016331
    93  H   -0.025052
    94  H   -0.006307
    95  H   -0.003385
    96  H   -0.006478
    97  H    0.018665
    98  H   -0.005723
    99  H    0.025697
   100  H    0.008071
   101  H    0.024100
   102  H    0.013015
   103  H   -0.011681
   104  H   -0.025761
   105  H   -0.030700
   106  H    0.002066
   107  H   -0.001426
   108  H   -0.021939
   109  H   -0.037978
   110  H   -0.040398
   111  H   -0.035374
   112  H   -0.041337
   113  H   -0.040181
   114  H   -0.054241
   115  H   -0.019565
   116  H   -0.015902
   117  H    0.016244
   118  H   -0.034970
   119  H   -0.052060
   120  H   -0.026625
   121  H   -0.009462
   122  H   -0.030632
   123  H   -0.056391
   124  H   -0.050814
   125  H   -0.040832
   126  H   -0.018179
   127  H   -0.011730
   128  H   -0.032252
   129  H   -0.041615
   130  H   -0.036867
   131  H   -0.020965
   132  H   -0.024940
   133  H   -0.037347
   134  H   -0.027272
   135  H   -0.006015
   136  H   -0.019792
   137  H   -0.020576
   138  H   -0.016416
   139  H   -0.011179
   140  H   -0.020094
 Sum of Mulliken charges =  -0.00000

 Dipole moment (field-independent basis, Debye):
    X=             -0.8766    Y=              1.8939    Z=             -1.0245  Tot=              2.3249
 Quadrupole moment (field-independent basis, Debye-Ang):
   XX=           -387.0944   YY=           -410.9733   ZZ=           -415.4889
   XY=              2.0374   XZ=              7.1592   YZ=             -2.0894

 Normal termination of Gaussian 16 at Wed May  4 03:09:57 2022.
