 Gaussian 16, Revision A.03,
 Gaussian 16:  ES64L-G16RevA.03 25-Dec-2016

 -----------------------------------
 #p cam-b3lyp/Def2SVP td=(nstates=5)
 -----------------------------------

 -------------------------------------------------------
 step_1251_chromophore_4 TDDFT with cam-b3lyp functional
 -------------------------------------------------------
 Symbolic Z-matrix:
 Charge =  0 Multiplicity = 1

                         Standard orientation:
 ---------------------------------------------------------------------
 Center     Atomic      Atomic             Coordinates (Angstroms)
 Number     Number       Type             X           Y           Z
 ---------------------------------------------------------------------
      1         12           0        6.187947    0.535539   -0.083530
      2          6           0        3.877306   -2.222432    0.154284
      3          6           0        3.544757    2.629203   -0.479366
      4          6           0        8.312754    3.023494   -0.179585
      5          6           0        8.797991   -1.785101    0.303244
      6          7           0        3.936095    0.178637   -0.225985
      7          6           0        3.218131   -0.961834   -0.004065
      8          6           0        1.766267   -0.697639   -0.218492
      9          6           0        1.709587    0.820918   -0.548275
     10          6           0        3.190302    1.289981   -0.324080
     11          6           0        1.232410    1.258649   -1.987599
     12          6           0        0.839080   -1.231345    0.903070
     13          6           0       -0.565262   -0.542759    1.179679
     14          6           0       -1.805525   -1.326208    1.485701
     15          8           0       -2.145710   -1.643709    2.638735
     16          8           0       -2.559710   -1.682559    0.377560
     17          7           0        6.007062    2.471378   -0.290756
     18          6           0        4.832174    3.230858   -0.485811
     19          6           0        5.077694    4.637490   -0.491111
     20          6           0        6.497440    4.732832   -0.362499
     21          6           0        6.992954    3.385063   -0.251543
     22          6           0        4.012837    5.725730   -0.695289
     23          6           0        7.350483    6.021951   -0.416673
     24          8           0        8.572134    6.002175   -0.133257
     25          6           0        6.670306    7.372471   -0.499473
     26          7           0        8.227625    0.652250   -0.015401
     27          6           0        8.891380    1.815273   -0.047967
     28          6           0       10.460001    1.685686   -0.043499
     29          6           0       10.522342    0.149489    0.239973
     30          6           0        9.099195   -0.363243    0.182912
     31          6           0       11.158856    2.021465   -1.530310
     32          6           0       11.098351   -0.169449    1.667031
     33          6           0       12.264708   -1.101750    1.652125
     34          7           0        6.330282   -1.471989    0.117011
     35          6           0        7.476218   -2.266537    0.382819
     36          6           0        7.127721   -3.637463    0.383479
     37          6           0        5.777272   -3.599302    0.305422
     38          6           0        5.316569   -2.313123    0.221447
     39          6           0        8.152517   -4.786368    0.394603
     40          6           0        4.681102   -4.543277    0.169817
     41          8           0        4.648760   -5.743450    0.153803
     42          6           0        3.320576   -3.669881    0.185583
     43          6           0        2.420093   -3.996734   -0.965498
     44          8           0        2.692418   -3.888754   -2.139438
     45          8           0        1.305322   -4.525853   -0.426921
     46          6           0        0.483921   -5.195167   -1.486300
     47          6           0       -3.516112   -2.762306    0.517834
     48          6           0       -4.912385   -2.180660    0.421321
     49          6           0       -6.182057   -2.636843    0.507667
     50          6           0       -6.510317   -4.119651    0.751898
     51          6           0       -7.494946   -1.705117    0.392423
     52          6           0       -7.941485   -1.015947   -0.918941
     53          6           0       -8.342061    0.508359   -0.754300
     54          6           0       -9.758085    0.605150   -0.244589
     55          6           0      -10.700798    0.466545   -1.492361
     56          6           0       -9.985899    1.817952    0.560305
     57          6           0      -10.805142    1.636250    1.835645
     58          6           0      -11.635580    2.884458    1.959405
     59          6           0      -13.166067    2.638557    2.085565
     60          6           0      -13.886187    3.711602    2.961761
     61          6           0      -13.764453    2.310854    0.701526
     62          6           0      -13.988645    0.881892    0.373532
     63          6           0      -15.174026    0.752771   -0.718149
     64          6           0      -14.896029   -0.341316   -1.754735
     65          6           0      -14.282035    0.374935   -3.029507
     66          6           0      -16.183988   -1.171459   -2.044295
     67          1           0        2.615428    3.200809   -0.507715
     68          1           0        9.075052    3.800046   -0.089949
     69          1           0        9.583296   -2.508853    0.530690
     70          1           0        1.340003   -1.325388   -1.001269
     71          1           0        1.202113    1.431114    0.198984
     72          1           0        0.772819    0.345228   -2.363508
     73          1           0        2.042235    1.592534   -2.636959
     74          1           0        0.533315    2.090773   -1.904142
     75          1           0        1.413126   -1.411211    1.811978
     76          1           0        0.561692   -2.266271    0.700356
     77          1           0       -0.819606    0.142165    0.371408
     78          1           0       -0.333548    0.130494    2.005595
     79          1           0        4.035205    6.616708   -0.066732
     80          1           0        3.003508    5.331012   -0.584593
     81          1           0        4.136865    6.154951   -1.690017
     82          1           0        6.128277    7.551215    0.429282
     83          1           0        6.126941    7.565225   -1.424178
     84          1           0        7.372535    8.206390   -0.505710
     85          1           0       10.908648    2.242386    0.780047
     86          1           0       11.001410   -0.459472   -0.526820
     87          1           0       11.620321    1.139412   -1.973689
     88          1           0       11.944619    2.773222   -1.457424
     89          1           0       10.435477    2.492668   -2.195580
     90          1           0       10.320053   -0.648983    2.260764
     91          1           0       11.460657    0.721729    2.180651
     92          1           0       13.171318   -0.505928    1.763941
     93          1           0       12.472435   -1.579590    0.694165
     94          1           0       12.255595   -1.934386    2.355715
     95          1           0        8.671459   -4.742857   -0.563203
     96          1           0        7.613928   -5.721033    0.234567
     97          1           0        8.775950   -4.772032    1.288262
     98          1           0        2.678474   -3.844346    1.048353
     99          1           0        0.015791   -4.504607   -2.188200
    100          1           0       -0.267543   -5.796571   -0.974626
    101          1           0        1.111875   -5.932044   -1.987470
    102          1           0       -3.404595   -3.458464    1.349156
    103          1           0       -3.324396   -3.397032   -0.347215
    104          1           0       -4.824087   -1.095830    0.480078
    105          1           0       -5.680298   -4.676177    1.186964
    106          1           0       -6.695502   -4.709897   -0.146155
    107          1           0       -7.320101   -4.253816    1.469127
    108          1           0       -7.418757   -0.956079    1.180996
    109          1           0       -8.332065   -2.257337    0.817627
    110          1           0       -8.800181   -1.466431   -1.416677
    111          1           0       -7.177823   -1.106038   -1.691257
    112          1           0       -8.279882    1.042923   -1.702181
    113          1           0       -7.704279    0.991630   -0.013453
    114          1           0       -9.762299   -0.296511    0.367391
    115          1           0      -10.159515    0.256114   -2.413283
    116          1           0      -11.158520    1.447584   -1.624451
    117          1           0      -11.452926   -0.320731   -1.436359
    118          1           0      -10.255190    2.592439   -0.157849
    119          1           0       -9.024990    2.095422    0.994185
    120          1           0      -10.033821    1.538934    2.599377
    121          1           0      -11.448267    0.759718    1.748781
    122          1           0      -11.536370    3.652094    1.192044
    123          1           0      -11.364015    3.382048    2.890313
    124          1           0      -13.177285    1.749141    2.715518
    125          1           0      -13.109730    4.425436    3.238576
    126          1           0      -14.127082    3.287517    3.936272
    127          1           0      -14.673490    4.299870    2.491669
    128          1           0      -13.124162    2.630739   -0.121201
    129          1           0      -14.716220    2.841547    0.700097
    130          1           0      -14.340509    0.383989    1.277087
    131          1           0      -13.033743    0.461804    0.060410
    132          1           0      -15.410250    1.676842   -1.245627
    133          1           0      -16.029379    0.554615   -0.072115
    134          1           0      -14.189961   -1.034848   -1.298442
    135          1           0      -13.197017    0.266655   -3.033759
    136          1           0      -14.405871    1.457170   -3.085695
    137          1           0      -14.838877    0.023549   -3.897326
    138          1           0      -17.029529   -0.704809   -1.538785
    139          1           0      -16.047594   -2.170305   -1.629016
    140          1           0      -16.296927   -1.150944   -3.127940
 ---------------------------------------------------------------------

 SCF Done:  E(RCAM-B3LYP) =  -3007.12295513     A.U. after   19 cycles

 Excitation energies and oscillator strengths:

 Excited State   1:      Singlet-A      1.7180 eV  721.67 nm  f=0.3669  <S**2>=0.000
     245 -> 248       -0.18536
     246 -> 247        0.68410
     245 <- 248       -0.10901
 This state for optimization and/or second-order correction.
 Total Energy, E(TD-HF/TD-DFT) =  -3007.05981912
 Copying the excited state density for this state as the 1-particle RhoCI density.

 Excited State   2:      Singlet-A      2.2874 eV  542.03 nm  f=0.1162  <S**2>=0.000
     245 -> 247        0.62859
     246 -> 248        0.31359

 Excited State   3:      Singlet-A      3.5145 eV  352.78 nm  f=0.5297  <S**2>=0.000
     241 -> 247        0.10667
     242 -> 247       -0.20389
     243 -> 247        0.31916
     245 -> 247       -0.24691
     246 -> 248        0.51762

 Excited State   4:      Singlet-A      3.5347 eV  350.77 nm  f=0.2020  <S**2>=0.000
     240 -> 249       -0.10068
     241 -> 247        0.21948
     242 -> 249        0.11572
     243 -> 247        0.52040
     245 -> 247        0.15806
     246 -> 248       -0.31919

 Excited State   5:      Singlet-A      3.5662 eV  347.66 nm  f=0.0403  <S**2>=0.000
     239 -> 247        0.11394
     240 -> 247       -0.30578
     240 -> 248        0.10054
     240 -> 249       -0.14717
     240 -> 250        0.15569
     241 -> 247        0.17773
     241 -> 248       -0.11787
     241 -> 249        0.26335
     242 -> 247        0.33550
     242 -> 249        0.13706
     242 -> 250       -0.10613
     243 -> 247       -0.11372
     246 -> 248        0.11980

 The electronic state is 1-A.
 Alpha  occ. eigenvalues --  -46.86649 -19.26276 -19.25394 -19.19942 -19.19697
 Alpha  occ. eigenvalues --  -19.19695 -19.18942 -14.41931 -14.41669 -14.39579
 Alpha  occ. eigenvalues --  -14.39145 -10.40013 -10.39032 -10.35722 -10.35317
 Alpha  occ. eigenvalues --  -10.32742 -10.32377 -10.31436 -10.31428 -10.30286
 Alpha  occ. eigenvalues --  -10.30073 -10.29783 -10.29477 -10.29353 -10.28786
 Alpha  occ. eigenvalues --  -10.28667 -10.28596 -10.28585 -10.28272 -10.28112
 Alpha  occ. eigenvalues --  -10.28028 -10.28016 -10.28010 -10.27746 -10.27531
 Alpha  occ. eigenvalues --  -10.27434 -10.27405 -10.27214 -10.27066 -10.27057
 Alpha  occ. eigenvalues --  -10.26656 -10.26457 -10.26445 -10.26376 -10.26333
 Alpha  occ. eigenvalues --  -10.26104 -10.25903 -10.25774 -10.25501 -10.25494
 Alpha  occ. eigenvalues --  -10.24998 -10.24858 -10.24786 -10.24682 -10.24587
 Alpha  occ. eigenvalues --  -10.24567 -10.24505 -10.24451 -10.24441 -10.24354
 Alpha  occ. eigenvalues --  -10.24352 -10.24253 -10.24240 -10.23816 -10.23806
 Alpha  occ. eigenvalues --  -10.23712  -3.15673  -1.90562  -1.90117  -1.90025
 Alpha  occ. eigenvalues --   -1.17567  -1.15982  -1.11398  -1.08630  -1.08425
 Alpha  occ. eigenvalues --   -1.07078  -1.05084  -1.04339  -1.03699  -1.02801
 Alpha  occ. eigenvalues --   -0.91786  -0.91119  -0.89559  -0.89355  -0.89259
 Alpha  occ. eigenvalues --   -0.88280  -0.88236  -0.87559  -0.87290  -0.86978
 Alpha  occ. eigenvalues --   -0.86597  -0.85219  -0.84365  -0.83863  -0.83150
 Alpha  occ. eigenvalues --   -0.82401  -0.81949  -0.81397  -0.80990  -0.80621
 Alpha  occ. eigenvalues --   -0.79771  -0.78565  -0.78477  -0.77195  -0.76356
 Alpha  occ. eigenvalues --   -0.75441  -0.75305  -0.75132  -0.74854  -0.73979
 Alpha  occ. eigenvalues --   -0.73588  -0.73183  -0.71915  -0.71314  -0.69152
 Alpha  occ. eigenvalues --   -0.68811  -0.68522  -0.67093  -0.66536  -0.65951
 Alpha  occ. eigenvalues --   -0.65547  -0.65031  -0.64918  -0.64561  -0.63781
 Alpha  occ. eigenvalues --   -0.63571  -0.63012  -0.62196  -0.62000  -0.61023
 Alpha  occ. eigenvalues --   -0.60452  -0.60401  -0.59594  -0.58429  -0.58183
 Alpha  occ. eigenvalues --   -0.57580  -0.57068  -0.56228  -0.55954  -0.55615
 Alpha  occ. eigenvalues --   -0.55421  -0.55021  -0.54652  -0.54412  -0.54084
 Alpha  occ. eigenvalues --   -0.53613  -0.53374  -0.52950  -0.52877  -0.52650
 Alpha  occ. eigenvalues --   -0.52489  -0.52316  -0.52226  -0.52096  -0.51781
 Alpha  occ. eigenvalues --   -0.51667  -0.51330  -0.50899  -0.50473  -0.50159
 Alpha  occ. eigenvalues --   -0.49981  -0.49938  -0.49825  -0.49632  -0.49501
 Alpha  occ. eigenvalues --   -0.49382  -0.49117  -0.48982  -0.48833  -0.48579
 Alpha  occ. eigenvalues --   -0.48374  -0.48288  -0.48024  -0.47889  -0.47686
 Alpha  occ. eigenvalues --   -0.47586  -0.47472  -0.47121  -0.46913  -0.46757
 Alpha  occ. eigenvalues --   -0.46462  -0.46369  -0.46302  -0.45971  -0.45896
 Alpha  occ. eigenvalues --   -0.45585  -0.45473  -0.45379  -0.45265  -0.45170
 Alpha  occ. eigenvalues --   -0.44878  -0.44513  -0.44176  -0.44093  -0.44085
 Alpha  occ. eigenvalues --   -0.43774  -0.43555  -0.43333  -0.43318  -0.43091
 Alpha  occ. eigenvalues --   -0.42740  -0.42655  -0.42548  -0.42406  -0.42051
 Alpha  occ. eigenvalues --   -0.42039  -0.41908  -0.41759  -0.41655  -0.41277
 Alpha  occ. eigenvalues --   -0.41105  -0.40997  -0.40608  -0.40405  -0.39973
 Alpha  occ. eigenvalues --   -0.39744  -0.39356  -0.39283  -0.39177  -0.38870
 Alpha  occ. eigenvalues --   -0.38748  -0.38210  -0.37883  -0.37660  -0.37481
 Alpha  occ. eigenvalues --   -0.37260  -0.36813  -0.36681  -0.36418  -0.36299
 Alpha  occ. eigenvalues --   -0.36176  -0.35945  -0.34648  -0.34449  -0.33741
 Alpha  occ. eigenvalues --   -0.33628  -0.33322  -0.33311  -0.31422  -0.31095
 Alpha  occ. eigenvalues --   -0.30973  -0.30690  -0.30122  -0.30009  -0.24142
 Alpha  occ. eigenvalues --   -0.21103
 Alpha virt. eigenvalues --   -0.08568  -0.01846   0.00552   0.02492   0.03651
 Alpha virt. eigenvalues --    0.04058   0.05193   0.05248   0.05595   0.06692
 Alpha virt. eigenvalues --    0.07452   0.08338   0.08476   0.08709   0.09170

 Mulliken charges:
               1
     1  Mg   0.869005
     2  C   -0.057368
     3  C   -0.070958
     4  C   -0.073978
     5  C   -0.100740
     6  N   -0.252387
     7  C   -0.002082
     8  C   -0.024015
     9  C   -0.070090
    10  C   -0.022167
    11  C    0.078069
    12  C    0.010700
    13  C    0.077322
    14  C    0.165075
    15  O   -0.243628
    16  O   -0.341458
    17  N   -0.429232
    18  C    0.188250
    19  C   -0.132702
    20  C   -0.038064
    21  C    0.176948
    22  C    0.117583
    23  C    0.037338
    24  O   -0.229349
    25  C    0.041727
    26  N   -0.294179
    27  C   -0.005718
    28  C    0.002552
    29  C   -0.046191
    30  C    0.054574
    31  C    0.039469
    32  C    0.045461
    33  C   -0.011374
    34  N   -0.371954
    35  C    0.124474
    36  C   -0.204707
    37  C   -0.000754
    38  C    0.142279
    39  C    0.140646
    40  C    0.078413
    41  O   -0.141064
    42  C   -0.001602
    43  C    0.160922
    44  O   -0.208148
    45  O   -0.323849
    46  C    0.174644
    47  C    0.297657
    48  C   -0.116919
    49  C   -0.149945
    50  C    0.049000
    51  C    0.077307
    52  C    0.041932
    53  C    0.011007
    54  C   -0.137810
    55  C    0.041535
    56  C    0.050023
    57  C    0.063769
    58  C    0.043056
    59  C   -0.165150
    60  C    0.074970
    61  C    0.067634
    62  C    0.002687
    63  C    0.033472
    64  C   -0.176105
    65  C    0.043546
    66  C    0.064861
    67  H   -0.036078
    68  H   -0.010007
    69  H   -0.014267
    70  H    0.029113
    71  H    0.011808
    72  H    0.017488
    73  H    0.034638
    74  H    0.016188
    75  H    0.010320
    76  H    0.011011
    77  H    0.020785
    78  H    0.030684
    79  H    0.017459
    80  H    0.013999
    81  H    0.026911
    82  H    0.049862
    83  H    0.029325
    84  H    0.015498
    85  H    0.024208
    86  H    0.019500
    87  H    0.022117
    88  H    0.018674
    89  H    0.028377
    90  H    0.019280
    91  H    0.012189
    92  H    0.008157
    93  H   -0.001802
    94  H    0.018191
    95  H    0.024765
    96  H    0.024131
    97  H    0.043104
    98  H    0.037727
    99  H    0.048851
   100  H    0.032988
   101  H    0.048673
   102  H    0.042715
   103  H    0.015835
   104  H    0.004514
   105  H   -0.006627
   106  H    0.025878
   107  H    0.022102
   108  H    0.006763
   109  H   -0.008543
   110  H   -0.010655
   111  H   -0.003721
   112  H   -0.011045
   113  H   -0.011459
   114  H   -0.023310
   115  H    0.006435
   116  H    0.005142
   117  H    0.034106
   118  H   -0.006969
   119  H   -0.019716
   120  H    0.003451
   121  H    0.015633
   122  H   -0.001838
   123  H   -0.024390
   124  H   -0.017239
   125  H   -0.014860
   126  H    0.007075
   127  H    0.012979
   128  H   -0.008330
   129  H   -0.012552
   130  H   -0.007805
   131  H   -0.002616
   132  H    0.002481
   133  H   -0.007611
   134  H    0.003577
   135  H    0.013849
   136  H    0.003356
   137  H    0.002896
   138  H    0.007389
   139  H    0.012478
   140  H    0.002549
 Sum of Mulliken charges =  -0.00000

 Dipole moment (field-independent basis, Debye):
    X=             -0.9814    Y=              2.0097    Z=             -1.0528  Tot=              2.4719
 Quadrupole moment (field-independent basis, Debye-Ang):
   XX=           -385.2763   YY=           -405.3632   ZZ=           -416.1891
   XY=              1.5361   XZ=              7.2904   YZ=             -2.4879

 Normal termination of Gaussian 16 at Wed May  4 02:12:04 2022.
