 Gaussian 16, Revision A.03,
 Gaussian 16:  ES64L-G16RevA.03 25-Dec-2016

 ---------------------------------
 #p PBE1PBE/Def2SVP td=(nstates=5)
 ---------------------------------

 -----------------------------------------------------
 step_1251_chromophore_4 TDDFT with PBE1PBE functional
 -----------------------------------------------------
 Symbolic Z-matrix:
 Charge =  0 Multiplicity = 1

                         Standard orientation:
 ---------------------------------------------------------------------
 Center     Atomic      Atomic             Coordinates (Angstroms)
 Number     Number       Type             X           Y           Z
 ---------------------------------------------------------------------
      1         12           0        6.187947    0.535539   -0.083530
      2          6           0        3.877306   -2.222432    0.154284
      3          6           0        3.544757    2.629203   -0.479366
      4          6           0        8.312754    3.023494   -0.179585
      5          6           0        8.797991   -1.785101    0.303244
      6          7           0        3.936095    0.178637   -0.225985
      7          6           0        3.218131   -0.961834   -0.004065
      8          6           0        1.766267   -0.697639   -0.218492
      9          6           0        1.709587    0.820918   -0.548275
     10          6           0        3.190302    1.289981   -0.324080
     11          6           0        1.232410    1.258649   -1.987599
     12          6           0        0.839080   -1.231345    0.903070
     13          6           0       -0.565262   -0.542759    1.179679
     14          6           0       -1.805525   -1.326208    1.485701
     15          8           0       -2.145710   -1.643709    2.638735
     16          8           0       -2.559710   -1.682559    0.377560
     17          7           0        6.007062    2.471378   -0.290756
     18          6           0        4.832174    3.230858   -0.485811
     19          6           0        5.077694    4.637490   -0.491111
     20          6           0        6.497440    4.732832   -0.362499
     21          6           0        6.992954    3.385063   -0.251543
     22          6           0        4.012837    5.725730   -0.695289
     23          6           0        7.350483    6.021951   -0.416673
     24          8           0        8.572134    6.002175   -0.133257
     25          6           0        6.670306    7.372471   -0.499473
     26          7           0        8.227625    0.652250   -0.015401
     27          6           0        8.891380    1.815273   -0.047967
     28          6           0       10.460001    1.685686   -0.043499
     29          6           0       10.522342    0.149489    0.239973
     30          6           0        9.099195   -0.363243    0.182912
     31          6           0       11.158856    2.021465   -1.530310
     32          6           0       11.098351   -0.169449    1.667031
     33          6           0       12.264708   -1.101750    1.652125
     34          7           0        6.330282   -1.471989    0.117011
     35          6           0        7.476218   -2.266537    0.382819
     36          6           0        7.127721   -3.637463    0.383479
     37          6           0        5.777272   -3.599302    0.305422
     38          6           0        5.316569   -2.313123    0.221447
     39          6           0        8.152517   -4.786368    0.394603
     40          6           0        4.681102   -4.543277    0.169817
     41          8           0        4.648760   -5.743450    0.153803
     42          6           0        3.320576   -3.669881    0.185583
     43          6           0        2.420093   -3.996734   -0.965498
     44          8           0        2.692418   -3.888754   -2.139438
     45          8           0        1.305322   -4.525853   -0.426921
     46          6           0        0.483921   -5.195167   -1.486300
     47          6           0       -3.516112   -2.762306    0.517834
     48          6           0       -4.912385   -2.180660    0.421321
     49          6           0       -6.182057   -2.636843    0.507667
     50          6           0       -6.510317   -4.119651    0.751898
     51          6           0       -7.494946   -1.705117    0.392423
     52          6           0       -7.941485   -1.015947   -0.918941
     53          6           0       -8.342061    0.508359   -0.754300
     54          6           0       -9.758085    0.605150   -0.244589
     55          6           0      -10.700798    0.466545   -1.492361
     56          6           0       -9.985899    1.817952    0.560305
     57          6           0      -10.805142    1.636250    1.835645
     58          6           0      -11.635580    2.884458    1.959405
     59          6           0      -13.166067    2.638557    2.085565
     60          6           0      -13.886187    3.711602    2.961761
     61          6           0      -13.764453    2.310854    0.701526
     62          6           0      -13.988645    0.881892    0.373532
     63          6           0      -15.174026    0.752771   -0.718149
     64          6           0      -14.896029   -0.341316   -1.754735
     65          6           0      -14.282035    0.374935   -3.029507
     66          6           0      -16.183988   -1.171459   -2.044295
     67          1           0        2.615428    3.200809   -0.507715
     68          1           0        9.075052    3.800046   -0.089949
     69          1           0        9.583296   -2.508853    0.530690
     70          1           0        1.340003   -1.325388   -1.001269
     71          1           0        1.202113    1.431114    0.198984
     72          1           0        0.772819    0.345228   -2.363508
     73          1           0        2.042235    1.592534   -2.636959
     74          1           0        0.533315    2.090773   -1.904142
     75          1           0        1.413126   -1.411211    1.811978
     76          1           0        0.561692   -2.266271    0.700356
     77          1           0       -0.819606    0.142165    0.371408
     78          1           0       -0.333548    0.130494    2.005595
     79          1           0        4.035205    6.616708   -0.066732
     80          1           0        3.003508    5.331012   -0.584593
     81          1           0        4.136865    6.154951   -1.690017
     82          1           0        6.128277    7.551215    0.429282
     83          1           0        6.126941    7.565225   -1.424178
     84          1           0        7.372535    8.206390   -0.505710
     85          1           0       10.908648    2.242386    0.780047
     86          1           0       11.001410   -0.459472   -0.526820
     87          1           0       11.620321    1.139412   -1.973689
     88          1           0       11.944619    2.773222   -1.457424
     89          1           0       10.435477    2.492668   -2.195580
     90          1           0       10.320053   -0.648983    2.260764
     91          1           0       11.460657    0.721729    2.180651
     92          1           0       13.171318   -0.505928    1.763941
     93          1           0       12.472435   -1.579590    0.694165
     94          1           0       12.255595   -1.934386    2.355715
     95          1           0        8.671459   -4.742857   -0.563203
     96          1           0        7.613928   -5.721033    0.234567
     97          1           0        8.775950   -4.772032    1.288262
     98          1           0        2.678474   -3.844346    1.048353
     99          1           0        0.015791   -4.504607   -2.188200
    100          1           0       -0.267543   -5.796571   -0.974626
    101          1           0        1.111875   -5.932044   -1.987470
    102          1           0       -3.404595   -3.458464    1.349156
    103          1           0       -3.324396   -3.397032   -0.347215
    104          1           0       -4.824087   -1.095830    0.480078
    105          1           0       -5.680298   -4.676177    1.186964
    106          1           0       -6.695502   -4.709897   -0.146155
    107          1           0       -7.320101   -4.253816    1.469127
    108          1           0       -7.418757   -0.956079    1.180996
    109          1           0       -8.332065   -2.257337    0.817627
    110          1           0       -8.800181   -1.466431   -1.416677
    111          1           0       -7.177823   -1.106038   -1.691257
    112          1           0       -8.279882    1.042923   -1.702181
    113          1           0       -7.704279    0.991630   -0.013453
    114          1           0       -9.762299   -0.296511    0.367391
    115          1           0      -10.159515    0.256114   -2.413283
    116          1           0      -11.158520    1.447584   -1.624451
    117          1           0      -11.452926   -0.320731   -1.436359
    118          1           0      -10.255190    2.592439   -0.157849
    119          1           0       -9.024990    2.095422    0.994185
    120          1           0      -10.033821    1.538934    2.599377
    121          1           0      -11.448267    0.759718    1.748781
    122          1           0      -11.536370    3.652094    1.192044
    123          1           0      -11.364015    3.382048    2.890313
    124          1           0      -13.177285    1.749141    2.715518
    125          1           0      -13.109730    4.425436    3.238576
    126          1           0      -14.127082    3.287517    3.936272
    127          1           0      -14.673490    4.299870    2.491669
    128          1           0      -13.124162    2.630739   -0.121201
    129          1           0      -14.716220    2.841547    0.700097
    130          1           0      -14.340509    0.383989    1.277087
    131          1           0      -13.033743    0.461804    0.060410
    132          1           0      -15.410250    1.676842   -1.245627
    133          1           0      -16.029379    0.554615   -0.072115
    134          1           0      -14.189961   -1.034848   -1.298442
    135          1           0      -13.197017    0.266655   -3.033759
    136          1           0      -14.405871    1.457170   -3.085695
    137          1           0      -14.838877    0.023549   -3.897326
    138          1           0      -17.029529   -0.704809   -1.538785
    139          1           0      -16.047594   -2.170305   -1.629016
    140          1           0      -16.296927   -1.150944   -3.127940
 ---------------------------------------------------------------------

 SCF Done:  E(RPBE1PBE) =  -3005.31042850     A.U. after   15 cycles

 Excitation energies and oscillator strengths:

 Excited State   1:      Singlet-A      1.8759 eV  660.93 nm  f=0.3533  <S**2>=0.000
     245 -> 248       -0.17787
     246 -> 247        0.69110
     246 <- 247       -0.10516
 This state for optimization and/or second-order correction.
 Total Energy, E(TD-HF/TD-DFT) =  -3005.24149016
 Copying the excited state density for this state as the 1-particle RhoCI density.

 Excited State   2:      Singlet-A      2.2956 eV  540.10 nm  f=0.1170  <S**2>=0.000
     245 -> 247        0.64050
     246 -> 248        0.28621

 Excited State   3:      Singlet-A      3.0893 eV  401.33 nm  f=0.0002  <S**2>=0.000
     241 -> 247        0.18763
     242 -> 247       -0.22537
     242 -> 249       -0.11083
     243 -> 247        0.58924
     243 -> 249        0.13831

 Excited State   4:      Singlet-A      3.1046 eV  399.36 nm  f=0.0006  <S**2>=0.000
     241 -> 247        0.38687
     241 -> 249       -0.10762
     242 -> 247        0.54919
     243 -> 247        0.10333

 Excited State   5:      Singlet-A      3.2218 eV  384.83 nm  f=0.0132  <S**2>=0.000
     239 -> 247        0.10299
     241 -> 247        0.51245
     242 -> 247       -0.31995
     243 -> 247       -0.29857
     246 -> 248       -0.10897

 The electronic state is 1-A.
 Alpha  occ. eigenvalues --  -46.90090 -19.26882 -19.26103 -19.20099 -19.19983
 Alpha  occ. eigenvalues --  -19.19821 -19.19248 -14.41439 -14.41204 -14.39318
 Alpha  occ. eigenvalues --  -14.38793 -10.37058 -10.35978 -10.32953 -10.32393
 Alpha  occ. eigenvalues --  -10.30160 -10.29568 -10.29129 -10.29112 -10.28111
 Alpha  occ. eigenvalues --  -10.27929 -10.27578 -10.27103 -10.27100 -10.26569
 Alpha  occ. eigenvalues --  -10.26445 -10.26394 -10.26358 -10.26053 -10.25874
 Alpha  occ. eigenvalues --  -10.25730 -10.25619 -10.25608 -10.25365 -10.25153
 Alpha  occ. eigenvalues --  -10.25064 -10.24975 -10.24935 -10.24912 -10.24762
 Alpha  occ. eigenvalues --  -10.24037 -10.24032 -10.24004 -10.23858 -10.23738
 Alpha  occ. eigenvalues --  -10.23703 -10.23444 -10.23180 -10.23159 -10.23065
 Alpha  occ. eigenvalues --  -10.22568 -10.22409 -10.22273 -10.22262 -10.22229
 Alpha  occ. eigenvalues --  -10.22098 -10.22041 -10.22027 -10.22020 -10.21922
 Alpha  occ. eigenvalues --  -10.21871 -10.21660 -10.21639 -10.21388 -10.21319
 Alpha  occ. eigenvalues --  -10.21280  -3.12681  -1.85514  -1.85045  -1.84960
 Alpha  occ. eigenvalues --   -1.12293  -1.10810  -1.06083  -1.03397  -1.03201
 Alpha  occ. eigenvalues --   -1.01938  -0.99707  -0.98987  -0.98362  -0.97546
 Alpha  occ. eigenvalues --   -0.86074  -0.85230  -0.83764  -0.83680  -0.83362
 Alpha  occ. eigenvalues --   -0.82620  -0.82399  -0.81885  -0.81400  -0.81330
 Alpha  occ. eigenvalues --   -0.80963  -0.79461  -0.78567  -0.78130  -0.77426
 Alpha  occ. eigenvalues --   -0.76626  -0.76176  -0.75631  -0.75241  -0.74885
 Alpha  occ. eigenvalues --   -0.73959  -0.72893  -0.72730  -0.71508  -0.70670
 Alpha  occ. eigenvalues --   -0.69618  -0.69527  -0.69262  -0.69035  -0.68168
 Alpha  occ. eigenvalues --   -0.67932  -0.67548  -0.66281  -0.65733  -0.63388
 Alpha  occ. eigenvalues --   -0.63181  -0.62932  -0.61600  -0.60771  -0.60390
 Alpha  occ. eigenvalues --   -0.60052  -0.59528  -0.59176  -0.59149  -0.58157
 Alpha  occ. eigenvalues --   -0.57811  -0.57184  -0.56733  -0.56201  -0.55661
 Alpha  occ. eigenvalues --   -0.54971  -0.54809  -0.54162  -0.53030  -0.52765
 Alpha  occ. eigenvalues --   -0.51981  -0.51455  -0.50718  -0.50547  -0.49967
 Alpha  occ. eigenvalues --   -0.49930  -0.49618  -0.49169  -0.48964  -0.48627
 Alpha  occ. eigenvalues --   -0.48184  -0.47819  -0.47577  -0.47331  -0.47187
 Alpha  occ. eigenvalues --   -0.46972  -0.46794  -0.46747  -0.46583  -0.46299
 Alpha  occ. eigenvalues --   -0.46288  -0.45875  -0.45513  -0.45077  -0.44708
 Alpha  occ. eigenvalues --   -0.44599  -0.44549  -0.44427  -0.44241  -0.44063
 Alpha  occ. eigenvalues --   -0.43968  -0.43719  -0.43612  -0.43412  -0.43149
 Alpha  occ. eigenvalues --   -0.43011  -0.42952  -0.42654  -0.42533  -0.42357
 Alpha  occ. eigenvalues --   -0.42234  -0.42101  -0.41805  -0.41498  -0.41435
 Alpha  occ. eigenvalues --   -0.41201  -0.41079  -0.40975  -0.40544  -0.40484
 Alpha  occ. eigenvalues --   -0.40335  -0.40216  -0.40115  -0.39952  -0.39817
 Alpha  occ. eigenvalues --   -0.39591  -0.39367  -0.38965  -0.38836  -0.38779
 Alpha  occ. eigenvalues --   -0.38579  -0.38370  -0.38167  -0.38013  -0.37922
 Alpha  occ. eigenvalues --   -0.37563  -0.37416  -0.37352  -0.37102  -0.36980
 Alpha  occ. eigenvalues --   -0.36884  -0.36752  -0.36627  -0.36390  -0.36220
 Alpha  occ. eigenvalues --   -0.35902  -0.35880  -0.35484  -0.35303  -0.34702
 Alpha  occ. eigenvalues --   -0.34500  -0.34275  -0.34089  -0.34036  -0.33785
 Alpha  occ. eigenvalues --   -0.33628  -0.33210  -0.32633  -0.32497  -0.32404
 Alpha  occ. eigenvalues --   -0.32145  -0.31874  -0.31519  -0.31387  -0.31348
 Alpha  occ. eigenvalues --   -0.30976  -0.30743  -0.29653  -0.29470  -0.28871
 Alpha  occ. eigenvalues --   -0.28578  -0.28476  -0.28287  -0.27028  -0.26471
 Alpha  occ. eigenvalues --   -0.25940  -0.25794  -0.25668  -0.25276  -0.21104
 Alpha  occ. eigenvalues --   -0.18763
 Alpha virt. eigenvalues --   -0.11064  -0.05389  -0.03723  -0.01941  -0.00955
 Alpha virt. eigenvalues --    0.00599   0.00804   0.01345   0.01835   0.02527
 Alpha virt. eigenvalues --    0.03432   0.04303   0.04928   0.05320   0.05684

 Mulliken charges:
               1
     1  Mg   1.031200
     2  C   -0.048944
     3  C   -0.067267
     4  C   -0.062596
     5  C   -0.083888
     6  N   -0.359385
     7  C    0.066761
     8  C   -0.094486
     9  C   -0.149514
    10  C    0.021631
    11  C    0.018844
    12  C   -0.035046
    13  C   -0.000469
    14  C    0.231009
    15  O   -0.275330
    16  O   -0.372805
    17  N   -0.551536
    18  C    0.204931
    19  C   -0.153751
    20  C   -0.080440
    21  C    0.201294
    22  C    0.060190
    23  C    0.085668
    24  O   -0.263564
    25  C   -0.030816
    26  N   -0.407332
    27  C    0.029166
    28  C   -0.068046
    29  C   -0.126706
    30  C    0.091716
    31  C   -0.016082
    32  C   -0.011831
    33  C   -0.080159
    34  N   -0.499959
    35  C    0.134095
    36  C   -0.201765
    37  C   -0.069242
    38  C    0.187048
    39  C    0.080354
    40  C    0.179883
    41  O   -0.188755
    42  C   -0.112298
    43  C    0.254567
    44  O   -0.244853
    45  O   -0.356819
    46  C    0.117057
    47  C    0.257575
    48  C   -0.126718
    49  C   -0.198658
    50  C   -0.010895
    51  C    0.021325
    52  C   -0.024015
    53  C   -0.047627
    54  C   -0.224329
    55  C   -0.019861
    56  C   -0.004151
    57  C    0.000417
    58  C   -0.013853
    59  C   -0.250287
    60  C    0.014144
    61  C    0.013551
    62  C   -0.068889
    63  C   -0.017925
    64  C   -0.270278
    65  C   -0.018265
    66  C    0.004986
    67  H   -0.003305
    68  H    0.022171
    69  H    0.016888
    70  H    0.067223
    71  H    0.049258
    72  H    0.046229
    73  H    0.062274
    74  H    0.042962
    75  H    0.042022
    76  H    0.048593
    77  H    0.053177
    78  H    0.063352
    79  H    0.044647
    80  H    0.041756
    81  H    0.055482
    82  H    0.076016
    83  H    0.055238
    84  H    0.043782
    85  H    0.058381
    86  H    0.055221
    87  H    0.048585
    88  H    0.046082
    89  H    0.055532
    90  H    0.052857
    91  H    0.043796
    92  H    0.036231
    93  H    0.025037
    94  H    0.045311
    95  H    0.052714
    96  H    0.052849
    97  H    0.068672
    98  H    0.074247
    99  H    0.070140
   100  H    0.054644
   101  H    0.070646
   102  H    0.067313
   103  H    0.043816
   104  H    0.034720
   105  H    0.021317
   106  H    0.053427
   107  H    0.048571
   108  H    0.038406
   109  H    0.021811
   110  H    0.023730
   111  H    0.029687
   112  H    0.022327
   113  H    0.021563
   114  H    0.019735
   115  H    0.033434
   116  H    0.033585
   117  H    0.059178
   118  H    0.023397
   119  H    0.014359
   120  H    0.036446
   121  H    0.046679
   122  H    0.030546
   123  H    0.010029
   124  H    0.022427
   125  H    0.012986
   126  H    0.034703
   127  H    0.039203
   128  H    0.026222
   129  H    0.021139
   130  H    0.025720
   131  H    0.038456
   132  H    0.033328
   133  H    0.025425
   134  H    0.041385
   135  H    0.045510
   136  H    0.029321
   137  H    0.029509
   138  H    0.034542
   139  H    0.039854
   140  H    0.029501
 Sum of Mulliken charges =  -0.00000

 Dipole moment (field-independent basis, Debye):
    X=             -0.8983    Y=              2.1947    Z=             -1.0915  Tot=              2.6105
 Quadrupole moment (field-independent basis, Debye-Ang):
   XX=           -379.4444   YY=           -402.3805   ZZ=           -413.8746
   XY=              2.0733   XZ=              7.0142   YZ=             -2.6251

 Normal termination of Gaussian 16 at Wed May  4 02:29:52 2022.
