 Gaussian 16, Revision A.03,
 Gaussian 16:  ES64L-G16RevA.03 25-Dec-2016

 --------------------------------
 #p wB97XD/Def2SVP td=(nstates=5)
 --------------------------------

 ----------------------------------------------------
 step_1251_chromophore_4 TDDFT with wB97XD functional
 ----------------------------------------------------
 Symbolic Z-matrix:
 Charge =  0 Multiplicity = 1

                         Standard orientation:
 ---------------------------------------------------------------------
 Center     Atomic      Atomic             Coordinates (Angstroms)
 Number     Number       Type             X           Y           Z
 ---------------------------------------------------------------------
      1         12           0        6.187947    0.535539   -0.083530
      2          6           0        3.877306   -2.222432    0.154284
      3          6           0        3.544757    2.629203   -0.479366
      4          6           0        8.312754    3.023494   -0.179585
      5          6           0        8.797991   -1.785101    0.303244
      6          7           0        3.936095    0.178637   -0.225985
      7          6           0        3.218131   -0.961834   -0.004065
      8          6           0        1.766267   -0.697639   -0.218492
      9          6           0        1.709587    0.820918   -0.548275
     10          6           0        3.190302    1.289981   -0.324080
     11          6           0        1.232410    1.258649   -1.987599
     12          6           0        0.839080   -1.231345    0.903070
     13          6           0       -0.565262   -0.542759    1.179679
     14          6           0       -1.805525   -1.326208    1.485701
     15          8           0       -2.145710   -1.643709    2.638735
     16          8           0       -2.559710   -1.682559    0.377560
     17          7           0        6.007062    2.471378   -0.290756
     18          6           0        4.832174    3.230858   -0.485811
     19          6           0        5.077694    4.637490   -0.491111
     20          6           0        6.497440    4.732832   -0.362499
     21          6           0        6.992954    3.385063   -0.251543
     22          6           0        4.012837    5.725730   -0.695289
     23          6           0        7.350483    6.021951   -0.416673
     24          8           0        8.572134    6.002175   -0.133257
     25          6           0        6.670306    7.372471   -0.499473
     26          7           0        8.227625    0.652250   -0.015401
     27          6           0        8.891380    1.815273   -0.047967
     28          6           0       10.460001    1.685686   -0.043499
     29          6           0       10.522342    0.149489    0.239973
     30          6           0        9.099195   -0.363243    0.182912
     31          6           0       11.158856    2.021465   -1.530310
     32          6           0       11.098351   -0.169449    1.667031
     33          6           0       12.264708   -1.101750    1.652125
     34          7           0        6.330282   -1.471989    0.117011
     35          6           0        7.476218   -2.266537    0.382819
     36          6           0        7.127721   -3.637463    0.383479
     37          6           0        5.777272   -3.599302    0.305422
     38          6           0        5.316569   -2.313123    0.221447
     39          6           0        8.152517   -4.786368    0.394603
     40          6           0        4.681102   -4.543277    0.169817
     41          8           0        4.648760   -5.743450    0.153803
     42          6           0        3.320576   -3.669881    0.185583
     43          6           0        2.420093   -3.996734   -0.965498
     44          8           0        2.692418   -3.888754   -2.139438
     45          8           0        1.305322   -4.525853   -0.426921
     46          6           0        0.483921   -5.195167   -1.486300
     47          6           0       -3.516112   -2.762306    0.517834
     48          6           0       -4.912385   -2.180660    0.421321
     49          6           0       -6.182057   -2.636843    0.507667
     50          6           0       -6.510317   -4.119651    0.751898
     51          6           0       -7.494946   -1.705117    0.392423
     52          6           0       -7.941485   -1.015947   -0.918941
     53          6           0       -8.342061    0.508359   -0.754300
     54          6           0       -9.758085    0.605150   -0.244589
     55          6           0      -10.700798    0.466545   -1.492361
     56          6           0       -9.985899    1.817952    0.560305
     57          6           0      -10.805142    1.636250    1.835645
     58          6           0      -11.635580    2.884458    1.959405
     59          6           0      -13.166067    2.638557    2.085565
     60          6           0      -13.886187    3.711602    2.961761
     61          6           0      -13.764453    2.310854    0.701526
     62          6           0      -13.988645    0.881892    0.373532
     63          6           0      -15.174026    0.752771   -0.718149
     64          6           0      -14.896029   -0.341316   -1.754735
     65          6           0      -14.282035    0.374935   -3.029507
     66          6           0      -16.183988   -1.171459   -2.044295
     67          1           0        2.615428    3.200809   -0.507715
     68          1           0        9.075052    3.800046   -0.089949
     69          1           0        9.583296   -2.508853    0.530690
     70          1           0        1.340003   -1.325388   -1.001269
     71          1           0        1.202113    1.431114    0.198984
     72          1           0        0.772819    0.345228   -2.363508
     73          1           0        2.042235    1.592534   -2.636959
     74          1           0        0.533315    2.090773   -1.904142
     75          1           0        1.413126   -1.411211    1.811978
     76          1           0        0.561692   -2.266271    0.700356
     77          1           0       -0.819606    0.142165    0.371408
     78          1           0       -0.333548    0.130494    2.005595
     79          1           0        4.035205    6.616708   -0.066732
     80          1           0        3.003508    5.331012   -0.584593
     81          1           0        4.136865    6.154951   -1.690017
     82          1           0        6.128277    7.551215    0.429282
     83          1           0        6.126941    7.565225   -1.424178
     84          1           0        7.372535    8.206390   -0.505710
     85          1           0       10.908648    2.242386    0.780047
     86          1           0       11.001410   -0.459472   -0.526820
     87          1           0       11.620321    1.139412   -1.973689
     88          1           0       11.944619    2.773222   -1.457424
     89          1           0       10.435477    2.492668   -2.195580
     90          1           0       10.320053   -0.648983    2.260764
     91          1           0       11.460657    0.721729    2.180651
     92          1           0       13.171318   -0.505928    1.763941
     93          1           0       12.472435   -1.579590    0.694165
     94          1           0       12.255595   -1.934386    2.355715
     95          1           0        8.671459   -4.742857   -0.563203
     96          1           0        7.613928   -5.721033    0.234567
     97          1           0        8.775950   -4.772032    1.288262
     98          1           0        2.678474   -3.844346    1.048353
     99          1           0        0.015791   -4.504607   -2.188200
    100          1           0       -0.267543   -5.796571   -0.974626
    101          1           0        1.111875   -5.932044   -1.987470
    102          1           0       -3.404595   -3.458464    1.349156
    103          1           0       -3.324396   -3.397032   -0.347215
    104          1           0       -4.824087   -1.095830    0.480078
    105          1           0       -5.680298   -4.676177    1.186964
    106          1           0       -6.695502   -4.709897   -0.146155
    107          1           0       -7.320101   -4.253816    1.469127
    108          1           0       -7.418757   -0.956079    1.180996
    109          1           0       -8.332065   -2.257337    0.817627
    110          1           0       -8.800181   -1.466431   -1.416677
    111          1           0       -7.177823   -1.106038   -1.691257
    112          1           0       -8.279882    1.042923   -1.702181
    113          1           0       -7.704279    0.991630   -0.013453
    114          1           0       -9.762299   -0.296511    0.367391
    115          1           0      -10.159515    0.256114   -2.413283
    116          1           0      -11.158520    1.447584   -1.624451
    117          1           0      -11.452926   -0.320731   -1.436359
    118          1           0      -10.255190    2.592439   -0.157849
    119          1           0       -9.024990    2.095422    0.994185
    120          1           0      -10.033821    1.538934    2.599377
    121          1           0      -11.448267    0.759718    1.748781
    122          1           0      -11.536370    3.652094    1.192044
    123          1           0      -11.364015    3.382048    2.890313
    124          1           0      -13.177285    1.749141    2.715518
    125          1           0      -13.109730    4.425436    3.238576
    126          1           0      -14.127082    3.287517    3.936272
    127          1           0      -14.673490    4.299870    2.491669
    128          1           0      -13.124162    2.630739   -0.121201
    129          1           0      -14.716220    2.841547    0.700097
    130          1           0      -14.340509    0.383989    1.277087
    131          1           0      -13.033743    0.461804    0.060410
    132          1           0      -15.410250    1.676842   -1.245627
    133          1           0      -16.029379    0.554615   -0.072115
    134          1           0      -14.189961   -1.034848   -1.298442
    135          1           0      -13.197017    0.266655   -3.033759
    136          1           0      -14.405871    1.457170   -3.085695
    137          1           0      -14.838877    0.023549   -3.897326
    138          1           0      -17.029529   -0.704809   -1.538785
    139          1           0      -16.047594   -2.170305   -1.629016
    140          1           0      -16.296927   -1.150944   -3.127940
 ---------------------------------------------------------------------

 SCF Done:  E(RwB97XD) =  -3007.82051584     A.U. after   19 cycles

 Excitation energies and oscillator strengths:

 Excited State   1:      Singlet-A      1.6602 eV  746.79 nm  f=0.3652  <S**2>=0.000
     245 -> 248        0.19072
     246 -> 247        0.68214
     245 <- 248        0.11848
 This state for optimization and/or second-order correction.
 Total Energy, E(TD-HF/TD-DFT) =  -3007.75950351
 Copying the excited state density for this state as the 1-particle RhoCI density.

 Excited State   2:      Singlet-A      2.2304 eV  555.88 nm  f=0.1138  <S**2>=0.000
     245 -> 247        0.62749
     246 -> 248       -0.31507

 Excited State   3:      Singlet-A      3.5202 eV  352.21 nm  f=0.3797  <S**2>=0.000
     239 -> 247        0.12618
     240 -> 247        0.10736
     241 -> 247       -0.17748
     242 -> 247        0.21281
     243 -> 247       -0.38355
     245 -> 247        0.20395
     246 -> 248        0.44035

 Excited State   4:      Singlet-A      3.5507 eV  349.18 nm  f=0.3589  <S**2>=0.000
     241 -> 247        0.14363
     242 -> 249       -0.12605
     243 -> 247        0.46999
     245 -> 247        0.20540
     246 -> 248        0.41214

 Excited State   5:      Singlet-A      3.5856 eV  345.78 nm  f=0.0452  <S**2>=0.000
     240 -> 247       -0.18278
     240 -> 249        0.10161
     240 -> 250       -0.11459
     241 -> 247        0.12023
     241 -> 249       -0.22721
     242 -> 247        0.42213
     242 -> 248        0.14022
     242 -> 249       -0.26048
     242 -> 250        0.17724
     246 -> 248       -0.12473

 The electronic state is 1-A.
 Alpha  occ. eigenvalues --  -46.93017 -19.31515 -19.30676 -19.24892 -19.24774
 Alpha  occ. eigenvalues --  -19.24693 -19.23970 -14.46529 -14.46266 -14.44208
 Alpha  occ. eigenvalues --  -14.43789 -10.43875 -10.42885 -10.39702 -10.39370
 Alpha  occ. eigenvalues --  -10.36648 -10.36145 -10.35500 -10.35468 -10.34291
 Alpha  occ. eigenvalues --  -10.34103 -10.33770 -10.33563 -10.33329 -10.32819
 Alpha  occ. eigenvalues --  -10.32766 -10.32748 -10.32712 -10.32338 -10.32094
 Alpha  occ. eigenvalues --  -10.32080 -10.32068 -10.32064 -10.31761 -10.31611
 Alpha  occ. eigenvalues --  -10.31556 -10.31367 -10.31268 -10.31140 -10.31113
 Alpha  occ. eigenvalues --  -10.30592 -10.30432 -10.30323 -10.30236 -10.30202
 Alpha  occ. eigenvalues --  -10.30038 -10.29853 -10.29608 -10.29450 -10.29443
 Alpha  occ. eigenvalues --  -10.28843 -10.28804 -10.28739 -10.28677 -10.28559
 Alpha  occ. eigenvalues --  -10.28482 -10.28394 -10.28388 -10.28351 -10.28345
 Alpha  occ. eigenvalues --  -10.28275 -10.28082 -10.28055 -10.27744 -10.27712
 Alpha  occ. eigenvalues --  -10.27644  -3.19418  -1.93009  -1.92544  -1.92448
 Alpha  occ. eigenvalues --   -1.19756  -1.18209  -1.13677  -1.10836  -1.10622
 Alpha  occ. eigenvalues --   -1.09314  -1.07120  -1.06380  -1.05722  -1.04845
 Alpha  occ. eigenvalues --   -0.93775  -0.92883  -0.91421  -0.91255  -0.91032
 Alpha  occ. eigenvalues --   -0.90181  -0.90075  -0.89535  -0.89067  -0.88915
 Alpha  occ. eigenvalues --   -0.88542  -0.87109  -0.86225  -0.85792  -0.85038
 Alpha  occ. eigenvalues --   -0.84263  -0.83839  -0.83316  -0.82891  -0.82538
 Alpha  occ. eigenvalues --   -0.81627  -0.80514  -0.80395  -0.79122  -0.78321
 Alpha  occ. eigenvalues --   -0.77252  -0.77211  -0.76950  -0.76703  -0.75825
 Alpha  occ. eigenvalues --   -0.75532  -0.75153  -0.73851  -0.73288  -0.71027
 Alpha  occ. eigenvalues --   -0.70736  -0.70510  -0.69095  -0.68407  -0.67885
 Alpha  occ. eigenvalues --   -0.67535  -0.66997  -0.66808  -0.66587  -0.65664
 Alpha  occ. eigenvalues --   -0.65471  -0.64841  -0.64199  -0.63833  -0.63016
 Alpha  occ. eigenvalues --   -0.62447  -0.62317  -0.61590  -0.60443  -0.60149
 Alpha  occ. eigenvalues --   -0.59492  -0.59037  -0.58172  -0.57931  -0.57467
 Alpha  occ. eigenvalues --   -0.57383  -0.57020  -0.56589  -0.56376  -0.56037
 Alpha  occ. eigenvalues --   -0.55549  -0.55230  -0.54960  -0.54751  -0.54562
 Alpha  occ. eigenvalues --   -0.54413  -0.54193  -0.54142  -0.54047  -0.53682
 Alpha  occ. eigenvalues --   -0.53618  -0.53226  -0.52859  -0.52401  -0.52081
 Alpha  occ. eigenvalues --   -0.51917  -0.51857  -0.51770  -0.51546  -0.51390
 Alpha  occ. eigenvalues --   -0.51292  -0.51059  -0.50920  -0.50724  -0.50476
 Alpha  occ. eigenvalues --   -0.50289  -0.50216  -0.49947  -0.49791  -0.49598
 Alpha  occ. eigenvalues --   -0.49512  -0.49423  -0.49037  -0.48775  -0.48658
 Alpha  occ. eigenvalues --   -0.48369  -0.48284  -0.48213  -0.47827  -0.47743
 Alpha  occ. eigenvalues --   -0.47516  -0.47375  -0.47294  -0.47158  -0.47135
 Alpha  occ. eigenvalues --   -0.46862  -0.46487  -0.46099  -0.46034  -0.45992
 Alpha  occ. eigenvalues --   -0.45740  -0.45477  -0.45251  -0.45189  -0.45020
 Alpha  occ. eigenvalues --   -0.44684  -0.44548  -0.44491  -0.44258  -0.44034
 Alpha  occ. eigenvalues --   -0.43933  -0.43820  -0.43751  -0.43513  -0.43220
 Alpha  occ. eigenvalues --   -0.42967  -0.42920  -0.42498  -0.42314  -0.41840
 Alpha  occ. eigenvalues --   -0.41599  -0.41204  -0.41196  -0.41081  -0.40825
 Alpha  occ. eigenvalues --   -0.40682  -0.40144  -0.39722  -0.39524  -0.39481
 Alpha  occ. eigenvalues --   -0.39164  -0.38895  -0.38571  -0.38378  -0.38228
 Alpha  occ. eigenvalues --   -0.38022  -0.37781  -0.36650  -0.36435  -0.35784
 Alpha  occ. eigenvalues --   -0.35464  -0.35457  -0.35148  -0.33632  -0.33152
 Alpha  occ. eigenvalues --   -0.32984  -0.32762  -0.32307  -0.32061  -0.26064
 Alpha  occ. eigenvalues --   -0.22924
 Alpha virt. eigenvalues --   -0.06933   0.00062   0.02600   0.04576   0.05862
 Alpha virt. eigenvalues --    0.07115   0.07315   0.07493   0.08315   0.09071
 Alpha virt. eigenvalues --    0.10009   0.11171   0.11688   0.11902   0.12502

 Mulliken charges:
               1
     1  Mg   1.016534
     2  C   -0.063655
     3  C   -0.081687
     4  C   -0.079994
     5  C   -0.105951
     6  N   -0.322450
     7  C    0.039039
     8  C   -0.069989
     9  C   -0.122951
    10  C    0.006256
    11  C    0.031188
    12  C   -0.022624
    13  C    0.015373
    14  C    0.221795
    15  O   -0.272652
    16  O   -0.371520
    17  N   -0.518694
    18  C    0.199431
    19  C   -0.148356
    20  C   -0.077824
    21  C    0.196093
    22  C    0.073267
    23  C    0.081247
    24  O   -0.259126
    25  C   -0.020563
    26  N   -0.371633
    27  C    0.014972
    28  C   -0.047370
    29  C   -0.098375
    30  C    0.082652
    31  C   -0.004109
    32  C    0.001841
    33  C   -0.065855
    34  N   -0.464319
    35  C    0.132621
    36  C   -0.203818
    37  C   -0.057676
    38  C    0.175835
    39  C    0.091819
    40  C    0.157672
    41  O   -0.177945
    42  C   -0.068678
    43  C    0.226935
    44  O   -0.238382
    45  O   -0.354747
    46  C    0.132821
    47  C    0.270522
    48  C   -0.135949
    49  C   -0.183894
    50  C    0.002122
    51  C    0.036407
    52  C   -0.005553
    53  C   -0.027153
    54  C   -0.188834
    55  C   -0.007345
    56  C    0.013184
    57  C    0.017369
    58  C    0.003444
    59  C   -0.219164
    60  C    0.026505
    61  C    0.031791
    62  C   -0.037274
    63  C   -0.002588
    64  C   -0.241743
    65  C   -0.000722
    66  C    0.019100
    67  H   -0.012028
    68  H    0.017283
    69  H    0.011697
    70  H    0.054807
    71  H    0.036794
    72  H    0.039461
    73  H    0.056110
    74  H    0.037759
    75  H    0.035397
    76  H    0.034290
    77  H    0.045809
    78  H    0.058355
    79  H    0.038743
    80  H    0.037241
    81  H    0.049138
    82  H    0.070830
    83  H    0.050838
    84  H    0.041975
    85  H    0.050253
    86  H    0.041686
    87  H    0.042705
    88  H    0.040474
    89  H    0.049103
    90  H    0.043062
    91  H    0.036641
    92  H    0.030473
    93  H    0.017728
    94  H    0.040541
    95  H    0.047916
    96  H    0.049440
    97  H    0.065390
    98  H    0.067615
    99  H    0.066783
   100  H    0.051741
   101  H    0.066226
   102  H    0.063304
   103  H    0.039384
   104  H    0.029855
   105  H    0.015043
   106  H    0.048012
   107  H    0.043255
   108  H    0.029202
   109  H    0.014477
   110  H    0.013702
   111  H    0.022042
   112  H    0.013625
   113  H    0.010226
   114  H    0.000202
   115  H    0.027818
   116  H    0.024507
   117  H    0.051843
   118  H    0.012044
   119  H    0.004584
   120  H    0.030774
   121  H    0.034298
   122  H    0.019911
   123  H    0.000976
   124  H    0.007499
   125  H    0.005478
   126  H    0.029729
   127  H    0.034688
   128  H    0.011647
   129  H    0.010258
   130  H    0.017080
   131  H    0.010487
   132  H    0.022626
   133  H    0.016562
   134  H    0.030108
   135  H    0.034729
   136  H    0.022732
   137  H    0.023118
   138  H    0.027966
   139  H    0.034797
   140  H    0.022456
 Sum of Mulliken charges =  -0.00000

 Dipole moment (field-independent basis, Debye):
    X=             -0.9865    Y=              1.9991    Z=             -1.0940  Tot=              2.4832
 Quadrupole moment (field-independent basis, Debye-Ang):
   XX=           -379.8568   YY=           -400.5937   ZZ=           -413.6405
   XY=              1.0645   XZ=              7.2706   YZ=             -2.6181

 Normal termination of Gaussian 16 at Wed May  4 02:58:33 2022.
