 Gaussian 16, Revision A.03,
 Gaussian 16:  ES64L-G16RevA.03 25-Dec-2016

 --------------------
 #p ZINDO=(nstates=5)
 --------------------

 -----------------------------
 step_1251_chromophore_4 ZINDO
 -----------------------------
 Symbolic Z-matrix:
 Charge =  0 Multiplicity = 1

                         Standard orientation:
 ---------------------------------------------------------------------
 Center     Atomic      Atomic             Coordinates (Angstroms)
 Number     Number       Type             X           Y           Z
 ---------------------------------------------------------------------
      1         12           0        6.187947    0.535539   -0.083530
      2          6           0        3.877306   -2.222432    0.154284
      3          6           0        3.544757    2.629203   -0.479366
      4          6           0        8.312754    3.023494   -0.179585
      5          6           0        8.797991   -1.785101    0.303244
      6          7           0        3.936095    0.178637   -0.225985
      7          6           0        3.218131   -0.961834   -0.004065
      8          6           0        1.766267   -0.697639   -0.218492
      9          6           0        1.709587    0.820918   -0.548275
     10          6           0        3.190302    1.289981   -0.324080
     11          6           0        1.232410    1.258649   -1.987599
     12          6           0        0.839080   -1.231345    0.903070
     13          6           0       -0.565262   -0.542759    1.179679
     14          6           0       -1.805525   -1.326208    1.485701
     15          8           0       -2.145710   -1.643709    2.638735
     16          8           0       -2.559710   -1.682559    0.377560
     17          7           0        6.007062    2.471378   -0.290756
     18          6           0        4.832174    3.230858   -0.485811
     19          6           0        5.077694    4.637490   -0.491111
     20          6           0        6.497440    4.732832   -0.362499
     21          6           0        6.992954    3.385063   -0.251543
     22          6           0        4.012837    5.725730   -0.695289
     23          6           0        7.350483    6.021951   -0.416673
     24          8           0        8.572134    6.002175   -0.133257
     25          6           0        6.670306    7.372471   -0.499473
     26          7           0        8.227625    0.652250   -0.015401
     27          6           0        8.891380    1.815273   -0.047967
     28          6           0       10.460001    1.685686   -0.043499
     29          6           0       10.522342    0.149489    0.239973
     30          6           0        9.099195   -0.363243    0.182912
     31          6           0       11.158856    2.021465   -1.530310
     32          6           0       11.098351   -0.169449    1.667031
     33          6           0       12.264708   -1.101750    1.652125
     34          7           0        6.330282   -1.471989    0.117011
     35          6           0        7.476218   -2.266537    0.382819
     36          6           0        7.127721   -3.637463    0.383479
     37          6           0        5.777272   -3.599302    0.305422
     38          6           0        5.316569   -2.313123    0.221447
     39          6           0        8.152517   -4.786368    0.394603
     40          6           0        4.681102   -4.543277    0.169817
     41          8           0        4.648760   -5.743450    0.153803
     42          6           0        3.320576   -3.669881    0.185583
     43          6           0        2.420093   -3.996734   -0.965498
     44          8           0        2.692418   -3.888754   -2.139438
     45          8           0        1.305322   -4.525853   -0.426921
     46          6           0        0.483921   -5.195167   -1.486300
     47          6           0       -3.516112   -2.762306    0.517834
     48          6           0       -4.912385   -2.180660    0.421321
     49          6           0       -6.182057   -2.636843    0.507667
     50          6           0       -6.510317   -4.119651    0.751898
     51          6           0       -7.494946   -1.705117    0.392423
     52          6           0       -7.941485   -1.015947   -0.918941
     53          6           0       -8.342061    0.508359   -0.754300
     54          6           0       -9.758085    0.605150   -0.244589
     55          6           0      -10.700798    0.466545   -1.492361
     56          6           0       -9.985899    1.817952    0.560305
     57          6           0      -10.805142    1.636250    1.835645
     58          6           0      -11.635580    2.884458    1.959405
     59          6           0      -13.166067    2.638557    2.085565
     60          6           0      -13.886187    3.711602    2.961761
     61          6           0      -13.764453    2.310854    0.701526
     62          6           0      -13.988645    0.881892    0.373532
     63          6           0      -15.174026    0.752771   -0.718149
     64          6           0      -14.896029   -0.341316   -1.754735
     65          6           0      -14.282035    0.374935   -3.029507
     66          6           0      -16.183988   -1.171459   -2.044295
     67          1           0        2.615428    3.200809   -0.507715
     68          1           0        9.075052    3.800046   -0.089949
     69          1           0        9.583296   -2.508853    0.530690
     70          1           0        1.340003   -1.325388   -1.001269
     71          1           0        1.202113    1.431114    0.198984
     72          1           0        0.772819    0.345228   -2.363508
     73          1           0        2.042235    1.592534   -2.636959
     74          1           0        0.533315    2.090773   -1.904142
     75          1           0        1.413126   -1.411211    1.811978
     76          1           0        0.561692   -2.266271    0.700356
     77          1           0       -0.819606    0.142165    0.371408
     78          1           0       -0.333548    0.130494    2.005595
     79          1           0        4.035205    6.616708   -0.066732
     80          1           0        3.003508    5.331012   -0.584593
     81          1           0        4.136865    6.154951   -1.690017
     82          1           0        6.128277    7.551215    0.429282
     83          1           0        6.126941    7.565225   -1.424178
     84          1           0        7.372535    8.206390   -0.505710
     85          1           0       10.908648    2.242386    0.780047
     86          1           0       11.001410   -0.459472   -0.526820
     87          1           0       11.620321    1.139412   -1.973689
     88          1           0       11.944619    2.773222   -1.457424
     89          1           0       10.435477    2.492668   -2.195580
     90          1           0       10.320053   -0.648983    2.260764
     91          1           0       11.460657    0.721729    2.180651
     92          1           0       13.171318   -0.505928    1.763941
     93          1           0       12.472435   -1.579590    0.694165
     94          1           0       12.255595   -1.934386    2.355715
     95          1           0        8.671459   -4.742857   -0.563203
     96          1           0        7.613928   -5.721033    0.234567
     97          1           0        8.775950   -4.772032    1.288262
     98          1           0        2.678474   -3.844346    1.048353
     99          1           0        0.015791   -4.504607   -2.188200
    100          1           0       -0.267543   -5.796571   -0.974626
    101          1           0        1.111875   -5.932044   -1.987470
    102          1           0       -3.404595   -3.458464    1.349156
    103          1           0       -3.324396   -3.397032   -0.347215
    104          1           0       -4.824087   -1.095830    0.480078
    105          1           0       -5.680298   -4.676177    1.186964
    106          1           0       -6.695502   -4.709897   -0.146155
    107          1           0       -7.320101   -4.253816    1.469127
    108          1           0       -7.418757   -0.956079    1.180996
    109          1           0       -8.332065   -2.257337    0.817627
    110          1           0       -8.800181   -1.466431   -1.416677
    111          1           0       -7.177823   -1.106038   -1.691257
    112          1           0       -8.279882    1.042923   -1.702181
    113          1           0       -7.704279    0.991630   -0.013453
    114          1           0       -9.762299   -0.296511    0.367391
    115          1           0      -10.159515    0.256114   -2.413283
    116          1           0      -11.158520    1.447584   -1.624451
    117          1           0      -11.452926   -0.320731   -1.436359
    118          1           0      -10.255190    2.592439   -0.157849
    119          1           0       -9.024990    2.095422    0.994185
    120          1           0      -10.033821    1.538934    2.599377
    121          1           0      -11.448267    0.759718    1.748781
    122          1           0      -11.536370    3.652094    1.192044
    123          1           0      -11.364015    3.382048    2.890313
    124          1           0      -13.177285    1.749141    2.715518
    125          1           0      -13.109730    4.425436    3.238576
    126          1           0      -14.127082    3.287517    3.936272
    127          1           0      -14.673490    4.299870    2.491669
    128          1           0      -13.124162    2.630739   -0.121201
    129          1           0      -14.716220    2.841547    0.700097
    130          1           0      -14.340509    0.383989    1.277087
    131          1           0      -13.033743    0.461804    0.060410
    132          1           0      -15.410250    1.676842   -1.245627
    133          1           0      -16.029379    0.554615   -0.072115
    134          1           0      -14.189961   -1.034848   -1.298442
    135          1           0      -13.197017    0.266655   -3.033759
    136          1           0      -14.405871    1.457170   -3.085695
    137          1           0      -14.838877    0.023549   -3.897326
    138          1           0      -17.029529   -0.704809   -1.538785
    139          1           0      -16.047594   -2.170305   -1.629016
    140          1           0      -16.296927   -1.150944   -3.127940
 ---------------------------------------------------------------------

 SCF Done:  E(RZINDO/S) =  -474.321655412     A.U. after   19 cycles

 Excitation energies and oscillator strengths:

 Excited State   1:      Singlet-A      1.2747 eV  972.68 nm  f=0.5728  <S**2>=0.000
     175 ->178         0.19587
     176 ->177         0.66243
 This state for optimization and/or second-order correction.
 Total Energy, E(CIS/TDA) =  -474.274812542
 Copying the excited state density for this state as the 1-particle RhoCI density.

 Excited State   2:      Singlet-A      1.9492 eV  636.08 nm  f=0.0345  <S**2>=0.000
     175 ->177         0.53222
     176 ->178        -0.44323

 Excited State   3:      Singlet-A      2.9141 eV  425.46 nm  f=0.0007  <S**2>=0.000
     170 ->177         0.25141
     170 ->178        -0.13039
     170 ->179         0.35987
     170 ->181         0.39155
     170 ->185         0.17184
     170 ->187        -0.14898

 Excited State   4:      Singlet-A      2.9819 eV  415.79 nm  f=0.0032  <S**2>=0.000
     168 ->177         0.33258
     168 ->179        -0.35757
     168 ->181         0.28441
     168 ->182         0.11845
     168 ->185        -0.20622
     171 ->177        -0.15541
     171 ->179         0.11119

 Excited State   5:      Singlet-A      3.0406 eV  407.76 nm  f=1.3577  <S**2>=0.000
     175 ->177         0.42394
     176 ->178         0.52008
     176 ->181        -0.11538

 The electronic state is 1-A.
 Alpha  occ. eigenvalues --   -1.86938  -1.83353  -1.80622  -1.74479  -1.72537
 Alpha  occ. eigenvalues --   -1.71326  -1.69228  -1.61288  -1.59113  -1.55933
 Alpha  occ. eigenvalues --   -1.54830  -1.50120  -1.48903  -1.48574  -1.45873
 Alpha  occ. eigenvalues --   -1.44876  -1.43863  -1.39643  -1.39193  -1.38374
 Alpha  occ. eigenvalues --   -1.35147  -1.34344  -1.33538  -1.30872  -1.27954
 Alpha  occ. eigenvalues --   -1.26921  -1.25433  -1.21906  -1.20682  -1.18464
 Alpha  occ. eigenvalues --   -1.17805  -1.16325  -1.15830  -1.14170  -1.13293
 Alpha  occ. eigenvalues --   -1.11298  -1.11142  -1.10730  -1.05909  -1.04133
 Alpha  occ. eigenvalues --   -1.02988  -1.01847  -1.00302  -0.98637  -0.97402
 Alpha  occ. eigenvalues --   -0.96310  -0.95894  -0.94314  -0.92833  -0.92414
 Alpha  occ. eigenvalues --   -0.90744  -0.90692  -0.88674  -0.87669  -0.87107
 Alpha  occ. eigenvalues --   -0.86244  -0.84387  -0.82747  -0.82292  -0.80643
 Alpha  occ. eigenvalues --   -0.80367  -0.78818  -0.78648  -0.76912  -0.76045
 Alpha  occ. eigenvalues --   -0.75919  -0.75380  -0.74378  -0.73998  -0.72589
 Alpha  occ. eigenvalues --   -0.72493  -0.72024  -0.71577  -0.71059  -0.70315
 Alpha  occ. eigenvalues --   -0.69807  -0.69055  -0.68277  -0.67909  -0.67524
 Alpha  occ. eigenvalues --   -0.67124  -0.66931  -0.66433  -0.65816  -0.65768
 Alpha  occ. eigenvalues --   -0.65440  -0.65190  -0.65113  -0.64131  -0.63938
 Alpha  occ. eigenvalues --   -0.63410  -0.62562  -0.62201  -0.61806  -0.61615
 Alpha  occ. eigenvalues --   -0.60978  -0.60720  -0.60286  -0.59672  -0.59422
 Alpha  occ. eigenvalues --   -0.59082  -0.58641  -0.58211  -0.58056  -0.57910
 Alpha  occ. eigenvalues --   -0.57797  -0.57541  -0.56976  -0.56694  -0.56498
 Alpha  occ. eigenvalues --   -0.56188  -0.55977  -0.55806  -0.55444  -0.55044
 Alpha  occ. eigenvalues --   -0.54839  -0.54469  -0.53679  -0.53315  -0.53075
 Alpha  occ. eigenvalues --   -0.53022  -0.52163  -0.51903  -0.51650  -0.51529
 Alpha  occ. eigenvalues --   -0.51477  -0.51347  -0.51170  -0.51024  -0.50497
 Alpha  occ. eigenvalues --   -0.50220  -0.49764  -0.49524  -0.49408  -0.49152
 Alpha  occ. eigenvalues --   -0.48894  -0.48401  -0.48133  -0.48089  -0.47870
 Alpha  occ. eigenvalues --   -0.47565  -0.47395  -0.46941  -0.46637  -0.46356
 Alpha  occ. eigenvalues --   -0.46275  -0.46136  -0.46010  -0.45591  -0.45375
 Alpha  occ. eigenvalues --   -0.44841  -0.44495  -0.44137  -0.44015  -0.43746
 Alpha  occ. eigenvalues --   -0.43297  -0.43050  -0.42577  -0.42369  -0.41948
 Alpha  occ. eigenvalues --   -0.41694  -0.41082  -0.40007  -0.39247  -0.39184
 Alpha  occ. eigenvalues --   -0.38540  -0.37019  -0.35553  -0.35292  -0.34918
 Alpha  occ. eigenvalues --   -0.34110  -0.32798  -0.32576  -0.32314  -0.26767
 Alpha  occ. eigenvalues --   -0.21870
 Alpha virt. eigenvalues --   -0.08453  -0.02216  -0.00403   0.01080   0.01317
 Alpha virt. eigenvalues --    0.02324   0.02996   0.03733   0.04388   0.04585
 Alpha virt. eigenvalues --    0.06119   0.06483   0.07383   0.07686   0.08067

 Mulliken charges:
               1
     1  Mg   0.423706
     2  C   -0.070732
     3  C   -0.076255
     4  C   -0.049795
     5  C   -0.079648
     6  N   -0.283025
     7  C    0.141951
     8  C    0.018583
     9  C   -0.008195
    10  C    0.102706
    11  C   -0.050146
    12  C   -0.024093
    13  C    0.006455
    14  C    0.476165
    15  O   -0.519876
    16  O   -0.269945
    17  N   -0.319900
    18  C    0.082699
    19  C   -0.009666
    20  C   -0.058374
    21  C    0.146688
    22  C   -0.042325
    23  C    0.320569
    24  O   -0.533925
    25  C   -0.029799
    26  N   -0.249776
    27  C    0.114556
    28  C   -0.010741
    29  C    0.001191
    30  C    0.150578
    31  C   -0.058877
    32  C   -0.023897
    33  C   -0.058323
    34  N   -0.329537
    35  C    0.096472
    36  C    0.043775
    37  C   -0.026005
    38  C    0.145844
    39  C   -0.042311
    40  C    0.331992
    41  O   -0.495680
    42  C    0.042102
    43  C    0.491935
    44  O   -0.519008
    45  O   -0.262542
    46  C    0.071795
    47  C    0.121433
    48  C   -0.068450
    49  C   -0.013613
    50  C   -0.047478
    51  C   -0.022194
    52  C   -0.029281
    53  C   -0.036595
    54  C   -0.013284
    55  C   -0.062367
    56  C   -0.034404
    57  C   -0.029632
    58  C   -0.033000
    59  C   -0.022070
    60  C   -0.064153
    61  C   -0.029182
    62  C   -0.041244
    63  C   -0.041698
    64  C   -0.017422
    65  C   -0.063985
    66  C   -0.062602
    67  H    0.025256
    68  H    0.039050
    69  H    0.039871
    70  H    0.041091
    71  H    0.026368
    72  H    0.022939
    73  H    0.032651
    74  H    0.021689
    75  H    0.026279
    76  H    0.016835
    77  H    0.031984
    78  H    0.034606
    79  H    0.027275
    80  H    0.022055
    81  H    0.026805
    82  H    0.044294
    83  H    0.035521
    84  H    0.025395
    85  H    0.047167
    86  H    0.037889
    87  H    0.026175
    88  H    0.021200
    89  H    0.030155
    90  H    0.023078
    91  H    0.026734
    92  H    0.013758
    93  H    0.011003
    94  H    0.021700
    95  H    0.033857
    96  H    0.031615
    97  H    0.042544
    98  H    0.055771
    99  H    0.050679
   100  H    0.026292
   101  H    0.048298
   102  H    0.062415
   103  H    0.032065
   104  H    0.023833
   105  H    0.012380
   106  H    0.028491
   107  H    0.026443
   108  H    0.022251
   109  H    0.016222
   110  H    0.020295
   111  H    0.011746
   112  H    0.016812
   113  H    0.015314
   114  H    0.018707
   115  H    0.016577
   116  H    0.018666
   117  H    0.020861
   118  H    0.026102
   119  H    0.007399
   120  H    0.027807
   121  H    0.026951
   122  H    0.022113
   123  H    0.004544
   124  H    0.011788
   125  H    0.009511
   126  H    0.022429
   127  H    0.028709
   128  H    0.019355
   129  H    0.014227
   130  H    0.016232
   131  H    0.026761
   132  H    0.024096
   133  H    0.012001
   134  H    0.021984
   135  H    0.023505
   136  H    0.017051
   137  H    0.022490
   138  H    0.022308
   139  H    0.021027
   140  H    0.024504
 Sum of Mulliken charges =  -0.00000

 Dipole moment (field-independent basis, Debye):
    X=             -1.6732    Y=              1.3744    Z=             -0.5107  Tot=              2.2247
 N-N= 4.220187624966D+03 E-N= 0.000000000000D+00  KE=-9.114559463396D+03
 Leave Link  601 at Wed May  4 03:10:03 2022, MaxMem=  6710886400 cpu:               0.8 elap:               0.0
 (Enter /sw/apps/gaussian-16.0/g16/l9999.exe)
 1\1\GINC-BP1-COMPUTE096\SP\RZINDO CIS\STO-3G\C55H74Mg1N4O6\OF15641\04-
 May-2022\0\\#p ZINDO=(nstates=5)\\step_1251_chromophore_4 ZINDO\\0,1\M
 g,0,8.901,2.703,27.495\C,0,10.415,1.063,30.327\C,0,7.724,5.097,29.595\
 C,0,7.64,4.22,24.883\C,0,10.171,0.118,25.482\N,0,9.015,2.969,29.761\C,
 0,9.743,2.275,30.685\C,0,9.489,2.824,32.048\C,0,8.527,4.019,31.794\C,0
 ,8.466,4.101,30.228\C,0,7.061,3.938,32.373\C,0,10.765,3.086,32.888\C,0
 ,10.763,4.192,34.028\C,0,11.429,3.989,35.355\O,0,12.616,4.286,35.576\O

 Normal termination of Gaussian 16 at Wed May  4 03:10:03 2022.
