 Gaussian 16, Revision A.03,
 Gaussian 16:  ES64L-G16RevA.03 25-Dec-2016

 ------------------------------
 #p blyp/Def2SVP td=(nstates=5)
 ------------------------------

 ---------------------------------------------------
 step_1001_chromophore_26 TDDFT with blyp functional
 ---------------------------------------------------
 Symbolic Z-matrix:
 Charge =  0 Multiplicity = 1

                         Standard orientation:
 ---------------------------------------------------------------------
 Center     Atomic      Atomic             Coordinates (Angstroms)
 Number     Number       Type             X           Y           Z
 ---------------------------------------------------------------------
      1         12           0       -3.663476    1.552363    0.782771
      2          6           0       -5.227549   -1.635568    0.019551
      3          6           0       -2.214612    0.062371    3.408298
      4          6           0       -1.715149    4.300045    1.040573
      5          6           0       -4.740543    2.694783   -2.409760
      6          7           0       -3.911235   -0.508926    1.632671
      7          6           0       -4.527645   -1.683778    1.227870
      8          6           0       -4.240772   -2.926498    2.055220
      9          6           0       -3.427110   -2.300330    3.242991
     10          6           0       -3.236022   -0.765950    2.781890
     11          6           0       -4.089205   -2.318659    4.690403
     12          6           0       -3.552146   -4.130325    1.257449
     13          6           0       -2.419730   -3.805346    0.203248
     14          6           0       -1.170969   -4.786908    0.236837
     15          8           0       -1.191987   -5.942405   -0.095166
     16          8           0        0.019430   -4.124792    0.453904
     17          7           0       -2.165357    2.160209    2.159292
     18          6           0       -1.695057    1.367422    3.166631
     19          6           0       -0.633350    2.131428    3.875081
     20          6           0       -0.640805    3.451632    3.346576
     21          6           0       -1.509706    3.373073    2.106698
     22          6           0        0.121172    1.574203    5.017143
     23          6           0        0.221920    4.566039    3.817952
     24          8           0        0.881811    4.427548    4.820742
     25          6           0        0.297569    5.828644    3.093031
     26          7           0       -3.325799    3.243681   -0.511877
     27          6           0       -2.423973    4.250944   -0.155411
     28          6           0       -2.415224    5.383625   -1.177183
     29          6           0       -3.372224    4.831617   -2.277637
     30          6           0       -3.918293    3.580712   -1.656361
     31          6           0       -2.609138    6.796158   -0.654654
     32          6           0       -2.637194    4.442473   -3.613319
     33          6           0       -3.037094    5.315980   -4.800328
     34          7           0       -4.667790    0.704129   -0.956260
     35          6           0       -5.029322    1.312811   -2.107924
     36          6           0       -5.796349    0.393143   -2.908958
     37          6           0       -5.911254   -0.731492   -2.107451
     38          6           0       -5.230523   -0.522568   -0.917231
     39          6           0       -6.356649    0.681569   -4.319653
     40          6           0       -6.553379   -1.958189   -2.063325
     41          8           0       -7.372727   -2.521025   -2.843543
     42          6           0       -6.166025   -2.742152   -0.726849
     43          6           0       -7.322536   -3.268000    0.082151
     44          8           0       -7.589200   -4.449379    0.070243
     45          8           0       -8.076826   -2.272721    0.634480
     46          6           0       -9.157125   -2.759370    1.306085
     47          6           0        1.233440   -4.888300    0.123002
     48          6           0        2.303972   -3.981416   -0.389787
     49          6           0        2.453358   -3.541828   -1.670218
     50          6           0        1.389852   -3.844859   -2.739218
     51          6           0        3.619446   -2.736832   -2.194713
     52          6           0        3.414394   -1.191004   -2.343152
     53          6           0        4.245600   -0.385207   -3.347426
     54          6           0        5.250506    0.575532   -2.765417
     55          6           0        5.707286    1.675791   -3.742495
     56          6           0        6.463164   -0.223753   -2.074712
     57          6           0        7.052932    0.608850   -0.895439
     58          6           0        7.755838   -0.262739    0.194477
     59          6           0        9.256048    0.049704    0.488124
     60          6           0        9.349513    1.202907    1.534922
     61          6           0       10.034622   -1.196807    0.852312
     62          6           0       11.502596   -0.733765    1.102941
     63          6           0       12.541179   -1.502157    0.226998
     64          6           0       13.931852   -0.712078    0.216700
     65          6           0       13.784823    0.568378   -0.568785
     66          6           0       15.200927   -1.408246   -0.280802
     67          1           0       -1.831114   -0.359294    4.339253
     68          1           0       -1.157635    5.236939    1.093691
     69          1           0       -4.966575    3.000502   -3.433806
     70          1           0       -5.183071   -3.380914    2.361161
     71          1           0       -2.489762   -2.835232    3.394942
     72          1           0       -4.359390   -1.299609    4.962972
     73          1           0       -3.340575   -2.662279    5.403481
     74          1           0       -4.878757   -3.063866    4.793871
     75          1           0       -4.266566   -4.787072    0.761171
     76          1           0       -3.064998   -4.658597    2.076169
     77          1           0       -2.068086   -2.774548    0.172337
     78          1           0       -2.723717   -3.892550   -0.839585
     79          1           0        1.208380    1.587262    4.940465
     80          1           0       -0.309445    0.585401    5.174054
     81          1           0       -0.046858    2.101363    5.956371
     82          1           0       -0.697736    6.136416    2.771725
     83          1           0        0.831413    5.745494    2.146236
     84          1           0        0.739639    6.677272    3.614339
     85          1           0       -1.383378    5.439652   -1.526217
     86          1           0       -4.261113    5.404463   -2.540767
     87          1           0       -3.388488    7.250040   -1.266498
     88          1           0       -1.665871    7.323906   -0.795651
     89          1           0       -2.777386    7.026377    0.397312
     90          1           0       -2.841132    3.407419   -3.887128
     91          1           0       -1.555058    4.498740   -3.498481
     92          1           0       -2.242961    6.004062   -5.090013
     93          1           0       -3.869218    5.941619   -4.477758
     94          1           0       -3.340111    4.810785   -5.717602
     95          1           0       -7.353990    0.243256   -4.282056
     96          1           0       -5.814167    0.221476   -5.145034
     97          1           0       -6.378101    1.745423   -4.556489
     98          1           0       -5.703250   -3.699043   -0.966459
     99          1           0       -9.002760   -3.714712    1.807774
    100          1           0       -9.980326   -2.946914    0.615320
    101          1           0       -9.695984   -2.082490    1.968750
    102          1           0        1.020222   -5.748325   -0.513089
    103          1           0        1.612343   -5.312534    1.052822
    104          1           0        3.120858   -3.747727    0.293449
    105          1           0        1.627626   -4.802904   -3.199355
    106          1           0        1.372804   -3.079697   -3.514410
    107          1           0        0.419071   -3.803000   -2.244821
    108          1           0        3.985894   -3.266915   -3.074161
    109          1           0        4.399565   -2.914749   -1.453794
    110          1           0        3.548485   -0.800266   -1.334890
    111          1           0        2.335695   -1.103501   -2.469594
    112          1           0        3.545517    0.140572   -3.997107
    113          1           0        4.826123   -1.008928   -4.026839
    114          1           0        4.737816    1.134713   -1.982755
    115          1           0        6.720678    2.014785   -3.525007
    116          1           0        5.011357    2.500778   -3.590864
    117          1           0        5.596588    1.349340   -4.776014
    118          1           0        7.216121   -0.253579   -2.862661
    119          1           0        6.265635   -1.205578   -1.642734
    120          1           0        6.261240    1.123106   -0.350419
    121          1           0        7.811489    1.337758   -1.179331
    122          1           0        7.663865   -1.326429   -0.022819
    123          1           0        7.164257   -0.147633    1.102656
    124          1           0        9.686258    0.330603   -0.472913
    125          1           0        8.396666    1.708043    1.693815
    126          1           0       10.124170    1.924685    1.277768
    127          1           0        9.766313    0.813160    2.464096
    128          1           0        9.896973   -1.846786   -0.012823
    129          1           0        9.655073   -1.774438    1.694889
    130          1           0       11.775599   -1.224014    2.037341
    131          1           0       11.686549    0.334177    1.215753
    132          1           0       12.241356   -1.665530   -0.808284
    133          1           0       12.736152   -2.482844    0.660412
    134          1           0       14.117293   -0.469916    1.263554
    135          1           0       12.932806    0.639483   -1.243801
    136          1           0       14.674859    0.819494   -1.146661
    137          1           0       13.587601    1.320264    0.195721
    138          1           0       15.816491   -0.984129   -1.074034
    139          1           0       14.955394   -2.399429   -0.661780
    140          1           0       15.702282   -1.566949    0.673837
 ---------------------------------------------------------------------

 SCF Done:  E(RB-LYP) =  -3007.37142891     A.U. after   21 cycles

 Excitation energies and oscillator strengths:

 Excited State   1:      Singlet-A      1.6678 eV  743.41 nm  f=0.0043  <S**2>=0.000
     244 -> 247        0.70079
 This state for optimization and/or second-order correction.
 Total Energy, E(TD-HF/TD-DFT) =  -3007.31013914
 Copying the excited state density for this state as the 1-particle RhoCI density.

 Excited State   2:      Singlet-A      1.7932 eV  691.40 nm  f=0.2720  <S**2>=0.000
     245 -> 248       -0.19427
     246 -> 247        0.67796
     246 <- 247       -0.14810

 Excited State   3:      Singlet-A      1.8839 eV  658.11 nm  f=0.0078  <S**2>=0.000
     243 -> 247        0.69239
     245 -> 247        0.11050

 Excited State   4:      Singlet-A      2.0153 eV  615.23 nm  f=0.0773  <S**2>=0.000
     243 -> 247       -0.11327
     245 -> 247        0.63598
     246 -> 248        0.25650

 Excited State   5:      Singlet-A      2.2538 eV  550.11 nm  f=0.0002  <S**2>=0.000
     242 -> 247        0.70694

 The electronic state is 1-A.
 Alpha  occ. eigenvalues --  -46.29270 -18.82819 -18.81367 -18.76892 -18.76546
 Alpha  occ. eigenvalues --  -18.75391 -18.74976 -14.04540 -14.03890 -14.02061
 Alpha  occ. eigenvalues --  -14.01086 -10.03813 -10.03789  -9.99639  -9.99111
 Alpha  occ. eigenvalues --   -9.98118  -9.97363  -9.97256  -9.97189  -9.97112
 Alpha  occ. eigenvalues --   -9.96847  -9.96668  -9.96592  -9.95682  -9.95328
 Alpha  occ. eigenvalues --   -9.95303  -9.95023  -9.95013  -9.94727  -9.94713
 Alpha  occ. eigenvalues --   -9.94531  -9.94442  -9.94136  -9.94098  -9.93992
 Alpha  occ. eigenvalues --   -9.93647  -9.93525  -9.93332  -9.93325  -9.93289
 Alpha  occ. eigenvalues --   -9.93229  -9.93203  -9.92999  -9.92693  -9.92344
 Alpha  occ. eigenvalues --   -9.92167  -9.92108  -9.92088  -9.92040  -9.92019
 Alpha  occ. eigenvalues --   -9.91851  -9.91677  -9.91672  -9.91572  -9.91561
 Alpha  occ. eigenvalues --   -9.91496  -9.91395  -9.91323  -9.91261  -9.91075
 Alpha  occ. eigenvalues --   -9.91041  -9.90832  -9.90830  -9.90505  -9.90392
 Alpha  occ. eigenvalues --   -9.90082  -2.93599  -1.74030  -1.73473  -1.73316
 Alpha  occ. eigenvalues --   -1.00113  -0.97630  -0.92576  -0.91452  -0.89711
 Alpha  occ. eigenvalues --   -0.88847  -0.87245  -0.86595  -0.86054  -0.85214
 Alpha  occ. eigenvalues --   -0.74545  -0.73435  -0.73300  -0.72881  -0.72543
 Alpha  occ. eigenvalues --   -0.72309  -0.71934  -0.70926  -0.70806  -0.70196
 Alpha  occ. eigenvalues --   -0.69816  -0.68762  -0.68229  -0.67848  -0.67421
 Alpha  occ. eigenvalues --   -0.66882  -0.66564  -0.65505  -0.65109  -0.64654
 Alpha  occ. eigenvalues --   -0.63955  -0.62920  -0.62608  -0.62021  -0.61014
 Alpha  occ. eigenvalues --   -0.60653  -0.60394  -0.59938  -0.59590  -0.58880
 Alpha  occ. eigenvalues --   -0.58420  -0.57900  -0.56917  -0.56178  -0.54959
 Alpha  occ. eigenvalues --   -0.54695  -0.54144  -0.53352  -0.52951  -0.52696
 Alpha  occ. eigenvalues --   -0.51507  -0.51291  -0.50921  -0.50461  -0.50429
 Alpha  occ. eigenvalues --   -0.49305  -0.49169  -0.48953  -0.48695  -0.46823
 Alpha  occ. eigenvalues --   -0.46281  -0.45885  -0.45634  -0.45486  -0.44716
 Alpha  occ. eigenvalues --   -0.44041  -0.43853  -0.43323  -0.43044  -0.42765
 Alpha  occ. eigenvalues --   -0.42709  -0.42029  -0.42003  -0.41614  -0.41417
 Alpha  occ. eigenvalues --   -0.40939  -0.40647  -0.40507  -0.40463  -0.40111
 Alpha  occ. eigenvalues --   -0.39967  -0.39732  -0.39462  -0.39296  -0.39133
 Alpha  occ. eigenvalues --   -0.38984  -0.38961  -0.38852  -0.38525  -0.38310
 Alpha  occ. eigenvalues --   -0.38105  -0.37868  -0.37837  -0.37481  -0.37355
 Alpha  occ. eigenvalues --   -0.37190  -0.37152  -0.37003  -0.36824  -0.36597
 Alpha  occ. eigenvalues --   -0.36231  -0.36080  -0.35953  -0.35918  -0.35638
 Alpha  occ. eigenvalues --   -0.35547  -0.35177  -0.35058  -0.34837  -0.34744
 Alpha  occ. eigenvalues --   -0.34696  -0.34517  -0.34452  -0.34349  -0.34155
 Alpha  occ. eigenvalues --   -0.34101  -0.33780  -0.33566  -0.33439  -0.33178
 Alpha  occ. eigenvalues --   -0.32978  -0.32936  -0.32569  -0.32496  -0.32253
 Alpha  occ. eigenvalues --   -0.32203  -0.32045  -0.31840  -0.31522  -0.31403
 Alpha  occ. eigenvalues --   -0.31313  -0.31049  -0.30803  -0.30680  -0.30575
 Alpha  occ. eigenvalues --   -0.30533  -0.30414  -0.30209  -0.30129  -0.30082
 Alpha  occ. eigenvalues --   -0.29892  -0.29793  -0.29705  -0.29573  -0.29453
 Alpha  occ. eigenvalues --   -0.29209  -0.28980  -0.28852  -0.28690  -0.28293
 Alpha  occ. eigenvalues --   -0.28033  -0.27102  -0.26917  -0.26590  -0.26538
 Alpha  occ. eigenvalues --   -0.26532  -0.26400  -0.26198  -0.25756  -0.25364
 Alpha  occ. eigenvalues --   -0.24858  -0.24508  -0.24485  -0.24162  -0.23944
 Alpha  occ. eigenvalues --   -0.23688  -0.22574  -0.22341  -0.21978  -0.21110
 Alpha  occ. eigenvalues --   -0.20769  -0.20311  -0.18881  -0.18068  -0.17777
 Alpha  occ. eigenvalues --   -0.16257
 Alpha virt. eigenvalues --   -0.12030  -0.07606  -0.06685  -0.05146  -0.03720
 Alpha virt. eigenvalues --   -0.03337  -0.02977  -0.02346  -0.01939  -0.00335
 Alpha virt. eigenvalues --    0.00124   0.00993   0.01948   0.02604   0.02811

 Mulliken charges:
               1
     1  Mg   0.690267
     2  C    0.022367
     3  C   -0.036937
     4  C   -0.028103
     5  C   -0.064709
     6  N   -0.205215
     7  C   -0.118181
     8  C    0.097158
     9  C   -0.042931
    10  C    0.044223
    11  C    0.104001
    12  C    0.092648
    13  C    0.102403
    14  C    0.062348
    15  O   -0.177253
    16  O   -0.276576
    17  N   -0.300431
    18  C    0.115458
    19  C   -0.123558
    20  C    0.039816
    21  C    0.126082
    22  C    0.194365
    23  C   -0.090400
    24  O   -0.152101
    25  C    0.136610
    26  N   -0.210653
    27  C   -0.019541
    28  C    0.060272
    29  C    0.040385
    30  C   -0.004828
    31  C    0.127326
    32  C    0.078189
    33  C    0.060709
    34  N   -0.205419
    35  C    0.069443
    36  C   -0.163841
    37  C    0.166158
    38  C    0.040634
    39  C    0.158285
    40  C   -0.066520
    41  O   -0.176946
    42  C    0.080066
    43  C    0.054059
    44  O   -0.163083
    45  O   -0.217156
    46  C    0.224569
    47  C    0.318729
    48  C   -0.081070
    49  C   -0.202339
    50  C    0.136848
    51  C    0.136781
    52  C    0.091875
    53  C    0.158252
    54  C   -0.094358
    55  C    0.116610
    56  C    0.092950
    57  C    0.070570
    58  C    0.078794
    59  C   -0.101717
    60  C    0.126240
    61  C    0.120811
    62  C    0.064542
    63  C    0.092330
    64  C   -0.125449
    65  C    0.099630
    66  C    0.125014
    67  H   -0.054105
    68  H   -0.095637
    69  H   -0.051636
    70  H   -0.020923
    71  H   -0.008159
    72  H    0.007753
    73  H   -0.010284
    74  H   -0.003429
    75  H    0.019718
    76  H   -0.005573
    77  H   -0.006371
    78  H    0.005508
    79  H    0.008987
    80  H   -0.035317
    81  H    0.001493
    82  H    0.004075
    83  H    0.011285
    84  H   -0.010473
    85  H   -0.015824
    86  H   -0.015720
    87  H   -0.006283
    88  H   -0.021120
    89  H   -0.001724
    90  H   -0.007271
    91  H   -0.023676
    92  H   -0.011102
    93  H   -0.020515
    94  H   -0.002557
    95  H    0.015959
    96  H    0.007834
    97  H   -0.016483
    98  H   -0.008249
    99  H    0.000971
   100  H   -0.013093
   101  H   -0.008746
   102  H    0.008013
   103  H   -0.022865
   104  H   -0.046122
   105  H    0.012842
   106  H   -0.013203
   107  H    0.003542
   108  H   -0.026337
   109  H   -0.038269
   110  H   -0.031044
   111  H   -0.034527
   112  H   -0.046778
   113  H   -0.037761
   114  H   -0.040406
   115  H   -0.011183
   116  H   -0.019103
   117  H   -0.016467
   118  H   -0.028945
   119  H   -0.013513
   120  H   -0.033422
   121  H   -0.026845
   122  H   -0.050916
   123  H   -0.042834
   124  H   -0.035396
   125  H   -0.008488
   126  H   -0.017194
   127  H   -0.019271
   128  H   -0.032415
   129  H   -0.034601
   130  H   -0.036712
   131  H   -0.018355
   132  H   -0.031628
   133  H   -0.037535
   134  H   -0.037421
   135  H   -0.017178
   136  H   -0.019238
   137  H   -0.019401
   138  H   -0.005450
   139  H   -0.034039
   140  H   -0.017352
 Sum of Mulliken charges =  -0.00000

 Dipole moment (field-independent basis, Debye):
    X=              2.2557    Y=              6.3983    Z=              0.2150  Tot=              6.7877
 Quadrupole moment (field-independent basis, Debye-Ang):
   XX=           -428.6779   YY=           -416.0048   ZZ=           -406.0955
   XY=            -42.2497   XZ=            -29.8862   YZ=            -34.9880

 Normal termination of Gaussian 16 at Tue Apr 26 22:37:01 2022.
