 Gaussian 16, Revision A.03,
 Gaussian 16:  ES64L-G16RevA.03 25-Dec-2016

 -----------------------------------
 #p cam-b3lyp/Def2SVP td=(nstates=5)
 -----------------------------------

 --------------------------------------------------------
 step_1001_chromophore_26 TDDFT with cam-b3lyp functional
 --------------------------------------------------------
 Symbolic Z-matrix:
 Charge =  0 Multiplicity = 1

                         Standard orientation:
 ---------------------------------------------------------------------
 Center     Atomic      Atomic             Coordinates (Angstroms)
 Number     Number       Type             X           Y           Z
 ---------------------------------------------------------------------
      1         12           0       -3.663476    1.552363    0.782771
      2          6           0       -5.227549   -1.635568    0.019551
      3          6           0       -2.214612    0.062371    3.408298
      4          6           0       -1.715149    4.300045    1.040573
      5          6           0       -4.740543    2.694783   -2.409760
      6          7           0       -3.911235   -0.508926    1.632671
      7          6           0       -4.527645   -1.683778    1.227870
      8          6           0       -4.240772   -2.926498    2.055220
      9          6           0       -3.427110   -2.300330    3.242991
     10          6           0       -3.236022   -0.765950    2.781890
     11          6           0       -4.089205   -2.318659    4.690403
     12          6           0       -3.552146   -4.130325    1.257449
     13          6           0       -2.419730   -3.805346    0.203248
     14          6           0       -1.170969   -4.786908    0.236837
     15          8           0       -1.191987   -5.942405   -0.095166
     16          8           0        0.019430   -4.124792    0.453904
     17          7           0       -2.165357    2.160209    2.159292
     18          6           0       -1.695057    1.367422    3.166631
     19          6           0       -0.633350    2.131428    3.875081
     20          6           0       -0.640805    3.451632    3.346576
     21          6           0       -1.509706    3.373073    2.106698
     22          6           0        0.121172    1.574203    5.017143
     23          6           0        0.221920    4.566039    3.817952
     24          8           0        0.881811    4.427548    4.820742
     25          6           0        0.297569    5.828644    3.093031
     26          7           0       -3.325799    3.243681   -0.511877
     27          6           0       -2.423973    4.250944   -0.155411
     28          6           0       -2.415224    5.383625   -1.177183
     29          6           0       -3.372224    4.831617   -2.277637
     30          6           0       -3.918293    3.580712   -1.656361
     31          6           0       -2.609138    6.796158   -0.654654
     32          6           0       -2.637194    4.442473   -3.613319
     33          6           0       -3.037094    5.315980   -4.800328
     34          7           0       -4.667790    0.704129   -0.956260
     35          6           0       -5.029322    1.312811   -2.107924
     36          6           0       -5.796349    0.393143   -2.908958
     37          6           0       -5.911254   -0.731492   -2.107451
     38          6           0       -5.230523   -0.522568   -0.917231
     39          6           0       -6.356649    0.681569   -4.319653
     40          6           0       -6.553379   -1.958189   -2.063325
     41          8           0       -7.372727   -2.521025   -2.843543
     42          6           0       -6.166025   -2.742152   -0.726849
     43          6           0       -7.322536   -3.268000    0.082151
     44          8           0       -7.589200   -4.449379    0.070243
     45          8           0       -8.076826   -2.272721    0.634480
     46          6           0       -9.157125   -2.759370    1.306085
     47          6           0        1.233440   -4.888300    0.123002
     48          6           0        2.303972   -3.981416   -0.389787
     49          6           0        2.453358   -3.541828   -1.670218
     50          6           0        1.389852   -3.844859   -2.739218
     51          6           0        3.619446   -2.736832   -2.194713
     52          6           0        3.414394   -1.191004   -2.343152
     53          6           0        4.245600   -0.385207   -3.347426
     54          6           0        5.250506    0.575532   -2.765417
     55          6           0        5.707286    1.675791   -3.742495
     56          6           0        6.463164   -0.223753   -2.074712
     57          6           0        7.052932    0.608850   -0.895439
     58          6           0        7.755838   -0.262739    0.194477
     59          6           0        9.256048    0.049704    0.488124
     60          6           0        9.349513    1.202907    1.534922
     61          6           0       10.034622   -1.196807    0.852312
     62          6           0       11.502596   -0.733765    1.102941
     63          6           0       12.541179   -1.502157    0.226998
     64          6           0       13.931852   -0.712078    0.216700
     65          6           0       13.784823    0.568378   -0.568785
     66          6           0       15.200927   -1.408246   -0.280802
     67          1           0       -1.831114   -0.359294    4.339253
     68          1           0       -1.157635    5.236939    1.093691
     69          1           0       -4.966575    3.000502   -3.433806
     70          1           0       -5.183071   -3.380914    2.361161
     71          1           0       -2.489762   -2.835232    3.394942
     72          1           0       -4.359390   -1.299609    4.962972
     73          1           0       -3.340575   -2.662279    5.403481
     74          1           0       -4.878757   -3.063866    4.793871
     75          1           0       -4.266566   -4.787072    0.761171
     76          1           0       -3.064998   -4.658597    2.076169
     77          1           0       -2.068086   -2.774548    0.172337
     78          1           0       -2.723717   -3.892550   -0.839585
     79          1           0        1.208380    1.587262    4.940465
     80          1           0       -0.309445    0.585401    5.174054
     81          1           0       -0.046858    2.101363    5.956371
     82          1           0       -0.697736    6.136416    2.771725
     83          1           0        0.831413    5.745494    2.146236
     84          1           0        0.739639    6.677272    3.614339
     85          1           0       -1.383378    5.439652   -1.526217
     86          1           0       -4.261113    5.404463   -2.540767
     87          1           0       -3.388488    7.250040   -1.266498
     88          1           0       -1.665871    7.323906   -0.795651
     89          1           0       -2.777386    7.026377    0.397312
     90          1           0       -2.841132    3.407419   -3.887128
     91          1           0       -1.555058    4.498740   -3.498481
     92          1           0       -2.242961    6.004062   -5.090013
     93          1           0       -3.869218    5.941619   -4.477758
     94          1           0       -3.340111    4.810785   -5.717602
     95          1           0       -7.353990    0.243256   -4.282056
     96          1           0       -5.814167    0.221476   -5.145034
     97          1           0       -6.378101    1.745423   -4.556489
     98          1           0       -5.703250   -3.699043   -0.966459
     99          1           0       -9.002760   -3.714712    1.807774
    100          1           0       -9.980326   -2.946914    0.615320
    101          1           0       -9.695984   -2.082490    1.968750
    102          1           0        1.020222   -5.748325   -0.513089
    103          1           0        1.612343   -5.312534    1.052822
    104          1           0        3.120858   -3.747727    0.293449
    105          1           0        1.627626   -4.802904   -3.199355
    106          1           0        1.372804   -3.079697   -3.514410
    107          1           0        0.419071   -3.803000   -2.244821
    108          1           0        3.985894   -3.266915   -3.074161
    109          1           0        4.399565   -2.914749   -1.453794
    110          1           0        3.548485   -0.800266   -1.334890
    111          1           0        2.335695   -1.103501   -2.469594
    112          1           0        3.545517    0.140572   -3.997107
    113          1           0        4.826123   -1.008928   -4.026839
    114          1           0        4.737816    1.134713   -1.982755
    115          1           0        6.720678    2.014785   -3.525007
    116          1           0        5.011357    2.500778   -3.590864
    117          1           0        5.596588    1.349340   -4.776014
    118          1           0        7.216121   -0.253579   -2.862661
    119          1           0        6.265635   -1.205578   -1.642734
    120          1           0        6.261240    1.123106   -0.350419
    121          1           0        7.811489    1.337758   -1.179331
    122          1           0        7.663865   -1.326429   -0.022819
    123          1           0        7.164257   -0.147633    1.102656
    124          1           0        9.686258    0.330603   -0.472913
    125          1           0        8.396666    1.708043    1.693815
    126          1           0       10.124170    1.924685    1.277768
    127          1           0        9.766313    0.813160    2.464096
    128          1           0        9.896973   -1.846786   -0.012823
    129          1           0        9.655073   -1.774438    1.694889
    130          1           0       11.775599   -1.224014    2.037341
    131          1           0       11.686549    0.334177    1.215753
    132          1           0       12.241356   -1.665530   -0.808284
    133          1           0       12.736152   -2.482844    0.660412
    134          1           0       14.117293   -0.469916    1.263554
    135          1           0       12.932806    0.639483   -1.243801
    136          1           0       14.674859    0.819494   -1.146661
    137          1           0       13.587601    1.320264    0.195721
    138          1           0       15.816491   -0.984129   -1.074034
    139          1           0       14.955394   -2.399429   -0.661780
    140          1           0       15.702282   -1.566949    0.673837
 ---------------------------------------------------------------------

 SCF Done:  E(RCAM-B3LYP) =  -3007.15763248     A.U. after   18 cycles

 Excitation energies and oscillator strengths:

 Excited State   1:      Singlet-A      1.6979 eV  730.22 nm  f=0.3660  <S**2>=0.000
     245 -> 248       -0.17861
     246 -> 247        0.68452
     245 <- 248       -0.10742
 This state for optimization and/or second-order correction.
 Total Energy, E(TD-HF/TD-DFT) =  -3007.09523561
 Copying the excited state density for this state as the 1-particle RhoCI density.

 Excited State   2:      Singlet-A      2.2190 eV  558.74 nm  f=0.0893  <S**2>=0.000
     245 -> 247        0.62752
     246 -> 248        0.31059

 Excited State   3:      Singlet-A      3.3045 eV  375.20 nm  f=0.0020  <S**2>=0.000
     243 -> 247        0.51608
     243 -> 249        0.29554
     243 -> 251        0.24169
     244 -> 247       -0.23397

 Excited State   4:      Singlet-A      3.3970 eV  364.98 nm  f=0.0215  <S**2>=0.000
     241 -> 247       -0.40903
     243 -> 247        0.20076
     244 -> 247        0.49400
     246 -> 248        0.13165

 Excited State   5:      Singlet-A      3.4356 eV  360.88 nm  f=0.3701  <S**2>=0.000
     241 -> 247       -0.22645
     244 -> 247       -0.31279
     245 -> 247       -0.23097
     246 -> 248        0.52534

 The electronic state is 1-A.
 Alpha  occ. eigenvalues --  -46.90969 -19.25684 -19.24147 -19.20093 -19.19496
 Alpha  occ. eigenvalues --  -19.18814 -19.17861 -14.43630 -14.42723 -14.40760
 Alpha  occ. eigenvalues --  -14.39342 -10.39264 -10.39063 -10.34908 -10.34298
 Alpha  occ. eigenvalues --  -10.32980 -10.32284 -10.31994 -10.31561 -10.31395
 Alpha  occ. eigenvalues --  -10.31152 -10.31049 -10.30356 -10.29595 -10.29557
 Alpha  occ. eigenvalues --  -10.29537 -10.29420 -10.29154 -10.29088 -10.28978
 Alpha  occ. eigenvalues --  -10.28569 -10.28555 -10.28541 -10.28433 -10.28019
 Alpha  occ. eigenvalues --  -10.27920 -10.27751 -10.27720 -10.27352 -10.27268
 Alpha  occ. eigenvalues --  -10.27039 -10.26958 -10.26858 -10.26311 -10.26241
 Alpha  occ. eigenvalues --  -10.26020 -10.25902 -10.25784 -10.25775 -10.25761
 Alpha  occ. eigenvalues --  -10.25454 -10.25413 -10.25407 -10.25391 -10.25307
 Alpha  occ. eigenvalues --  -10.25145 -10.25104 -10.24977 -10.24908 -10.24769
 Alpha  occ. eigenvalues --  -10.24718 -10.24564 -10.24451 -10.24210 -10.23979
 Alpha  occ. eigenvalues --  -10.23654  -3.19187  -1.94099  -1.93630  -1.93482
 Alpha  occ. eigenvalues --   -1.18642  -1.16078  -1.11225  -1.09560  -1.07508
 Alpha  occ. eigenvalues --   -1.06897  -1.04902  -1.04217  -1.03708  -1.02957
 Alpha  occ. eigenvalues --   -0.91513  -0.90272  -0.89915  -0.89700  -0.89318
 Alpha  occ. eigenvalues --   -0.89053  -0.88628  -0.87540  -0.87450  -0.87078
 Alpha  occ. eigenvalues --   -0.86273  -0.85118  -0.84445  -0.84001  -0.83700
 Alpha  occ. eigenvalues --   -0.83118  -0.82640  -0.81478  -0.80851  -0.80474
 Alpha  occ. eigenvalues --   -0.79696  -0.78404  -0.78200  -0.77871  -0.76447
 Alpha  occ. eigenvalues --   -0.75998  -0.75709  -0.75308  -0.74908  -0.74122
 Alpha  occ. eigenvalues --   -0.73446  -0.72878  -0.71859  -0.71026  -0.69457
 Alpha  occ. eigenvalues --   -0.69295  -0.68774  -0.68098  -0.67336  -0.66791
 Alpha  occ. eigenvalues --   -0.65687  -0.65166  -0.65012  -0.64607  -0.64272
 Alpha  occ. eigenvalues --   -0.63213  -0.62893  -0.62867  -0.62625  -0.60468
 Alpha  occ. eigenvalues --   -0.59956  -0.59369  -0.59197  -0.58975  -0.58111
 Alpha  occ. eigenvalues --   -0.57415  -0.57331  -0.56652  -0.56400  -0.55893
 Alpha  occ. eigenvalues --   -0.55862  -0.55131  -0.54805  -0.54514  -0.54335
 Alpha  occ. eigenvalues --   -0.53773  -0.53558  -0.53264  -0.53136  -0.52926
 Alpha  occ. eigenvalues --   -0.52696  -0.52609  -0.52430  -0.52178  -0.51655
 Alpha  occ. eigenvalues --   -0.51522  -0.51365  -0.51275  -0.51066  -0.50831
 Alpha  occ. eigenvalues --   -0.50519  -0.50381  -0.50161  -0.50073  -0.49676
 Alpha  occ. eigenvalues --   -0.49588  -0.49568  -0.49435  -0.49054  -0.48880
 Alpha  occ. eigenvalues --   -0.48414  -0.48200  -0.48172  -0.48052  -0.47828
 Alpha  occ. eigenvalues --   -0.47659  -0.47352  -0.47044  -0.46829  -0.46696
 Alpha  occ. eigenvalues --   -0.46527  -0.46498  -0.46381  -0.46270  -0.46001
 Alpha  occ. eigenvalues --   -0.45864  -0.45490  -0.45352  -0.45108  -0.44797
 Alpha  occ. eigenvalues --   -0.44604  -0.44561  -0.44140  -0.44052  -0.43861
 Alpha  occ. eigenvalues --   -0.43836  -0.43661  -0.43497  -0.42999  -0.42802
 Alpha  occ. eigenvalues --   -0.42674  -0.42568  -0.42361  -0.42205  -0.42037
 Alpha  occ. eigenvalues --   -0.41926  -0.41915  -0.41713  -0.41524  -0.41330
 Alpha  occ. eigenvalues --   -0.41201  -0.41108  -0.40884  -0.40822  -0.40671
 Alpha  occ. eigenvalues --   -0.40484  -0.40060  -0.39985  -0.39739  -0.39249
 Alpha  occ. eigenvalues --   -0.38942  -0.38162  -0.37904  -0.37776  -0.37331
 Alpha  occ. eigenvalues --   -0.37263  -0.36979  -0.36921  -0.36437  -0.36197
 Alpha  occ. eigenvalues --   -0.36011  -0.35857  -0.35044  -0.35021  -0.34627
 Alpha  occ. eigenvalues --   -0.34123  -0.34003  -0.33235  -0.31749  -0.31613
 Alpha  occ. eigenvalues --   -0.30518  -0.30115  -0.30090  -0.29908  -0.24601
 Alpha  occ. eigenvalues --   -0.21525
 Alpha virt. eigenvalues --   -0.09175  -0.02546  -0.00295   0.01376   0.01796
 Alpha virt. eigenvalues --    0.04083   0.04471   0.04774   0.05766   0.06344
 Alpha virt. eigenvalues --    0.07388   0.07475   0.08456   0.08767   0.08983

 Mulliken charges:
               1
     1  Mg   0.818376
     2  C    0.002740
     3  C   -0.049983
     4  C   -0.061580
     5  C   -0.072799
     6  N   -0.272112
     7  C   -0.087516
     8  C    0.054814
     9  C   -0.094906
    10  C    0.060092
    11  C    0.048333
    12  C    0.042955
    13  C    0.039989
    14  C    0.139857
    15  O   -0.218573
    16  O   -0.340347
    17  N   -0.386949
    18  C    0.124102
    19  C   -0.123727
    20  C   -0.022505
    21  C    0.159662
    22  C    0.136494
    23  C   -0.012826
    24  O   -0.191228
    25  C    0.048950
    26  N   -0.284095
    27  C    0.015112
    28  C    0.000873
    29  C   -0.021658
    30  C    0.021746
    31  C    0.064760
    32  C    0.020864
    33  C   -0.000092
    34  N   -0.292707
    35  C    0.075958
    36  C   -0.161600
    37  C    0.072851
    38  C    0.073761
    39  C    0.115781
    40  C    0.030595
    41  O   -0.218754
    42  C    0.014662
    43  C    0.144176
    44  O   -0.200862
    45  O   -0.275512
    46  C    0.174192
    47  C    0.281128
    48  C   -0.106321
    49  C   -0.214791
    50  C    0.076791
    51  C    0.080772
    52  C    0.033910
    53  C    0.098807
    54  C   -0.147293
    55  C    0.058456
    56  C    0.040287
    57  C    0.020311
    58  C    0.028504
    59  C   -0.154365
    60  C    0.059628
    61  C    0.073429
    62  C   -0.002129
    63  C    0.047954
    64  C   -0.180983
    65  C    0.038566
    66  C    0.061968
    67  H   -0.022001
    68  H   -0.060366
    69  H   -0.020705
    70  H    0.013701
    71  H    0.026073
    72  H    0.032520
    73  H    0.013723
    74  H    0.022311
    75  H    0.046955
    76  H    0.022748
    77  H    0.027894
    78  H    0.035176
    79  H    0.038760
    80  H   -0.009531
    81  H    0.032041
    82  H    0.029913
    83  H    0.040466
    84  H    0.026789
    85  H    0.019831
    86  H    0.019215
    87  H    0.019491
    88  H    0.003659
    89  H    0.023483
    90  H    0.024586
    91  H    0.005134
    92  H    0.012595
    93  H    0.001494
    94  H    0.021445
    95  H    0.041083
    96  H    0.032582
    97  H    0.006290
    98  H    0.031596
    99  H    0.026587
   100  H    0.011067
   101  H    0.016802
   102  H    0.041229
   103  H    0.006380
   104  H   -0.013108
   105  H    0.037302
   106  H    0.011271
   107  H    0.024580
   108  H    0.002777
   109  H   -0.010785
   110  H   -0.002286
   111  H   -0.004400
   112  H   -0.014092
   113  H   -0.009544
   114  H   -0.009804
   115  H    0.012527
   116  H    0.005565
   117  H    0.007698
   118  H   -0.001006
   119  H    0.010063
   120  H   -0.005413
   121  H   -0.001360
   122  H   -0.021770
   123  H   -0.013200
   124  H   -0.006166
   125  H    0.016240
   126  H    0.006648
   127  H    0.005934
   128  H   -0.003820
   129  H   -0.005421
   130  H   -0.005783
   131  H    0.008501
   132  H   -0.005461
   133  H   -0.008894
   134  H   -0.005823
   135  H    0.006255
   136  H    0.006206
   137  H    0.002838
   138  H    0.019071
   139  H   -0.008902
   140  H    0.006545
 Sum of Mulliken charges =  -0.00000

 Dipole moment (field-independent basis, Debye):
    X=              2.7418    Y=              6.8380    Z=              0.8972  Tot=              7.4216
 Quadrupole moment (field-independent basis, Debye-Ang):
   XX=           -431.4811   YY=           -413.1215   ZZ=           -403.7921
   XY=            -42.8203   XZ=            -32.2889   YZ=            -35.6543

 Normal termination of Gaussian 16 at Tue Apr 26 21:39:12 2022.
