 Gaussian 16, Revision A.03,
 Gaussian 16:  ES64L-G16RevA.03 25-Dec-2016

 ---------------------------------
 #p PBE1PBE/Def2SVP td=(nstates=5)
 ---------------------------------

 ------------------------------------------------------
 step_1001_chromophore_26 TDDFT with PBE1PBE functional
 ------------------------------------------------------
 Symbolic Z-matrix:
 Charge =  0 Multiplicity = 1

                         Standard orientation:
 ---------------------------------------------------------------------
 Center     Atomic      Atomic             Coordinates (Angstroms)
 Number     Number       Type             X           Y           Z
 ---------------------------------------------------------------------
      1         12           0       -3.663476    1.552363    0.782771
      2          6           0       -5.227549   -1.635568    0.019551
      3          6           0       -2.214612    0.062371    3.408298
      4          6           0       -1.715149    4.300045    1.040573
      5          6           0       -4.740543    2.694783   -2.409760
      6          7           0       -3.911235   -0.508926    1.632671
      7          6           0       -4.527645   -1.683778    1.227870
      8          6           0       -4.240772   -2.926498    2.055220
      9          6           0       -3.427110   -2.300330    3.242991
     10          6           0       -3.236022   -0.765950    2.781890
     11          6           0       -4.089205   -2.318659    4.690403
     12          6           0       -3.552146   -4.130325    1.257449
     13          6           0       -2.419730   -3.805346    0.203248
     14          6           0       -1.170969   -4.786908    0.236837
     15          8           0       -1.191987   -5.942405   -0.095166
     16          8           0        0.019430   -4.124792    0.453904
     17          7           0       -2.165357    2.160209    2.159292
     18          6           0       -1.695057    1.367422    3.166631
     19          6           0       -0.633350    2.131428    3.875081
     20          6           0       -0.640805    3.451632    3.346576
     21          6           0       -1.509706    3.373073    2.106698
     22          6           0        0.121172    1.574203    5.017143
     23          6           0        0.221920    4.566039    3.817952
     24          8           0        0.881811    4.427548    4.820742
     25          6           0        0.297569    5.828644    3.093031
     26          7           0       -3.325799    3.243681   -0.511877
     27          6           0       -2.423973    4.250944   -0.155411
     28          6           0       -2.415224    5.383625   -1.177183
     29          6           0       -3.372224    4.831617   -2.277637
     30          6           0       -3.918293    3.580712   -1.656361
     31          6           0       -2.609138    6.796158   -0.654654
     32          6           0       -2.637194    4.442473   -3.613319
     33          6           0       -3.037094    5.315980   -4.800328
     34          7           0       -4.667790    0.704129   -0.956260
     35          6           0       -5.029322    1.312811   -2.107924
     36          6           0       -5.796349    0.393143   -2.908958
     37          6           0       -5.911254   -0.731492   -2.107451
     38          6           0       -5.230523   -0.522568   -0.917231
     39          6           0       -6.356649    0.681569   -4.319653
     40          6           0       -6.553379   -1.958189   -2.063325
     41          8           0       -7.372727   -2.521025   -2.843543
     42          6           0       -6.166025   -2.742152   -0.726849
     43          6           0       -7.322536   -3.268000    0.082151
     44          8           0       -7.589200   -4.449379    0.070243
     45          8           0       -8.076826   -2.272721    0.634480
     46          6           0       -9.157125   -2.759370    1.306085
     47          6           0        1.233440   -4.888300    0.123002
     48          6           0        2.303972   -3.981416   -0.389787
     49          6           0        2.453358   -3.541828   -1.670218
     50          6           0        1.389852   -3.844859   -2.739218
     51          6           0        3.619446   -2.736832   -2.194713
     52          6           0        3.414394   -1.191004   -2.343152
     53          6           0        4.245600   -0.385207   -3.347426
     54          6           0        5.250506    0.575532   -2.765417
     55          6           0        5.707286    1.675791   -3.742495
     56          6           0        6.463164   -0.223753   -2.074712
     57          6           0        7.052932    0.608850   -0.895439
     58          6           0        7.755838   -0.262739    0.194477
     59          6           0        9.256048    0.049704    0.488124
     60          6           0        9.349513    1.202907    1.534922
     61          6           0       10.034622   -1.196807    0.852312
     62          6           0       11.502596   -0.733765    1.102941
     63          6           0       12.541179   -1.502157    0.226998
     64          6           0       13.931852   -0.712078    0.216700
     65          6           0       13.784823    0.568378   -0.568785
     66          6           0       15.200927   -1.408246   -0.280802
     67          1           0       -1.831114   -0.359294    4.339253
     68          1           0       -1.157635    5.236939    1.093691
     69          1           0       -4.966575    3.000502   -3.433806
     70          1           0       -5.183071   -3.380914    2.361161
     71          1           0       -2.489762   -2.835232    3.394942
     72          1           0       -4.359390   -1.299609    4.962972
     73          1           0       -3.340575   -2.662279    5.403481
     74          1           0       -4.878757   -3.063866    4.793871
     75          1           0       -4.266566   -4.787072    0.761171
     76          1           0       -3.064998   -4.658597    2.076169
     77          1           0       -2.068086   -2.774548    0.172337
     78          1           0       -2.723717   -3.892550   -0.839585
     79          1           0        1.208380    1.587262    4.940465
     80          1           0       -0.309445    0.585401    5.174054
     81          1           0       -0.046858    2.101363    5.956371
     82          1           0       -0.697736    6.136416    2.771725
     83          1           0        0.831413    5.745494    2.146236
     84          1           0        0.739639    6.677272    3.614339
     85          1           0       -1.383378    5.439652   -1.526217
     86          1           0       -4.261113    5.404463   -2.540767
     87          1           0       -3.388488    7.250040   -1.266498
     88          1           0       -1.665871    7.323906   -0.795651
     89          1           0       -2.777386    7.026377    0.397312
     90          1           0       -2.841132    3.407419   -3.887128
     91          1           0       -1.555058    4.498740   -3.498481
     92          1           0       -2.242961    6.004062   -5.090013
     93          1           0       -3.869218    5.941619   -4.477758
     94          1           0       -3.340111    4.810785   -5.717602
     95          1           0       -7.353990    0.243256   -4.282056
     96          1           0       -5.814167    0.221476   -5.145034
     97          1           0       -6.378101    1.745423   -4.556489
     98          1           0       -5.703250   -3.699043   -0.966459
     99          1           0       -9.002760   -3.714712    1.807774
    100          1           0       -9.980326   -2.946914    0.615320
    101          1           0       -9.695984   -2.082490    1.968750
    102          1           0        1.020222   -5.748325   -0.513089
    103          1           0        1.612343   -5.312534    1.052822
    104          1           0        3.120858   -3.747727    0.293449
    105          1           0        1.627626   -4.802904   -3.199355
    106          1           0        1.372804   -3.079697   -3.514410
    107          1           0        0.419071   -3.803000   -2.244821
    108          1           0        3.985894   -3.266915   -3.074161
    109          1           0        4.399565   -2.914749   -1.453794
    110          1           0        3.548485   -0.800266   -1.334890
    111          1           0        2.335695   -1.103501   -2.469594
    112          1           0        3.545517    0.140572   -3.997107
    113          1           0        4.826123   -1.008928   -4.026839
    114          1           0        4.737816    1.134713   -1.982755
    115          1           0        6.720678    2.014785   -3.525007
    116          1           0        5.011357    2.500778   -3.590864
    117          1           0        5.596588    1.349340   -4.776014
    118          1           0        7.216121   -0.253579   -2.862661
    119          1           0        6.265635   -1.205578   -1.642734
    120          1           0        6.261240    1.123106   -0.350419
    121          1           0        7.811489    1.337758   -1.179331
    122          1           0        7.663865   -1.326429   -0.022819
    123          1           0        7.164257   -0.147633    1.102656
    124          1           0        9.686258    0.330603   -0.472913
    125          1           0        8.396666    1.708043    1.693815
    126          1           0       10.124170    1.924685    1.277768
    127          1           0        9.766313    0.813160    2.464096
    128          1           0        9.896973   -1.846786   -0.012823
    129          1           0        9.655073   -1.774438    1.694889
    130          1           0       11.775599   -1.224014    2.037341
    131          1           0       11.686549    0.334177    1.215753
    132          1           0       12.241356   -1.665530   -0.808284
    133          1           0       12.736152   -2.482844    0.660412
    134          1           0       14.117293   -0.469916    1.263554
    135          1           0       12.932806    0.639483   -1.243801
    136          1           0       14.674859    0.819494   -1.146661
    137          1           0       13.587601    1.320264    0.195721
    138          1           0       15.816491   -0.984129   -1.074034
    139          1           0       14.955394   -2.399429   -0.661780
    140          1           0       15.702282   -1.566949    0.673837
 ---------------------------------------------------------------------

 SCF Done:  E(RPBE1PBE) =  -3005.34758373     A.U. after   16 cycles

 Excitation energies and oscillator strengths:

 Excited State   1:      Singlet-A      1.8461 eV  671.59 nm  f=0.3500  <S**2>=0.000
     245 -> 248       -0.17479
     246 -> 247        0.69153
     246 <- 247       -0.10868
 This state for optimization and/or second-order correction.
 Total Energy, E(TD-HF/TD-DFT) =  -3005.27974007
 Copying the excited state density for this state as the 1-particle RhoCI density.

 Excited State   2:      Singlet-A      2.2282 eV  556.43 nm  f=0.0927  <S**2>=0.000
     245 -> 247        0.64221
     246 -> 248        0.28141

 Excited State   3:      Singlet-A      2.7587 eV  449.43 nm  f=0.0002  <S**2>=0.000
     244 -> 247        0.67389
     244 -> 249        0.17449
     244 -> 250        0.10915

 Excited State   4:      Singlet-A      3.0083 eV  412.14 nm  f=0.0004  <S**2>=0.000
     240 -> 247        0.10809
     241 -> 247        0.25623
     242 -> 247        0.62839

 Excited State   5:      Singlet-A      3.1051 eV  399.30 nm  f=0.0016  <S**2>=0.000
     240 -> 247        0.22421
     241 -> 247        0.56280
     242 -> 247       -0.30149
     246 -> 248       -0.13434

 The electronic state is 1-A.
 Alpha  occ. eigenvalues --  -46.94335 -19.26302 -19.24848 -19.20357 -19.19773
 Alpha  occ. eigenvalues --  -19.18862 -19.18295 -14.43047 -14.42265 -14.40277
 Alpha  occ. eigenvalues --  -14.39087 -10.36289 -10.36117 -10.31860 -10.31563
 Alpha  occ. eigenvalues --  -10.30584 -10.29737 -10.29569 -10.29405 -10.28903
 Alpha  occ. eigenvalues --  -10.28852 -10.28531 -10.27560 -10.27526 -10.27287
 Alpha  occ. eigenvalues --  -10.27227 -10.27009 -10.26970 -10.26956 -10.26769
 Alpha  occ. eigenvalues --  -10.26478 -10.26249 -10.26086 -10.26081 -10.25685
 Alpha  occ. eigenvalues --  -10.25510 -10.25437 -10.25336 -10.25076 -10.25010
 Alpha  occ. eigenvalues --  -10.24687 -10.24498 -10.24275 -10.23827 -10.23508
 Alpha  occ. eigenvalues --  -10.23456 -10.23385 -10.23315 -10.23292 -10.23282
 Alpha  occ. eigenvalues --  -10.23081 -10.22971 -10.22962 -10.22950 -10.22823
 Alpha  occ. eigenvalues --  -10.22702 -10.22620 -10.22548 -10.22428 -10.22291
 Alpha  occ. eigenvalues --  -10.22283 -10.22260 -10.21830 -10.21774 -10.21363
 Alpha  occ. eigenvalues --  -10.21022  -3.16142  -1.88992  -1.88503  -1.88358
 Alpha  occ. eigenvalues --   -1.13465  -1.10891  -1.05819  -1.04412  -1.02394
 Alpha  occ. eigenvalues --   -1.01749  -0.99595  -0.98887  -0.98343  -0.97485
 Alpha  occ. eigenvalues --   -0.85929  -0.84355  -0.84243  -0.83779  -0.83594
 Alpha  occ. eigenvalues --   -0.83261  -0.82740  -0.81720  -0.81634  -0.81211
 Alpha  occ. eigenvalues --   -0.80655  -0.79310  -0.78649  -0.78283  -0.77836
 Alpha  occ. eigenvalues --   -0.77320  -0.76803  -0.75764  -0.75237  -0.74665
 Alpha  occ. eigenvalues --   -0.73855  -0.72752  -0.72482  -0.72033  -0.70779
 Alpha  occ. eigenvalues --   -0.70131  -0.70070  -0.69387  -0.68996  -0.68278
 Alpha  occ. eigenvalues --   -0.67864  -0.67236  -0.66263  -0.65310  -0.63846
 Alpha  occ. eigenvalues --   -0.63822  -0.62969  -0.62440  -0.61572  -0.61247
 Alpha  occ. eigenvalues --   -0.60095  -0.59720  -0.59571  -0.58849  -0.58802
 Alpha  occ. eigenvalues --   -0.57464  -0.57300  -0.57029  -0.56790  -0.54970
 Alpha  occ. eigenvalues --   -0.54487  -0.53926  -0.53687  -0.53391  -0.52812
 Alpha  occ. eigenvalues --   -0.51904  -0.51850  -0.51076  -0.50877  -0.50534
 Alpha  occ. eigenvalues --   -0.50219  -0.49680  -0.49138  -0.49117  -0.48846
 Alpha  occ. eigenvalues --   -0.48382  -0.48126  -0.47797  -0.47561  -0.47405
 Alpha  occ. eigenvalues --   -0.47247  -0.47097  -0.46864  -0.46561  -0.46230
 Alpha  occ. eigenvalues --   -0.46000  -0.45846  -0.45799  -0.45641  -0.45358
 Alpha  occ. eigenvalues --   -0.45209  -0.44899  -0.44689  -0.44597  -0.44249
 Alpha  occ. eigenvalues --   -0.44169  -0.44108  -0.44009  -0.43599  -0.43583
 Alpha  occ. eigenvalues --   -0.43049  -0.42820  -0.42755  -0.42707  -0.42438
 Alpha  occ. eigenvalues --   -0.42282  -0.42056  -0.41745  -0.41472  -0.41371
 Alpha  occ. eigenvalues --   -0.41196  -0.41135  -0.41052  -0.41018  -0.40774
 Alpha  occ. eigenvalues --   -0.40520  -0.40313  -0.40081  -0.39694  -0.39616
 Alpha  occ. eigenvalues --   -0.39447  -0.39161  -0.38939  -0.38695  -0.38650
 Alpha  occ. eigenvalues --   -0.38530  -0.38375  -0.38282  -0.37872  -0.37670
 Alpha  occ. eigenvalues --   -0.37464  -0.37376  -0.37065  -0.36990  -0.36807
 Alpha  occ. eigenvalues --   -0.36724  -0.36689  -0.36451  -0.36398  -0.36144
 Alpha  occ. eigenvalues --   -0.36060  -0.36021  -0.35812  -0.35597  -0.35581
 Alpha  occ. eigenvalues --   -0.35353  -0.34905  -0.34848  -0.34475  -0.34031
 Alpha  occ. eigenvalues --   -0.33755  -0.33180  -0.32860  -0.32527  -0.32157
 Alpha  occ. eigenvalues --   -0.32072  -0.32064  -0.31658  -0.31202  -0.31110
 Alpha  occ. eigenvalues --   -0.30848  -0.30805  -0.30199  -0.29900  -0.29670
 Alpha  occ. eigenvalues --   -0.29031  -0.28948  -0.28761  -0.27334  -0.26387
 Alpha  occ. eigenvalues --   -0.25889  -0.25619  -0.25427  -0.25008  -0.21491
 Alpha  occ. eigenvalues --   -0.19178
 Alpha virt. eigenvalues --   -0.11632  -0.05996  -0.04467  -0.02614  -0.01402
 Alpha virt. eigenvalues --   -0.00338   0.00057   0.00363   0.01325   0.02607
 Alpha virt. eigenvalues --    0.02986   0.03730   0.04772   0.05593   0.05653

 Mulliken charges:
               1
     1  Mg   0.957497
     2  C   -0.000260
     3  C   -0.047747
     4  C   -0.071269
     5  C   -0.072918
     6  N   -0.374928
     7  C   -0.026875
     8  C   -0.000799
     9  C   -0.167845
    10  C    0.090786
    11  C   -0.007366
    12  C   -0.012248
    13  C   -0.033473
    14  C    0.204302
    15  O   -0.250769
    16  O   -0.368779
    17  N   -0.497177
    18  C    0.150954
    19  C   -0.155500
    20  C   -0.066445
    21  C    0.192733
    22  C    0.078575
    23  C    0.036469
    24  O   -0.229210
    25  C   -0.024165
    26  N   -0.386922
    27  C    0.054697
    28  C   -0.073399
    29  C   -0.107066
    30  C    0.074397
    31  C    0.007243
    32  C   -0.036095
    33  C   -0.070416
    34  N   -0.419767
    35  C    0.105064
    36  C   -0.168225
    37  C    0.002563
    38  C    0.130092
    39  C    0.066198
    40  C    0.121174
    41  O   -0.261553
    42  C   -0.084442
    43  C    0.233113
    44  O   -0.236751
    45  O   -0.307183
    46  C    0.117592
    47  C    0.233432
    48  C   -0.120045
    49  C   -0.246195
    50  C    0.010459
    51  C    0.015259
    52  C   -0.029023
    53  C    0.041771
    54  C   -0.234370
    55  C   -0.001696
    56  C   -0.020650
    57  C   -0.039846
    58  C   -0.020211
    59  C   -0.245071
    60  C   -0.002652
    61  C    0.026220
    62  C   -0.073138
    63  C   -0.007336
    64  C   -0.270631
    65  C   -0.020503
    66  C    0.000905
    67  H    0.009559
    68  H   -0.025859
    69  H    0.012033
    70  H    0.052461
    71  H    0.061065
    72  H    0.059924
    73  H    0.040488
    74  H    0.048795
    75  H    0.076856
    76  H    0.056758
    77  H    0.061555
    78  H    0.067033
    79  H    0.064743
    80  H    0.019582
    81  H    0.058869
    82  H    0.056069
    83  H    0.067002
    84  H    0.054165
    85  H    0.056820
    86  H    0.054723
    87  H    0.047404
    88  H    0.030696
    89  H    0.050096
    90  H    0.058073
    91  H    0.038181
    92  H    0.041000
    93  H    0.028965
    94  H    0.048361
    95  H    0.068767
    96  H    0.060582
    97  H    0.033272
    98  H    0.068473
    99  H    0.048540
   100  H    0.034673
   101  H    0.040465
   102  H    0.067187
   103  H    0.034532
   104  H    0.016909
   105  H    0.065030
   106  H    0.038443
   107  H    0.055338
   108  H    0.035216
   109  H    0.022199
   110  H    0.031015
   111  H    0.029170
   112  H    0.019246
   113  H    0.023405
   114  H    0.028931
   115  H    0.040004
   116  H    0.033734
   117  H    0.034883
   118  H    0.033092
   119  H    0.044448
   120  H    0.026709
   121  H    0.030471
   122  H    0.009469
   123  H    0.020454
   124  H    0.033444
   125  H    0.044199
   126  H    0.034061
   127  H    0.034808
   128  H    0.028137
   129  H    0.026169
   130  H    0.029748
   131  H    0.039809
   132  H    0.026712
   133  H    0.024170
   134  H    0.032295
   135  H    0.033884
   136  H    0.033952
   137  H    0.029881
   138  H    0.044577
   139  H    0.019582
   140  H    0.033961
 Sum of Mulliken charges =  -0.00000

 Dipole moment (field-independent basis, Debye):
    X=              2.5311    Y=              6.7895    Z=              0.5077  Tot=              7.2637
 Quadrupole moment (field-independent basis, Debye-Ang):
   XX=           -427.0370   YY=           -409.5288   ZZ=           -400.1255
   XY=            -42.9633   XZ=            -30.7786   YZ=            -37.4749

 Normal termination of Gaussian 16 at Tue Apr 26 21:59:48 2022.
