 Gaussian 16, Revision A.03,
 Gaussian 16:  ES64L-G16RevA.03 25-Dec-2016

 --------------------------------
 #p wB97XD/Def2SVP td=(nstates=5)
 --------------------------------

 -----------------------------------------------------
 step_1001_chromophore_26 TDDFT with wB97XD functional
 -----------------------------------------------------
 Symbolic Z-matrix:
 Charge =  0 Multiplicity = 1

                         Standard orientation:
 ---------------------------------------------------------------------
 Center     Atomic      Atomic             Coordinates (Angstroms)
 Number     Number       Type             X           Y           Z
 ---------------------------------------------------------------------
      1         12           0       -3.663476    1.552363    0.782771
      2          6           0       -5.227549   -1.635568    0.019551
      3          6           0       -2.214612    0.062371    3.408298
      4          6           0       -1.715149    4.300045    1.040573
      5          6           0       -4.740543    2.694783   -2.409760
      6          7           0       -3.911235   -0.508926    1.632671
      7          6           0       -4.527645   -1.683778    1.227870
      8          6           0       -4.240772   -2.926498    2.055220
      9          6           0       -3.427110   -2.300330    3.242991
     10          6           0       -3.236022   -0.765950    2.781890
     11          6           0       -4.089205   -2.318659    4.690403
     12          6           0       -3.552146   -4.130325    1.257449
     13          6           0       -2.419730   -3.805346    0.203248
     14          6           0       -1.170969   -4.786908    0.236837
     15          8           0       -1.191987   -5.942405   -0.095166
     16          8           0        0.019430   -4.124792    0.453904
     17          7           0       -2.165357    2.160209    2.159292
     18          6           0       -1.695057    1.367422    3.166631
     19          6           0       -0.633350    2.131428    3.875081
     20          6           0       -0.640805    3.451632    3.346576
     21          6           0       -1.509706    3.373073    2.106698
     22          6           0        0.121172    1.574203    5.017143
     23          6           0        0.221920    4.566039    3.817952
     24          8           0        0.881811    4.427548    4.820742
     25          6           0        0.297569    5.828644    3.093031
     26          7           0       -3.325799    3.243681   -0.511877
     27          6           0       -2.423973    4.250944   -0.155411
     28          6           0       -2.415224    5.383625   -1.177183
     29          6           0       -3.372224    4.831617   -2.277637
     30          6           0       -3.918293    3.580712   -1.656361
     31          6           0       -2.609138    6.796158   -0.654654
     32          6           0       -2.637194    4.442473   -3.613319
     33          6           0       -3.037094    5.315980   -4.800328
     34          7           0       -4.667790    0.704129   -0.956260
     35          6           0       -5.029322    1.312811   -2.107924
     36          6           0       -5.796349    0.393143   -2.908958
     37          6           0       -5.911254   -0.731492   -2.107451
     38          6           0       -5.230523   -0.522568   -0.917231
     39          6           0       -6.356649    0.681569   -4.319653
     40          6           0       -6.553379   -1.958189   -2.063325
     41          8           0       -7.372727   -2.521025   -2.843543
     42          6           0       -6.166025   -2.742152   -0.726849
     43          6           0       -7.322536   -3.268000    0.082151
     44          8           0       -7.589200   -4.449379    0.070243
     45          8           0       -8.076826   -2.272721    0.634480
     46          6           0       -9.157125   -2.759370    1.306085
     47          6           0        1.233440   -4.888300    0.123002
     48          6           0        2.303972   -3.981416   -0.389787
     49          6           0        2.453358   -3.541828   -1.670218
     50          6           0        1.389852   -3.844859   -2.739218
     51          6           0        3.619446   -2.736832   -2.194713
     52          6           0        3.414394   -1.191004   -2.343152
     53          6           0        4.245600   -0.385207   -3.347426
     54          6           0        5.250506    0.575532   -2.765417
     55          6           0        5.707286    1.675791   -3.742495
     56          6           0        6.463164   -0.223753   -2.074712
     57          6           0        7.052932    0.608850   -0.895439
     58          6           0        7.755838   -0.262739    0.194477
     59          6           0        9.256048    0.049704    0.488124
     60          6           0        9.349513    1.202907    1.534922
     61          6           0       10.034622   -1.196807    0.852312
     62          6           0       11.502596   -0.733765    1.102941
     63          6           0       12.541179   -1.502157    0.226998
     64          6           0       13.931852   -0.712078    0.216700
     65          6           0       13.784823    0.568378   -0.568785
     66          6           0       15.200927   -1.408246   -0.280802
     67          1           0       -1.831114   -0.359294    4.339253
     68          1           0       -1.157635    5.236939    1.093691
     69          1           0       -4.966575    3.000502   -3.433806
     70          1           0       -5.183071   -3.380914    2.361161
     71          1           0       -2.489762   -2.835232    3.394942
     72          1           0       -4.359390   -1.299609    4.962972
     73          1           0       -3.340575   -2.662279    5.403481
     74          1           0       -4.878757   -3.063866    4.793871
     75          1           0       -4.266566   -4.787072    0.761171
     76          1           0       -3.064998   -4.658597    2.076169
     77          1           0       -2.068086   -2.774548    0.172337
     78          1           0       -2.723717   -3.892550   -0.839585
     79          1           0        1.208380    1.587262    4.940465
     80          1           0       -0.309445    0.585401    5.174054
     81          1           0       -0.046858    2.101363    5.956371
     82          1           0       -0.697736    6.136416    2.771725
     83          1           0        0.831413    5.745494    2.146236
     84          1           0        0.739639    6.677272    3.614339
     85          1           0       -1.383378    5.439652   -1.526217
     86          1           0       -4.261113    5.404463   -2.540767
     87          1           0       -3.388488    7.250040   -1.266498
     88          1           0       -1.665871    7.323906   -0.795651
     89          1           0       -2.777386    7.026377    0.397312
     90          1           0       -2.841132    3.407419   -3.887128
     91          1           0       -1.555058    4.498740   -3.498481
     92          1           0       -2.242961    6.004062   -5.090013
     93          1           0       -3.869218    5.941619   -4.477758
     94          1           0       -3.340111    4.810785   -5.717602
     95          1           0       -7.353990    0.243256   -4.282056
     96          1           0       -5.814167    0.221476   -5.145034
     97          1           0       -6.378101    1.745423   -4.556489
     98          1           0       -5.703250   -3.699043   -0.966459
     99          1           0       -9.002760   -3.714712    1.807774
    100          1           0       -9.980326   -2.946914    0.615320
    101          1           0       -9.695984   -2.082490    1.968750
    102          1           0        1.020222   -5.748325   -0.513089
    103          1           0        1.612343   -5.312534    1.052822
    104          1           0        3.120858   -3.747727    0.293449
    105          1           0        1.627626   -4.802904   -3.199355
    106          1           0        1.372804   -3.079697   -3.514410
    107          1           0        0.419071   -3.803000   -2.244821
    108          1           0        3.985894   -3.266915   -3.074161
    109          1           0        4.399565   -2.914749   -1.453794
    110          1           0        3.548485   -0.800266   -1.334890
    111          1           0        2.335695   -1.103501   -2.469594
    112          1           0        3.545517    0.140572   -3.997107
    113          1           0        4.826123   -1.008928   -4.026839
    114          1           0        4.737816    1.134713   -1.982755
    115          1           0        6.720678    2.014785   -3.525007
    116          1           0        5.011357    2.500778   -3.590864
    117          1           0        5.596588    1.349340   -4.776014
    118          1           0        7.216121   -0.253579   -2.862661
    119          1           0        6.265635   -1.205578   -1.642734
    120          1           0        6.261240    1.123106   -0.350419
    121          1           0        7.811489    1.337758   -1.179331
    122          1           0        7.663865   -1.326429   -0.022819
    123          1           0        7.164257   -0.147633    1.102656
    124          1           0        9.686258    0.330603   -0.472913
    125          1           0        8.396666    1.708043    1.693815
    126          1           0       10.124170    1.924685    1.277768
    127          1           0        9.766313    0.813160    2.464096
    128          1           0        9.896973   -1.846786   -0.012823
    129          1           0        9.655073   -1.774438    1.694889
    130          1           0       11.775599   -1.224014    2.037341
    131          1           0       11.686549    0.334177    1.215753
    132          1           0       12.241356   -1.665530   -0.808284
    133          1           0       12.736152   -2.482844    0.660412
    134          1           0       14.117293   -0.469916    1.263554
    135          1           0       12.932806    0.639483   -1.243801
    136          1           0       14.674859    0.819494   -1.146661
    137          1           0       13.587601    1.320264    0.195721
    138          1           0       15.816491   -0.984129   -1.074034
    139          1           0       14.955394   -2.399429   -0.661780
    140          1           0       15.702282   -1.566949    0.673837
 ---------------------------------------------------------------------

 SCF Done:  E(RwB97XD) =  -3007.85571022     A.U. after   20 cycles

 Excitation energies and oscillator strengths:

 Excited State   1:      Singlet-A      1.6448 eV  753.79 nm  f=0.3649  <S**2>=0.000
     245 -> 248       -0.18376
     246 -> 247        0.68241
     245 <- 248       -0.11672
 This state for optimization and/or second-order correction.
 Total Energy, E(TD-HF/TD-DFT) =  -3007.79526440
 Copying the excited state density for this state as the 1-particle RhoCI density.

 Excited State   2:      Singlet-A      2.1637 eV  573.03 nm  f=0.0867  <S**2>=0.000
     245 -> 247        0.62560
     246 -> 248        0.31297

 Excited State   3:      Singlet-A      3.3485 eV  370.27 nm  f=0.0039  <S**2>=0.000
     243 -> 247        0.16652
     243 -> 249        0.14197
     243 -> 250        0.12256
     244 -> 247        0.51702
     244 -> 249        0.29957
     244 -> 250        0.23650

 Excited State   4:      Singlet-A      3.4209 eV  362.43 nm  f=0.0714  <S**2>=0.000
     241 -> 247        0.46939
     241 -> 249       -0.11395
     243 -> 247       -0.39832
     244 -> 247        0.12874
     246 -> 248       -0.23432

 Excited State   5:      Singlet-A      3.4593 eV  358.41 nm  f=0.3542  <S**2>=0.000
     241 -> 247       -0.10144
     243 -> 247       -0.38081
     244 -> 247        0.18467
     245 -> 247       -0.22318
     246 -> 248        0.49524

 The electronic state is 1-A.
 Alpha  occ. eigenvalues --  -46.97290 -19.30865 -19.29386 -19.25019 -19.24428
 Alpha  occ. eigenvalues --  -19.23858 -19.22902 -14.48251 -14.47294 -14.45370
 Alpha  occ. eigenvalues --  -14.43899 -10.43090 -10.42880 -10.38869 -10.38284
 Alpha  occ. eigenvalues --  -10.37086 -10.36416 -10.36069 -10.35561 -10.35512
 Alpha  occ. eigenvalues --  -10.35033 -10.34998 -10.34043 -10.33771 -10.33615
 Alpha  occ. eigenvalues --  -10.33555 -10.33479 -10.33310 -10.33042 -10.33027
 Alpha  occ. eigenvalues --  -10.32676 -10.32607 -10.32601 -10.32413 -10.32076
 Alpha  occ. eigenvalues --  -10.31927 -10.31816 -10.31787 -10.31346 -10.31294
 Alpha  occ. eigenvalues --  -10.30913 -10.30885 -10.30739 -10.30191 -10.30089
 Alpha  occ. eigenvalues --  -10.29982 -10.29748 -10.29703 -10.29700 -10.29679
 Alpha  occ. eigenvalues --  -10.29376 -10.29334 -10.29329 -10.29264 -10.29247
 Alpha  occ. eigenvalues --  -10.29077 -10.29012 -10.28927 -10.28726 -10.28684
 Alpha  occ. eigenvalues --  -10.28645 -10.28526 -10.28282 -10.28138 -10.27784
 Alpha  occ. eigenvalues --  -10.27460  -3.22999  -1.96590  -1.96100  -1.95954
 Alpha  occ. eigenvalues --   -1.20813  -1.18241  -1.13467  -1.11740  -1.09713
 Alpha  occ. eigenvalues --   -1.09079  -1.06894  -1.06223  -1.05745  -1.05027
 Alpha  occ. eigenvalues --   -0.93459  -0.92038  -0.91769  -0.91460  -0.91252
 Alpha  occ. eigenvalues --   -0.90906  -0.90415  -0.89389  -0.89304  -0.89093
 Alpha  occ. eigenvalues --   -0.88197  -0.86988  -0.86298  -0.85874  -0.85569
 Alpha  occ. eigenvalues --   -0.85051  -0.84487  -0.83397  -0.82814  -0.82323
 Alpha  occ. eigenvalues --   -0.81526  -0.80297  -0.80098  -0.79854  -0.78372
 Alpha  occ. eigenvalues --   -0.77811  -0.77673  -0.77093  -0.76701  -0.75956
 Alpha  occ. eigenvalues --   -0.75396  -0.74816  -0.73845  -0.72943  -0.71351
 Alpha  occ. eigenvalues --   -0.71278  -0.70631  -0.70138  -0.69203  -0.68705
 Alpha  occ. eigenvalues --   -0.67655  -0.67138  -0.67012  -0.66457  -0.66238
 Alpha  occ. eigenvalues --   -0.65032  -0.64845  -0.64703  -0.64448  -0.62432
 Alpha  occ. eigenvalues --   -0.61966  -0.61352  -0.61162  -0.60900  -0.60113
 Alpha  occ. eigenvalues --   -0.59387  -0.59270  -0.58559  -0.58295  -0.57871
 Alpha  occ. eigenvalues --   -0.57731  -0.57049  -0.56637  -0.56449  -0.56249
 Alpha  occ. eigenvalues --   -0.55723  -0.55504  -0.55161  -0.54998  -0.54817
 Alpha  occ. eigenvalues --   -0.54574  -0.54539  -0.54392  -0.54133  -0.53567
 Alpha  occ. eigenvalues --   -0.53390  -0.53214  -0.53172  -0.52992  -0.52745
 Alpha  occ. eigenvalues --   -0.52442  -0.52340  -0.52052  -0.51964  -0.51647
 Alpha  occ. eigenvalues --   -0.51492  -0.51444  -0.51380  -0.50930  -0.50805
 Alpha  occ. eigenvalues --   -0.50345  -0.50128  -0.50051  -0.49951  -0.49752
 Alpha  occ. eigenvalues --   -0.49548  -0.49271  -0.48974  -0.48699  -0.48630
 Alpha  occ. eigenvalues --   -0.48465  -0.48364  -0.48321  -0.48169  -0.47917
 Alpha  occ. eigenvalues --   -0.47726  -0.47432  -0.47276  -0.46953  -0.46766
 Alpha  occ. eigenvalues --   -0.46494  -0.46402  -0.46041  -0.45891  -0.45781
 Alpha  occ. eigenvalues --   -0.45756  -0.45528  -0.45418  -0.44920  -0.44716
 Alpha  occ. eigenvalues --   -0.44543  -0.44462  -0.44402  -0.44101  -0.43937
 Alpha  occ. eigenvalues --   -0.43845  -0.43793  -0.43571  -0.43497  -0.43199
 Alpha  occ. eigenvalues --   -0.43087  -0.43056  -0.42818  -0.42690  -0.42552
 Alpha  occ. eigenvalues --   -0.42378  -0.41921  -0.41874  -0.41581  -0.41095
 Alpha  occ. eigenvalues --   -0.40782  -0.40090  -0.39852  -0.39603  -0.39170
 Alpha  occ. eigenvalues --   -0.39152  -0.39096  -0.38738  -0.38273  -0.38172
 Alpha  occ. eigenvalues --   -0.37849  -0.37830  -0.37002  -0.36888  -0.36597
 Alpha  occ. eigenvalues --   -0.36046  -0.35836  -0.35445  -0.33945  -0.33630
 Alpha  occ. eigenvalues --   -0.32716  -0.32136  -0.32091  -0.31985  -0.26519
 Alpha  occ. eigenvalues --   -0.23327
 Alpha virt. eigenvalues --   -0.07524  -0.00640   0.01770   0.03896   0.04595
 Alpha virt. eigenvalues --    0.06354   0.06846   0.06998   0.08181   0.09027
 Alpha virt. eigenvalues --    0.09751   0.10359   0.11461   0.12318   0.12356

 Mulliken charges:
               1
     1  Mg   0.949992
     2  C   -0.004586
     3  C   -0.061238
     4  C   -0.078497
     5  C   -0.082121
     6  N   -0.340726
     7  C   -0.054693
     8  C    0.014727
     9  C   -0.146014
    10  C    0.079762
    11  C    0.002836
    12  C    0.000337
    13  C   -0.015825
    14  C    0.193360
    15  O   -0.248725
    16  O   -0.368091
    17  N   -0.466512
    18  C    0.142913
    19  C   -0.142225
    20  C   -0.061331
    21  C    0.187078
    22  C    0.087415
    23  C    0.034058
    24  O   -0.222998
    25  C   -0.012207
    26  N   -0.356959
    27  C    0.043362
    28  C   -0.047921
    29  C   -0.077587
    30  C    0.054042
    31  C    0.015298
    32  C   -0.022925
    33  C   -0.053905
    34  N   -0.379567
    35  C    0.093628
    36  C   -0.172413
    37  C    0.015746
    38  C    0.109415
    39  C    0.077760
    40  C    0.102254
    41  O   -0.253327
    42  C   -0.046844
    43  C    0.211980
    44  O   -0.232532
    45  O   -0.306445
    46  C    0.132938
    47  C    0.248415
    48  C   -0.128590
    49  C   -0.236869
    50  C    0.025985
    51  C    0.035354
    52  C   -0.012863
    53  C    0.055451
    54  C   -0.200981
    55  C    0.008200
    56  C   -0.000769
    57  C   -0.023750
    58  C   -0.006270
    59  C   -0.208728
    60  C    0.007904
    61  C    0.035247
    62  C   -0.051146
    63  C    0.007401
    64  C   -0.239692
    65  C   -0.009401
    66  C    0.011575
    67  H    0.002104
    68  H   -0.040008
    69  H    0.001542
    70  H    0.042640
    71  H    0.052390
    72  H    0.053207
    73  H    0.035127
    74  H    0.044691
    75  H    0.071594
    76  H    0.047525
    77  H    0.053297
    78  H    0.060750
    79  H    0.063327
    80  H    0.013852
    81  H    0.056366
    82  H    0.048605
    83  H    0.062759
    84  H    0.054213
    85  H    0.045791
    86  H    0.043085
    87  H    0.042412
    88  H    0.025504
    89  H    0.044430
    90  H    0.048494
    91  H    0.030071
    92  H    0.034829
    93  H    0.020839
    94  H    0.043442
    95  H    0.063622
    96  H    0.055264
    97  H    0.027067
    98  H    0.060605
    99  H    0.043728
   100  H    0.029610
   101  H    0.036737
   102  H    0.062440
   103  H    0.030716
   104  H    0.013816
   105  H    0.060180
   106  H    0.032930
   107  H    0.046128
   108  H    0.027738
   109  H    0.011928
   110  H    0.021334
   111  H    0.020241
   112  H    0.012752
   113  H    0.013449
   114  H    0.013705
   115  H    0.034249
   116  H    0.028346
   117  H    0.029275
   118  H    0.023702
   119  H    0.029844
   120  H    0.017698
   121  H    0.020418
   122  H   -0.000401
   123  H    0.011416
   124  H    0.017755
   125  H    0.038713
   126  H    0.027930
   127  H    0.027117
   128  H    0.019004
   129  H    0.019608
   130  H    0.020217
   131  H    0.026074
   132  H    0.016746
   133  H    0.016521
   134  H    0.020232
   135  H    0.026865
   136  H    0.028052
   137  H    0.023305
   138  H    0.039752
   139  H    0.013124
   140  H    0.028414
 Sum of Mulliken charges =  -0.00000

 Dipole moment (field-independent basis, Debye):
    X=              2.8431    Y=              6.9681    Z=              1.0138  Tot=              7.5938
 Quadrupole moment (field-independent basis, Debye-Ang):
   XX=           -428.4488   YY=           -409.2546   ZZ=           -399.2388
   XY=            -42.9471   XZ=            -32.4444   YZ=            -36.2685

 Normal termination of Gaussian 16 at Tue Apr 26 22:24:10 2022.
