 Gaussian 16, Revision A.03,
 Gaussian 16:  ES64L-G16RevA.03 25-Dec-2016

 --------------------
 #p ZINDO=(nstates=5)
 --------------------

 ------------------------------
 step_1001_chromophore_26 ZINDO
 ------------------------------
 Symbolic Z-matrix:
 Charge =  0 Multiplicity = 1

                         Standard orientation:
 ---------------------------------------------------------------------
 Center     Atomic      Atomic             Coordinates (Angstroms)
 Number     Number       Type             X           Y           Z
 ---------------------------------------------------------------------
      1         12           0       -3.663476    1.552363    0.782771
      2          6           0       -5.227549   -1.635568    0.019551
      3          6           0       -2.214612    0.062371    3.408298
      4          6           0       -1.715149    4.300045    1.040573
      5          6           0       -4.740543    2.694783   -2.409760
      6          7           0       -3.911235   -0.508926    1.632671
      7          6           0       -4.527645   -1.683778    1.227870
      8          6           0       -4.240772   -2.926498    2.055220
      9          6           0       -3.427110   -2.300330    3.242991
     10          6           0       -3.236022   -0.765950    2.781890
     11          6           0       -4.089205   -2.318659    4.690403
     12          6           0       -3.552146   -4.130325    1.257449
     13          6           0       -2.419730   -3.805346    0.203248
     14          6           0       -1.170969   -4.786908    0.236837
     15          8           0       -1.191987   -5.942405   -0.095166
     16          8           0        0.019430   -4.124792    0.453904
     17          7           0       -2.165357    2.160209    2.159292
     18          6           0       -1.695057    1.367422    3.166631
     19          6           0       -0.633350    2.131428    3.875081
     20          6           0       -0.640805    3.451632    3.346576
     21          6           0       -1.509706    3.373073    2.106698
     22          6           0        0.121172    1.574203    5.017143
     23          6           0        0.221920    4.566039    3.817952
     24          8           0        0.881811    4.427548    4.820742
     25          6           0        0.297569    5.828644    3.093031
     26          7           0       -3.325799    3.243681   -0.511877
     27          6           0       -2.423973    4.250944   -0.155411
     28          6           0       -2.415224    5.383625   -1.177183
     29          6           0       -3.372224    4.831617   -2.277637
     30          6           0       -3.918293    3.580712   -1.656361
     31          6           0       -2.609138    6.796158   -0.654654
     32          6           0       -2.637194    4.442473   -3.613319
     33          6           0       -3.037094    5.315980   -4.800328
     34          7           0       -4.667790    0.704129   -0.956260
     35          6           0       -5.029322    1.312811   -2.107924
     36          6           0       -5.796349    0.393143   -2.908958
     37          6           0       -5.911254   -0.731492   -2.107451
     38          6           0       -5.230523   -0.522568   -0.917231
     39          6           0       -6.356649    0.681569   -4.319653
     40          6           0       -6.553379   -1.958189   -2.063325
     41          8           0       -7.372727   -2.521025   -2.843543
     42          6           0       -6.166025   -2.742152   -0.726849
     43          6           0       -7.322536   -3.268000    0.082151
     44          8           0       -7.589200   -4.449379    0.070243
     45          8           0       -8.076826   -2.272721    0.634480
     46          6           0       -9.157125   -2.759370    1.306085
     47          6           0        1.233440   -4.888300    0.123002
     48          6           0        2.303972   -3.981416   -0.389787
     49          6           0        2.453358   -3.541828   -1.670218
     50          6           0        1.389852   -3.844859   -2.739218
     51          6           0        3.619446   -2.736832   -2.194713
     52          6           0        3.414394   -1.191004   -2.343152
     53          6           0        4.245600   -0.385207   -3.347426
     54          6           0        5.250506    0.575532   -2.765417
     55          6           0        5.707286    1.675791   -3.742495
     56          6           0        6.463164   -0.223753   -2.074712
     57          6           0        7.052932    0.608850   -0.895439
     58          6           0        7.755838   -0.262739    0.194477
     59          6           0        9.256048    0.049704    0.488124
     60          6           0        9.349513    1.202907    1.534922
     61          6           0       10.034622   -1.196807    0.852312
     62          6           0       11.502596   -0.733765    1.102941
     63          6           0       12.541179   -1.502157    0.226998
     64          6           0       13.931852   -0.712078    0.216700
     65          6           0       13.784823    0.568378   -0.568785
     66          6           0       15.200927   -1.408246   -0.280802
     67          1           0       -1.831114   -0.359294    4.339253
     68          1           0       -1.157635    5.236939    1.093691
     69          1           0       -4.966575    3.000502   -3.433806
     70          1           0       -5.183071   -3.380914    2.361161
     71          1           0       -2.489762   -2.835232    3.394942
     72          1           0       -4.359390   -1.299609    4.962972
     73          1           0       -3.340575   -2.662279    5.403481
     74          1           0       -4.878757   -3.063866    4.793871
     75          1           0       -4.266566   -4.787072    0.761171
     76          1           0       -3.064998   -4.658597    2.076169
     77          1           0       -2.068086   -2.774548    0.172337
     78          1           0       -2.723717   -3.892550   -0.839585
     79          1           0        1.208380    1.587262    4.940465
     80          1           0       -0.309445    0.585401    5.174054
     81          1           0       -0.046858    2.101363    5.956371
     82          1           0       -0.697736    6.136416    2.771725
     83          1           0        0.831413    5.745494    2.146236
     84          1           0        0.739639    6.677272    3.614339
     85          1           0       -1.383378    5.439652   -1.526217
     86          1           0       -4.261113    5.404463   -2.540767
     87          1           0       -3.388488    7.250040   -1.266498
     88          1           0       -1.665871    7.323906   -0.795651
     89          1           0       -2.777386    7.026377    0.397312
     90          1           0       -2.841132    3.407419   -3.887128
     91          1           0       -1.555058    4.498740   -3.498481
     92          1           0       -2.242961    6.004062   -5.090013
     93          1           0       -3.869218    5.941619   -4.477758
     94          1           0       -3.340111    4.810785   -5.717602
     95          1           0       -7.353990    0.243256   -4.282056
     96          1           0       -5.814167    0.221476   -5.145034
     97          1           0       -6.378101    1.745423   -4.556489
     98          1           0       -5.703250   -3.699043   -0.966459
     99          1           0       -9.002760   -3.714712    1.807774
    100          1           0       -9.980326   -2.946914    0.615320
    101          1           0       -9.695984   -2.082490    1.968750
    102          1           0        1.020222   -5.748325   -0.513089
    103          1           0        1.612343   -5.312534    1.052822
    104          1           0        3.120858   -3.747727    0.293449
    105          1           0        1.627626   -4.802904   -3.199355
    106          1           0        1.372804   -3.079697   -3.514410
    107          1           0        0.419071   -3.803000   -2.244821
    108          1           0        3.985894   -3.266915   -3.074161
    109          1           0        4.399565   -2.914749   -1.453794
    110          1           0        3.548485   -0.800266   -1.334890
    111          1           0        2.335695   -1.103501   -2.469594
    112          1           0        3.545517    0.140572   -3.997107
    113          1           0        4.826123   -1.008928   -4.026839
    114          1           0        4.737816    1.134713   -1.982755
    115          1           0        6.720678    2.014785   -3.525007
    116          1           0        5.011357    2.500778   -3.590864
    117          1           0        5.596588    1.349340   -4.776014
    118          1           0        7.216121   -0.253579   -2.862661
    119          1           0        6.265635   -1.205578   -1.642734
    120          1           0        6.261240    1.123106   -0.350419
    121          1           0        7.811489    1.337758   -1.179331
    122          1           0        7.663865   -1.326429   -0.022819
    123          1           0        7.164257   -0.147633    1.102656
    124          1           0        9.686258    0.330603   -0.472913
    125          1           0        8.396666    1.708043    1.693815
    126          1           0       10.124170    1.924685    1.277768
    127          1           0        9.766313    0.813160    2.464096
    128          1           0        9.896973   -1.846786   -0.012823
    129          1           0        9.655073   -1.774438    1.694889
    130          1           0       11.775599   -1.224014    2.037341
    131          1           0       11.686549    0.334177    1.215753
    132          1           0       12.241356   -1.665530   -0.808284
    133          1           0       12.736152   -2.482844    0.660412
    134          1           0       14.117293   -0.469916    1.263554
    135          1           0       12.932806    0.639483   -1.243801
    136          1           0       14.674859    0.819494   -1.146661
    137          1           0       13.587601    1.320264    0.195721
    138          1           0       15.816491   -0.984129   -1.074034
    139          1           0       14.955394   -2.399429   -0.661780
    140          1           0       15.702282   -1.566949    0.673837
 ---------------------------------------------------------------------

 SCF Done:  E(RZINDO/S) =  -474.161206744     A.U. after   20 cycles

 Excitation energies and oscillator strengths:

 Excited State   1:      Singlet-A      1.2557 eV  987.41 nm  f=0.5833  <S**2>=0.000
     175 ->178        -0.18344
     176 ->177         0.66437
 This state for optimization and/or second-order correction.
 Total Energy, E(CIS/TDA) =  -474.115062260
 Copying the excited state density for this state as the 1-particle RhoCI density.

 Excited State   2:      Singlet-A      1.8846 eV  657.87 nm  f=0.0116  <S**2>=0.000
     175 ->177         0.50930
     176 ->178         0.46445

 Excited State   3:      Singlet-A      2.8869 eV  429.47 nm  f=0.0160  <S**2>=0.000
     170 ->177         0.31974
     170 ->178         0.10444
     170 ->179        -0.32987
     170 ->181        -0.39870
     170 ->185        -0.18870
     170 ->187         0.15644
     170 ->201         0.11337

 Excited State   4:      Singlet-A      2.9360 eV  422.29 nm  f=0.3191  <S**2>=0.000
     168 ->177        -0.16334
     168 ->178        -0.10935
     168 ->179        -0.25283
     168 ->181         0.16785
     168 ->185        -0.15866
     171 ->177        -0.13463
     175 ->177        -0.22219
     176 ->178         0.27642
     176 ->179         0.31641
     176 ->180         0.15049

 Excited State   5:      Singlet-A      2.9674 eV  417.82 nm  f=0.4398  <S**2>=0.000
     168 ->177         0.20569
     168 ->178         0.12293
     168 ->179         0.28843
     168 ->181        -0.19514
     168 ->185         0.16981
     175 ->177        -0.24577
     176 ->178         0.28821
     176 ->179         0.20046
     176 ->180         0.17903

 The electronic state is 1-A.
 Alpha  occ. eigenvalues --   -1.84299  -1.80914  -1.78363  -1.76199  -1.73026
 Alpha  occ. eigenvalues --   -1.70690  -1.64851  -1.62170  -1.61035  -1.56545
 Alpha  occ. eigenvalues --   -1.54966  -1.51689  -1.48511  -1.48011  -1.46539
 Alpha  occ. eigenvalues --   -1.44283  -1.42604  -1.41694  -1.39311  -1.38727
 Alpha  occ. eigenvalues --   -1.35327  -1.32183  -1.31791  -1.30943  -1.28490
 Alpha  occ. eigenvalues --   -1.27524  -1.26955  -1.23960  -1.21079  -1.17810
 Alpha  occ. eigenvalues --   -1.16550  -1.15933  -1.14956  -1.14707  -1.13747
 Alpha  occ. eigenvalues --   -1.13721  -1.11350  -1.09828  -1.05574  -1.04561
 Alpha  occ. eigenvalues --   -1.02820  -1.01564  -1.00175  -0.97868  -0.97548
 Alpha  occ. eigenvalues --   -0.96461  -0.94626  -0.93976  -0.93141  -0.91429
 Alpha  occ. eigenvalues --   -0.90747  -0.89935  -0.89418  -0.89271  -0.86638
 Alpha  occ. eigenvalues --   -0.85935  -0.84728  -0.83804  -0.83240  -0.81248
 Alpha  occ. eigenvalues --   -0.79661  -0.79308  -0.78950  -0.77504  -0.76998
 Alpha  occ. eigenvalues --   -0.76973  -0.75973  -0.75101  -0.74390  -0.73754
 Alpha  occ. eigenvalues --   -0.72780  -0.72055  -0.71827  -0.71621  -0.70878
 Alpha  occ. eigenvalues --   -0.70801  -0.70169  -0.69450  -0.68964  -0.68822
 Alpha  occ. eigenvalues --   -0.68193  -0.67000  -0.66437  -0.66138  -0.65448
 Alpha  occ. eigenvalues --   -0.65093  -0.64885  -0.64697  -0.64336  -0.63498
 Alpha  occ. eigenvalues --   -0.63196  -0.62759  -0.62659  -0.61855  -0.61611
 Alpha  occ. eigenvalues --   -0.61446  -0.61208  -0.60824  -0.60610  -0.60167
 Alpha  occ. eigenvalues --   -0.59779  -0.59464  -0.58809  -0.58411  -0.58194
 Alpha  occ. eigenvalues --   -0.57757  -0.57581  -0.56858  -0.56549  -0.56418
 Alpha  occ. eigenvalues --   -0.56138  -0.55683  -0.55563  -0.55399  -0.54592
 Alpha  occ. eigenvalues --   -0.54453  -0.54368  -0.53486  -0.53300  -0.52844
 Alpha  occ. eigenvalues --   -0.52645  -0.52520  -0.52076  -0.51924  -0.51861
 Alpha  occ. eigenvalues --   -0.51641  -0.51085  -0.50982  -0.50854  -0.50700
 Alpha  occ. eigenvalues --   -0.50398  -0.49991  -0.49808  -0.49190  -0.49127
 Alpha  occ. eigenvalues --   -0.48931  -0.48768  -0.48490  -0.48274  -0.47851
 Alpha  occ. eigenvalues --   -0.47571  -0.47307  -0.47173  -0.46935  -0.46655
 Alpha  occ. eigenvalues --   -0.46307  -0.46242  -0.46150  -0.46026  -0.45884
 Alpha  occ. eigenvalues --   -0.45566  -0.45017  -0.44866  -0.44762  -0.44073
 Alpha  occ. eigenvalues --   -0.44051  -0.43854  -0.43431  -0.43054  -0.43035
 Alpha  occ. eigenvalues --   -0.41900  -0.41861  -0.41360  -0.39173  -0.38813
 Alpha  occ. eigenvalues --   -0.38194  -0.37564  -0.36265  -0.34969  -0.34315
 Alpha  occ. eigenvalues --   -0.34155  -0.33212  -0.32641  -0.32522  -0.27445
 Alpha  occ. eigenvalues --   -0.22239
 Alpha virt. eigenvalues --   -0.09021  -0.03195  -0.01232   0.00461   0.00705
 Alpha virt. eigenvalues --    0.01894   0.02197   0.02556   0.04105   0.04615
 Alpha virt. eigenvalues --    0.05388   0.05954   0.06257   0.06723   0.07274

 Mulliken charges:
               1
     1  Mg   0.440165
     2  C   -0.051950
     3  C   -0.080703
     4  C   -0.088996
     5  C   -0.086975
     6  N   -0.270977
     7  C    0.102764
     8  C    0.010702
     9  C   -0.000157
    10  C    0.141906
    11  C   -0.055144
    12  C   -0.017807
    13  C    0.000322
    14  C    0.456977
    15  O   -0.503990
    16  O   -0.274287
    17  N   -0.322229
    18  C    0.122123
    19  C    0.065799
    20  C   -0.050178
    21  C    0.131561
    22  C   -0.034344
    23  C    0.343298
    24  O   -0.519731
    25  C   -0.024983
    26  N   -0.275506
    27  C    0.137726
    28  C    0.014756
    29  C    0.007600
    30  C    0.120272
    31  C   -0.050289
    32  C   -0.027474
    33  C   -0.060077
    34  N   -0.318134
    35  C    0.085347
    36  C    0.013019
    37  C   -0.031337
    38  C    0.100098
    39  C   -0.042104
    40  C    0.325352
    41  O   -0.547414
    42  C    0.030497
    43  C    0.484762
    44  O   -0.505176
    45  O   -0.244972
    46  C    0.078908
    47  C    0.111179
    48  C   -0.097032
    49  C    0.001982
    50  C   -0.047427
    51  C   -0.019491
    52  C   -0.027380
    53  C   -0.019842
    54  C   -0.011087
    55  C   -0.055060
    56  C   -0.039258
    57  C   -0.043748
    58  C   -0.048151
    59  C   -0.008287
    60  C   -0.057801
    61  C   -0.028771
    62  C   -0.046273
    63  C   -0.032698
    64  C   -0.014535
    65  C   -0.056589
    66  C   -0.061648
    67  H    0.024020
    68  H    0.019997
    69  H    0.028317
    70  H    0.037623
    71  H    0.035933
    72  H    0.030684
    73  H    0.016096
    74  H    0.029130
    75  H    0.044750
    76  H    0.024250
    77  H    0.035580
    78  H    0.042333
    79  H    0.048093
    80  H    0.018688
    81  H    0.039878
    82  H    0.026156
    83  H    0.038185
    84  H    0.037484
    85  H    0.031970
    86  H    0.040424
    87  H    0.021640
    88  H    0.012579
    89  H    0.029447
    90  H    0.028574
    91  H    0.018219
    92  H    0.015130
    93  H    0.014554
    94  H    0.024222
    95  H    0.036876
    96  H    0.034363
    97  H    0.021809
    98  H    0.062396
    99  H    0.042875
   100  H    0.029670
   101  H    0.024561
   102  H    0.059561
   103  H    0.028937
   104  H    0.025183
   105  H    0.036573
   106  H    0.017972
   107  H    0.028170
   108  H    0.026525
   109  H    0.008744
   110  H    0.017419
   111  H    0.018816
   112  H    0.011371
   113  H    0.016818
   114  H    0.012761
   115  H    0.023587
   116  H    0.014335
   117  H    0.021038
   118  H    0.020398
   119  H    0.035052
   120  H    0.017738
   121  H    0.022106
   122  H    0.011572
   123  H    0.011092
   124  H    0.019127
   125  H    0.024550
   126  H    0.014043
   127  H    0.018312
   128  H    0.015494
   129  H    0.022336
   130  H    0.009323
   131  H    0.044050
   132  H    0.019836
   133  H    0.015231
   134  H    0.015859
   135  H    0.017114
   136  H    0.018527
   137  H    0.009149
   138  H    0.032423
   139  H    0.007850
   140  H    0.017398
 Sum of Mulliken charges =  -0.00000

 Dipole moment (field-independent basis, Debye):
    X=              4.6489    Y=              9.0845    Z=              2.2861  Tot=             10.4579
 N-N= 4.469452509802D+03 E-N= 0.000000000000D+00  KE=-9.612199800426D+03
 Leave Link  601 at Tue Apr 26 22:37:08 2022, MaxMem=  6710886400 cpu:               0.8 elap:               0.1
 (Enter /sw/apps/gaussian-16.0/g16/l9999.exe)
 1\1\GINC-BP1-COMPUTE140\SP\RZINDO CIS\STO-3G\C55H74Mg1N4O6\OF15641\26-
 Apr-2022\0\\#p ZINDO=(nstates=5)\\step_1001_chromophore_26 ZINDO\\0,1\
 Mg,0,-9.144,18.727,43.009\C,0,-5.583,18.044,43.22\C,0,-8.356,21.854,42
 .107\C,0,-12.391,19.11,42.159\C,0,-9.698,15.224,43.291\N,0,-7.164,19.7
 75,42.891\C,0,-5.832,19.395,42.965\C,0,-4.799,20.45,42.603\C,0,-5.72,2
 1.711,42.44\C,0,-7.205,21.095,42.577\C,0,-5.559,22.892,43.495\C,0,-3.8
 51,20.078,41.369\C,0,-4.477,19.357,40.109\C,0,-3.967,19.898,38.705\O,0

 Normal termination of Gaussian 16 at Tue Apr 26 22:37:09 2022.
