 Gaussian 16, Revision A.03,
 Gaussian 16:  ES64L-G16RevA.03 25-Dec-2016

 ------------------------------
 #p blyp/Def2SVP td=(nstates=5)
 ------------------------------

 -------------------------------------------------
 step_151_chromophore_7 TDDFT with blyp functional
 -------------------------------------------------
 Symbolic Z-matrix:
 Charge =  0 Multiplicity = 1

                         Standard orientation:
 ---------------------------------------------------------------------
 Center     Atomic      Atomic             Coordinates (Angstroms)
 Number     Number       Type             X           Y           Z
 ---------------------------------------------------------------------
      1         12           0        5.893077    0.498572    0.083343
      2          6           0        3.715059   -2.245217   -0.006453
      3          6           0        3.302633    2.505311   -1.227521
      4          6           0        8.029257    3.109904    0.108012
      5          6           0        8.611967   -1.738528    0.864517
      6          7           0        3.716272    0.108922   -0.538849
      7          6           0        3.063108   -1.108293   -0.425444
      8          6           0        1.627038   -0.894893   -0.747564
      9          6           0        1.538087    0.543690   -1.365937
     10          6           0        2.951247    1.115063   -1.104045
     11          6           0        1.019045    0.755011   -2.766804
     12          6           0        0.657678   -1.155671    0.454904
     13          6           0       -0.709207   -1.881861    0.197813
     14          6           0       -2.018662   -1.453667    0.970194
     15          8           0       -2.050276   -0.994653    2.116702
     16          8           0       -3.111161   -1.921124    0.243646
     17          7           0        5.713271    2.477116   -0.600236
     18          6           0        4.582849    3.172570   -0.988335
     19          6           0        4.808445    4.622691   -1.095072
     20          6           0        6.192306    4.834871   -0.891596
     21          6           0        6.735141    3.430834   -0.468117
     22          6           0        3.695065    5.636572   -1.439520
     23          6           0        6.996947    6.052200   -0.924627
     24          8           0        8.210060    6.070490   -0.715749
     25          6           0        6.355181    7.403885   -1.172706
     26          7           0        8.148948    0.578335    0.190886
     27          6           0        8.688280    1.822622    0.398428
     28          6           0        9.995635    1.647821    1.175902
     29          6           0       10.344501    0.152788    1.023749
     30          6           0        8.953663   -0.389821    0.685855
     31          6           0       11.103553    2.580046    0.585182
     32          6           0       10.990752   -0.470421    2.316268
     33          6           0       12.283616   -1.265720    2.056612
     34          7           0        6.172613   -1.584394    0.396469
     35          6           0        7.338194   -2.313024    0.724524
     36          6           0        6.833062   -3.690617    0.926538
     37          6           0        5.500645   -3.743086    0.649633
     38          6           0        5.098757   -2.381262    0.329929
     39          6           0        7.692591   -4.918082    1.408150
     40          6           0        4.384844   -4.572463    0.597678
     41          8           0        4.247958   -5.766592    0.794986
     42          6           0        3.222762   -3.632380    0.148341
     43          6           0        2.512802   -4.151530   -1.080252
     44          8           0        2.799401   -3.884618   -2.261677
     45          8           0        1.624869   -5.067972   -0.652335
     46          6           0        0.908433   -5.908163   -1.651223
     47          6           0       -4.401257   -1.781037    0.878560
     48          6           0       -5.193132   -0.862727   -0.101172
     49          6           0       -6.430223   -1.014842   -0.626192
     50          6           0       -7.271371   -2.125475   -0.113096
     51          6           0       -6.934747    0.154708   -1.395548
     52          6           0       -7.871044   -0.059762   -2.552140
     53          6           0       -9.317711    0.350378   -2.115436
     54          6           0      -10.453425   -0.486195   -2.808417
     55          6           0      -10.464491   -0.362343   -4.361312
     56          6           0      -11.743562   -0.008535   -2.140558
     57          6           0      -12.197858   -0.980699   -0.985620
     58          6           0      -12.470280   -0.193788    0.250424
     59          6           0      -13.984609   -0.200836    0.762570
     60          6           0      -14.884548    0.598136   -0.285882
     61          6           0      -14.127621    0.411481    2.177357
     62          6           0      -13.451903    1.776167    2.303370
     63          6           0      -12.144943    1.728365    3.089833
     64          6           0      -11.407185    3.082003    3.136599
     65          6           0      -10.058672    2.994888    2.352251
     66          6           0      -11.175772    3.473018    4.646538
     67          1           0        2.461827    3.095557   -1.597951
     68          1           0        8.645719    3.976060    0.357951
     69          1           0        9.362427   -2.425887    1.262049
     70          1           0        1.305321   -1.597732   -1.516802
     71          1           0        0.823084    1.179798   -0.842453
     72          1           0        1.661943    1.492830   -3.245518
     73          1           0       -0.006991    1.121906   -2.730235
     74          1           0        0.897649   -0.159983   -3.347819
     75          1           0        0.340010   -0.221440    0.916819
     76          1           0        1.146051   -1.602264    1.321709
     77          1           0       -0.516983   -2.953033    0.266010
     78          1           0       -1.000233   -1.595255   -0.812785
     79          1           0        3.913099    6.092635   -2.405384
     80          1           0        3.697809    6.387539   -0.650520
     81          1           0        2.714561    5.163036   -1.471165
     82          1           0        5.479217    7.594845   -0.552622
     83          1           0        5.980671    7.388231   -2.195982
     84          1           0        7.141158    8.144082   -1.027145
     85          1           0        9.793038    1.892820    2.218312
     86          1           0       10.970235   -0.048495    0.153808
     87          1           0       11.868742    2.054389    0.013902
     88          1           0       11.531464    2.936173    1.522453
     89          1           0       10.686248    3.378711   -0.028534
     90          1           0       10.204566   -1.033880    2.819740
     91          1           0       11.210384    0.351628    2.997167
     92          1           0       12.988252   -0.792209    2.740648
     93          1           0       12.733670   -1.096252    1.079102
     94          1           0       12.258391   -2.326357    2.305501
     95          1           0        8.295377   -4.557971    2.241533
     96          1           0        8.301715   -5.304631    0.590962
     97          1           0        6.957761   -5.680800    1.664906
     98          1           0        2.432985   -3.474160    0.883582
     99          1           0        1.433318   -6.121384   -2.582881
    100          1           0        0.095773   -5.210501   -1.855974
    101          1           0        0.511977   -6.808687   -1.181860
    102          1           0       -4.317134   -1.374392    1.885627
    103          1           0       -4.880015   -2.750654    1.015872
    104          1           0       -4.649371    0.020559   -0.437099
    105          1           0       -6.934307   -2.781450    0.689366
    106          1           0       -7.595838   -2.698653   -0.981684
    107          1           0       -8.209490   -1.702063    0.245557
    108          1           0       -6.151883    0.787830   -1.812199
    109          1           0       -7.502067    0.658179   -0.613354
    110          1           0       -7.830094   -1.115964   -2.817239
    111          1           0       -7.515619    0.547820   -3.385571
    112          1           0       -9.466647    1.333890   -2.559676
    113          1           0       -9.483582    0.461470   -1.043801
    114          1           0      -10.378224   -1.571585   -2.730605
    115          1           0      -10.707460   -1.351869   -4.747578
    116          1           0       -9.443555   -0.148877   -4.677788
    117          1           0      -11.149398    0.404560   -4.723158
    118          1           0      -12.471500    0.029970   -2.950336
    119          1           0      -11.633910    1.034760   -1.842663
    120          1           0      -11.381281   -1.670289   -0.768481
    121          1           0      -13.058041   -1.580793   -1.281658
    122          1           0      -12.079945    0.795752    0.017183
    123          1           0      -11.876549   -0.581463    1.078949
    124          1           0      -14.489590   -1.165891    0.732149
    125          1           0      -14.441826    0.920090   -1.228862
    126          1           0      -15.325894    1.475619    0.185598
    127          1           0      -15.711622   -0.082875   -0.483730
    128          1           0      -13.656942   -0.419627    2.702436
    129          1           0      -15.145506    0.481452    2.561315
    130          1           0      -14.168502    2.490494    2.709886
    131          1           0      -13.194277    2.211103    1.337705
    132          1           0      -11.529020    0.934606    2.667539
    133          1           0      -12.358798    1.232193    4.036521
    134          1           0      -12.113197    3.810893    2.737183
    135          1           0       -9.717164    4.022177    2.228097
    136          1           0      -10.203944    2.448412    1.419865
    137          1           0       -9.209598    2.503086    2.825667
    138          1           0      -10.114171    3.623312    4.843701
    139          1           0      -11.572515    2.739092    5.347414
    140          1           0      -11.518736    4.478339    4.889897
 ---------------------------------------------------------------------

 SCF Done:  E(RB-LYP) =  -3007.36678085     A.U. after   21 cycles

 Excitation energies and oscillator strengths:

 Excited State   1:      Singlet-A      1.7376 eV  713.52 nm  f=0.2631  <S**2>=0.000
     245 -> 248       -0.19157
     246 -> 247        0.67550
     246 <- 247       -0.14296
 This state for optimization and/or second-order correction.
 Total Energy, E(TD-HF/TD-DFT) =  -3007.30292404
 Copying the excited state density for this state as the 1-particle RhoCI density.

 Excited State   2:      Singlet-A      1.8797 eV  659.59 nm  f=0.0660  <S**2>=0.000
     244 -> 247       -0.35590
     245 -> 247        0.56157
     246 -> 247       -0.10714
     246 -> 248        0.18758

 Excited State   3:      Singlet-A      1.9863 eV  624.21 nm  f=0.0195  <S**2>=0.000
     244 -> 247        0.60480
     245 -> 247        0.31701
     246 -> 248        0.15676

 Excited State   4:      Singlet-A      2.0495 eV  604.95 nm  f=0.0034  <S**2>=0.000
     243 -> 247        0.70503

 Excited State   5:      Singlet-A      2.2664 eV  547.05 nm  f=0.0001  <S**2>=0.000
     242 -> 247        0.70706

 The electronic state is 1-A.
 Alpha  occ. eigenvalues --  -46.28754 -18.82632 -18.82402 -18.77779 -18.76278
 Alpha  occ. eigenvalues --  -18.75519 -18.75205 -14.03071 -14.02942 -14.02256
 Alpha  occ. eigenvalues --  -14.01039 -10.05088 -10.03684  -9.99459  -9.99168
 Alpha  occ. eigenvalues --   -9.98117  -9.97972  -9.97307  -9.96932  -9.96916
 Alpha  occ. eigenvalues --   -9.96726  -9.96355  -9.96135  -9.95764  -9.94958
 Alpha  occ. eigenvalues --   -9.94669  -9.94185  -9.94116  -9.93949  -9.93733
 Alpha  occ. eigenvalues --   -9.93730  -9.93670  -9.93586  -9.93568  -9.93448
 Alpha  occ. eigenvalues --   -9.93247  -9.93178  -9.93163  -9.93140  -9.92978
 Alpha  occ. eigenvalues --   -9.92864  -9.92829  -9.92731  -9.92489  -9.92374
 Alpha  occ. eigenvalues --   -9.92140  -9.92053  -9.92010  -9.91989  -9.91958
 Alpha  occ. eigenvalues --   -9.91884  -9.91786  -9.91752  -9.91626  -9.91377
 Alpha  occ. eigenvalues --   -9.91350  -9.91300  -9.91064  -9.91041  -9.91027
 Alpha  occ. eigenvalues --   -9.91020  -9.90897  -9.90681  -9.90434  -9.90394
 Alpha  occ. eigenvalues --   -9.90335  -2.93007  -1.73435  -1.72901  -1.72712
 Alpha  occ. eigenvalues --   -0.97655  -0.97501  -0.91399  -0.91063  -0.90241
 Alpha  occ. eigenvalues --   -0.88765  -0.85950  -0.85211  -0.84588  -0.83976
 Alpha  occ. eigenvalues --   -0.75741  -0.74518  -0.73228  -0.72267  -0.72102
 Alpha  occ. eigenvalues --   -0.72030  -0.71097  -0.70720  -0.70533  -0.70517
 Alpha  occ. eigenvalues --   -0.69194  -0.68925  -0.68224  -0.67398  -0.67039
 Alpha  occ. eigenvalues --   -0.66559  -0.65862  -0.65153  -0.64767  -0.64202
 Alpha  occ. eigenvalues --   -0.64099  -0.62581  -0.62331  -0.61640  -0.61326
 Alpha  occ. eigenvalues --   -0.60477  -0.60058  -0.59690  -0.59391  -0.59068
 Alpha  occ. eigenvalues --   -0.58061  -0.57524  -0.56467  -0.55622  -0.54577
 Alpha  occ. eigenvalues --   -0.54432  -0.54074  -0.53190  -0.52664  -0.51589
 Alpha  occ. eigenvalues --   -0.51544  -0.51119  -0.50764  -0.50273  -0.50086
 Alpha  occ. eigenvalues --   -0.49626  -0.49520  -0.48325  -0.47621  -0.46739
 Alpha  occ. eigenvalues --   -0.46221  -0.45838  -0.45607  -0.44936  -0.43991
 Alpha  occ. eigenvalues --   -0.43853  -0.43760  -0.43544  -0.43004  -0.42534
 Alpha  occ. eigenvalues --   -0.41956  -0.41711  -0.41432  -0.41159  -0.40964
 Alpha  occ. eigenvalues --   -0.40829  -0.40585  -0.40476  -0.40359  -0.40148
 Alpha  occ. eigenvalues --   -0.39867  -0.39646  -0.39614  -0.39330  -0.39173
 Alpha  occ. eigenvalues --   -0.38890  -0.38766  -0.38682  -0.38185  -0.38119
 Alpha  occ. eigenvalues --   -0.37928  -0.37833  -0.37589  -0.37432  -0.37355
 Alpha  occ. eigenvalues --   -0.37242  -0.36944  -0.36651  -0.36594  -0.36482
 Alpha  occ. eigenvalues --   -0.36390  -0.36247  -0.36134  -0.35602  -0.35473
 Alpha  occ. eigenvalues --   -0.35230  -0.34986  -0.34957  -0.34729  -0.34559
 Alpha  occ. eigenvalues --   -0.34388  -0.34326  -0.34228  -0.33927  -0.33913
 Alpha  occ. eigenvalues --   -0.33567  -0.33525  -0.33458  -0.33406  -0.33290
 Alpha  occ. eigenvalues --   -0.32839  -0.32765  -0.32600  -0.32457  -0.32252
 Alpha  occ. eigenvalues --   -0.32071  -0.31858  -0.31747  -0.31650  -0.31400
 Alpha  occ. eigenvalues --   -0.31345  -0.31127  -0.31092  -0.30948  -0.30491
 Alpha  occ. eigenvalues --   -0.30461  -0.30282  -0.30222  -0.30104  -0.29876
 Alpha  occ. eigenvalues --   -0.29750  -0.29530  -0.29316  -0.28910  -0.28851
 Alpha  occ. eigenvalues --   -0.28533  -0.28532  -0.28366  -0.28180  -0.27824
 Alpha  occ. eigenvalues --   -0.27774  -0.27449  -0.27124  -0.26895  -0.26395
 Alpha  occ. eigenvalues --   -0.26045  -0.25703  -0.25622  -0.25401  -0.24923
 Alpha  occ. eigenvalues --   -0.24918  -0.24738  -0.24038  -0.23887  -0.23329
 Alpha  occ. eigenvalues --   -0.22792  -0.22610  -0.22161  -0.21483  -0.21266
 Alpha  occ. eigenvalues --   -0.20654  -0.19832  -0.18918  -0.18574  -0.16960
 Alpha  occ. eigenvalues --   -0.15659
 Alpha virt. eigenvalues --   -0.11504  -0.07432  -0.06243  -0.04794  -0.03974
 Alpha virt. eigenvalues --   -0.03163  -0.02300  -0.01757  -0.01593   0.00099
 Alpha virt. eigenvalues --    0.01558   0.01640   0.02065   0.02212   0.02698

 Mulliken charges:
               1
     1  Mg   0.674000
     2  C    0.075968
     3  C   -0.061977
     4  C   -0.028088
     5  C   -0.050420
     6  N   -0.226146
     7  C   -0.087632
     8  C    0.085571
     9  C   -0.021609
    10  C    0.028485
    11  C    0.127235
    12  C    0.097253
    13  C    0.060249
    14  C    0.109554
    15  O   -0.190957
    16  O   -0.272550
    17  N   -0.291549
    18  C    0.136842
    19  C   -0.158705
    20  C    0.073190
    21  C    0.102063
    22  C    0.175294
    23  C   -0.116018
    24  O   -0.174926
    25  C    0.130434
    26  N   -0.179358
    27  C   -0.007037
    28  C   -0.019796
    29  C    0.053969
    30  C   -0.011991
    31  C    0.124899
    32  C    0.090158
    33  C    0.069990
    34  N   -0.267802
    35  C    0.106023
    36  C   -0.214302
    37  C    0.142496
    38  C    0.024249
    39  C    0.158359
    40  C   -0.032108
    41  O   -0.117569
    42  C    0.042214
    43  C    0.100270
    44  O   -0.209338
    45  O   -0.256626
    46  C    0.217151
    47  C    0.315773
    48  C   -0.105985
    49  C   -0.129557
    50  C    0.154263
    51  C    0.127528
    52  C    0.099166
    53  C    0.045702
    54  C   -0.104097
    55  C    0.103693
    56  C    0.089153
    57  C    0.134912
    58  C    0.062524
    59  C   -0.083695
    60  C    0.077237
    61  C    0.122362
    62  C    0.061562
    63  C    0.082759
    64  C   -0.039664
    65  C    0.093869
    66  C    0.093807
    67  H   -0.061097
    68  H   -0.029557
    69  H   -0.058595
    70  H   -0.019528
    71  H   -0.024179
    72  H   -0.003874
    73  H   -0.022648
    74  H   -0.006145
    75  H   -0.030128
    76  H   -0.015290
    77  H    0.029402
    78  H   -0.003953
    79  H    0.013683
    80  H    0.008877
    81  H   -0.009913
    82  H   -0.003341
    83  H   -0.001384
    84  H    0.000370
    85  H   -0.012195
    86  H   -0.013107
    87  H   -0.013068
    88  H   -0.014479
    89  H    0.019487
    90  H   -0.021759
    91  H   -0.026679
    92  H   -0.017462
    93  H   -0.006189
    94  H    0.003089
    95  H    0.001370
    96  H    0.007034
    97  H    0.008235
    98  H   -0.008100
    99  H    0.032379
   100  H    0.007799
   101  H    0.029828
   102  H    0.005039
   103  H   -0.016196
   104  H   -0.051226
   105  H   -0.002476
   106  H   -0.011177
   107  H   -0.017733
   108  H   -0.029885
   109  H   -0.008235
   110  H   -0.023929
   111  H   -0.019031
   112  H   -0.028553
   113  H   -0.011005
   114  H   -0.038581
   115  H   -0.017367
   116  H   -0.023091
   117  H   -0.010122
   118  H   -0.046613
   119  H   -0.032709
   120  H   -0.033381
   121  H   -0.028623
   122  H   -0.014880
   123  H   -0.034379
   124  H   -0.037502
   125  H   -0.008541
   126  H   -0.021794
   127  H   -0.026613
   128  H   -0.034027
   129  H   -0.036047
   130  H   -0.035969
   131  H   -0.027569
   132  H   -0.055267
   133  H   -0.045703
   134  H   -0.026306
   135  H   -0.015982
   136  H   -0.008499
   137  H   -0.013017
   138  H   -0.032775
   139  H   -0.006175
   140  H   -0.023669
 Sum of Mulliken charges =  -0.00000

 Dipole moment (field-independent basis, Debye):
    X=             -4.0048    Y=              1.7385    Z=              0.1857  Tot=              4.3698
 Quadrupole moment (field-independent basis, Debye-Ang):
   XX=           -381.5502   YY=           -417.4059   ZZ=           -412.0419
   XY=              1.5655   XZ=             25.8492   YZ=              0.4162

 Normal termination of Gaussian 16 at Wed May  4 09:38:01 2022.
