 Gaussian 16, Revision A.03,
 Gaussian 16:  ES64L-G16RevA.03 25-Dec-2016

 -----------------------------------
 #p cam-b3lyp/Def2SVP td=(nstates=5)
 -----------------------------------

 ------------------------------------------------------
 step_151_chromophore_7 TDDFT with cam-b3lyp functional
 ------------------------------------------------------
 Symbolic Z-matrix:
 Charge =  0 Multiplicity = 1

                         Standard orientation:
 ---------------------------------------------------------------------
 Center     Atomic      Atomic             Coordinates (Angstroms)
 Number     Number       Type             X           Y           Z
 ---------------------------------------------------------------------
      1         12           0        5.893077    0.498572    0.083343
      2          6           0        3.715059   -2.245217   -0.006453
      3          6           0        3.302633    2.505311   -1.227521
      4          6           0        8.029257    3.109904    0.108012
      5          6           0        8.611967   -1.738528    0.864517
      6          7           0        3.716272    0.108922   -0.538849
      7          6           0        3.063108   -1.108293   -0.425444
      8          6           0        1.627038   -0.894893   -0.747564
      9          6           0        1.538087    0.543690   -1.365937
     10          6           0        2.951247    1.115063   -1.104045
     11          6           0        1.019045    0.755011   -2.766804
     12          6           0        0.657678   -1.155671    0.454904
     13          6           0       -0.709207   -1.881861    0.197813
     14          6           0       -2.018662   -1.453667    0.970194
     15          8           0       -2.050276   -0.994653    2.116702
     16          8           0       -3.111161   -1.921124    0.243646
     17          7           0        5.713271    2.477116   -0.600236
     18          6           0        4.582849    3.172570   -0.988335
     19          6           0        4.808445    4.622691   -1.095072
     20          6           0        6.192306    4.834871   -0.891596
     21          6           0        6.735141    3.430834   -0.468117
     22          6           0        3.695065    5.636572   -1.439520
     23          6           0        6.996947    6.052200   -0.924627
     24          8           0        8.210060    6.070490   -0.715749
     25          6           0        6.355181    7.403885   -1.172706
     26          7           0        8.148948    0.578335    0.190886
     27          6           0        8.688280    1.822622    0.398428
     28          6           0        9.995635    1.647821    1.175902
     29          6           0       10.344501    0.152788    1.023749
     30          6           0        8.953663   -0.389821    0.685855
     31          6           0       11.103553    2.580046    0.585182
     32          6           0       10.990752   -0.470421    2.316268
     33          6           0       12.283616   -1.265720    2.056612
     34          7           0        6.172613   -1.584394    0.396469
     35          6           0        7.338194   -2.313024    0.724524
     36          6           0        6.833062   -3.690617    0.926538
     37          6           0        5.500645   -3.743086    0.649633
     38          6           0        5.098757   -2.381262    0.329929
     39          6           0        7.692591   -4.918082    1.408150
     40          6           0        4.384844   -4.572463    0.597678
     41          8           0        4.247958   -5.766592    0.794986
     42          6           0        3.222762   -3.632380    0.148341
     43          6           0        2.512802   -4.151530   -1.080252
     44          8           0        2.799401   -3.884618   -2.261677
     45          8           0        1.624869   -5.067972   -0.652335
     46          6           0        0.908433   -5.908163   -1.651223
     47          6           0       -4.401257   -1.781037    0.878560
     48          6           0       -5.193132   -0.862727   -0.101172
     49          6           0       -6.430223   -1.014842   -0.626192
     50          6           0       -7.271371   -2.125475   -0.113096
     51          6           0       -6.934747    0.154708   -1.395548
     52          6           0       -7.871044   -0.059762   -2.552140
     53          6           0       -9.317711    0.350378   -2.115436
     54          6           0      -10.453425   -0.486195   -2.808417
     55          6           0      -10.464491   -0.362343   -4.361312
     56          6           0      -11.743562   -0.008535   -2.140558
     57          6           0      -12.197858   -0.980699   -0.985620
     58          6           0      -12.470280   -0.193788    0.250424
     59          6           0      -13.984609   -0.200836    0.762570
     60          6           0      -14.884548    0.598136   -0.285882
     61          6           0      -14.127621    0.411481    2.177357
     62          6           0      -13.451903    1.776167    2.303370
     63          6           0      -12.144943    1.728365    3.089833
     64          6           0      -11.407185    3.082003    3.136599
     65          6           0      -10.058672    2.994888    2.352251
     66          6           0      -11.175772    3.473018    4.646538
     67          1           0        2.461827    3.095557   -1.597951
     68          1           0        8.645719    3.976060    0.357951
     69          1           0        9.362427   -2.425887    1.262049
     70          1           0        1.305321   -1.597732   -1.516802
     71          1           0        0.823084    1.179798   -0.842453
     72          1           0        1.661943    1.492830   -3.245518
     73          1           0       -0.006991    1.121906   -2.730235
     74          1           0        0.897649   -0.159983   -3.347819
     75          1           0        0.340010   -0.221440    0.916819
     76          1           0        1.146051   -1.602264    1.321709
     77          1           0       -0.516983   -2.953033    0.266010
     78          1           0       -1.000233   -1.595255   -0.812785
     79          1           0        3.913099    6.092635   -2.405384
     80          1           0        3.697809    6.387539   -0.650520
     81          1           0        2.714561    5.163036   -1.471165
     82          1           0        5.479217    7.594845   -0.552622
     83          1           0        5.980671    7.388231   -2.195982
     84          1           0        7.141158    8.144082   -1.027145
     85          1           0        9.793038    1.892820    2.218312
     86          1           0       10.970235   -0.048495    0.153808
     87          1           0       11.868742    2.054389    0.013902
     88          1           0       11.531464    2.936173    1.522453
     89          1           0       10.686248    3.378711   -0.028534
     90          1           0       10.204566   -1.033880    2.819740
     91          1           0       11.210384    0.351628    2.997167
     92          1           0       12.988252   -0.792209    2.740648
     93          1           0       12.733670   -1.096252    1.079102
     94          1           0       12.258391   -2.326357    2.305501
     95          1           0        8.295377   -4.557971    2.241533
     96          1           0        8.301715   -5.304631    0.590962
     97          1           0        6.957761   -5.680800    1.664906
     98          1           0        2.432985   -3.474160    0.883582
     99          1           0        1.433318   -6.121384   -2.582881
    100          1           0        0.095773   -5.210501   -1.855974
    101          1           0        0.511977   -6.808687   -1.181860
    102          1           0       -4.317134   -1.374392    1.885627
    103          1           0       -4.880015   -2.750654    1.015872
    104          1           0       -4.649371    0.020559   -0.437099
    105          1           0       -6.934307   -2.781450    0.689366
    106          1           0       -7.595838   -2.698653   -0.981684
    107          1           0       -8.209490   -1.702063    0.245557
    108          1           0       -6.151883    0.787830   -1.812199
    109          1           0       -7.502067    0.658179   -0.613354
    110          1           0       -7.830094   -1.115964   -2.817239
    111          1           0       -7.515619    0.547820   -3.385571
    112          1           0       -9.466647    1.333890   -2.559676
    113          1           0       -9.483582    0.461470   -1.043801
    114          1           0      -10.378224   -1.571585   -2.730605
    115          1           0      -10.707460   -1.351869   -4.747578
    116          1           0       -9.443555   -0.148877   -4.677788
    117          1           0      -11.149398    0.404560   -4.723158
    118          1           0      -12.471500    0.029970   -2.950336
    119          1           0      -11.633910    1.034760   -1.842663
    120          1           0      -11.381281   -1.670289   -0.768481
    121          1           0      -13.058041   -1.580793   -1.281658
    122          1           0      -12.079945    0.795752    0.017183
    123          1           0      -11.876549   -0.581463    1.078949
    124          1           0      -14.489590   -1.165891    0.732149
    125          1           0      -14.441826    0.920090   -1.228862
    126          1           0      -15.325894    1.475619    0.185598
    127          1           0      -15.711622   -0.082875   -0.483730
    128          1           0      -13.656942   -0.419627    2.702436
    129          1           0      -15.145506    0.481452    2.561315
    130          1           0      -14.168502    2.490494    2.709886
    131          1           0      -13.194277    2.211103    1.337705
    132          1           0      -11.529020    0.934606    2.667539
    133          1           0      -12.358798    1.232193    4.036521
    134          1           0      -12.113197    3.810893    2.737183
    135          1           0       -9.717164    4.022177    2.228097
    136          1           0      -10.203944    2.448412    1.419865
    137          1           0       -9.209598    2.503086    2.825667
    138          1           0      -10.114171    3.623312    4.843701
    139          1           0      -11.572515    2.739092    5.347414
    140          1           0      -11.518736    4.478339    4.889897
 ---------------------------------------------------------------------

 SCF Done:  E(RCAM-B3LYP) =  -3007.14580761     A.U. after   18 cycles

 Excitation energies and oscillator strengths:

 Excited State   1:      Singlet-A      1.6471 eV  752.76 nm  f=0.3680  <S**2>=0.000
     245 -> 248        0.18742
     246 -> 247        0.68218
     245 <- 248        0.10806
 This state for optimization and/or second-order correction.
 Total Energy, E(TD-HF/TD-DFT) =  -3007.08527931
 Copying the excited state density for this state as the 1-particle RhoCI density.

 Excited State   2:      Singlet-A      2.1408 eV  579.16 nm  f=0.0834  <S**2>=0.000
     245 -> 247        0.63004
     246 -> 248       -0.30806

 Excited State   3:      Singlet-A      3.3288 eV  372.46 nm  f=0.6280  <S**2>=0.000
     242 -> 247        0.12214
     245 -> 247        0.29444
     246 -> 248        0.61810
     245 <- 247       -0.10962

 Excited State   4:      Singlet-A      3.5348 eV  350.76 nm  f=0.0209  <S**2>=0.000
     239 -> 247       -0.16915
     239 -> 249       -0.10208
     240 -> 247        0.38123
     240 -> 248       -0.15970
     240 -> 249        0.21319
     240 -> 251        0.14412
     243 -> 247        0.38309

 Excited State   5:      Singlet-A      3.5726 eV  347.04 nm  f=0.0082  <S**2>=0.000
     240 -> 247       -0.34918
     240 -> 248        0.10604
     240 -> 249       -0.14859
     243 -> 247        0.55241

 The electronic state is 1-A.
 Alpha  occ. eigenvalues --  -46.90415 -19.25463 -19.25283 -19.20762 -19.19295
 Alpha  occ. eigenvalues --  -19.18654 -19.18503 -14.41852 -14.41843 -14.40921
 Alpha  occ. eigenvalues --  -14.39396 -10.40522 -10.39121 -10.34859 -10.34336
 Alpha  occ. eigenvalues --  -10.32124 -10.32085 -10.32022 -10.31599 -10.31560
 Alpha  occ. eigenvalues --  -10.31412 -10.30678 -10.30291 -10.29955 -10.29756
 Alpha  occ. eigenvalues --  -10.28850 -10.28282 -10.28245 -10.28113 -10.28099
 Alpha  occ. eigenvalues --  -10.27904 -10.27888 -10.27719 -10.27584 -10.27525
 Alpha  occ. eigenvalues --  -10.27343 -10.27283 -10.27219 -10.27092 -10.27030
 Alpha  occ. eigenvalues --  -10.26912 -10.26574 -10.26355 -10.26223 -10.26199
 Alpha  occ. eigenvalues --  -10.26050 -10.25809 -10.25768 -10.25681 -10.25634
 Alpha  occ. eigenvalues --  -10.25629 -10.25590 -10.25429 -10.25330 -10.25294
 Alpha  occ. eigenvalues --  -10.24985 -10.24944 -10.24733 -10.24712 -10.24701
 Alpha  occ. eigenvalues --  -10.24683 -10.24543 -10.24283 -10.24129 -10.24090
 Alpha  occ. eigenvalues --  -10.24023  -3.18554  -1.93463  -1.93005  -1.92846
 Alpha  occ. eigenvalues --   -1.16049  -1.15947  -1.09684  -1.09632  -1.08104
 Alpha  occ. eigenvalues --   -1.06655  -1.03611  -1.02790  -1.02147  -1.01517
 Alpha  occ. eigenvalues --   -0.92771  -0.91424  -0.90063  -0.88989  -0.88800
 Alpha  occ. eigenvalues --   -0.88644  -0.87969  -0.87356  -0.87135  -0.87067
 Alpha  occ. eigenvalues --   -0.85560  -0.85289  -0.84535  -0.83463  -0.83185
 Alpha  occ. eigenvalues --   -0.82604  -0.81836  -0.81279  -0.80516  -0.80082
 Alpha  occ. eigenvalues --   -0.79910  -0.78494  -0.77915  -0.77116  -0.76731
 Alpha  occ. eigenvalues --   -0.75846  -0.75389  -0.74985  -0.74619  -0.74324
 Alpha  occ. eigenvalues --   -0.73111  -0.72516  -0.71346  -0.70442  -0.69237
 Alpha  occ. eigenvalues --   -0.69131  -0.68696  -0.67687  -0.67054  -0.65792
 Alpha  occ. eigenvalues --   -0.65671  -0.65214  -0.64718  -0.64206  -0.64121
 Alpha  occ. eigenvalues --   -0.63589  -0.63296  -0.61951  -0.61372  -0.60220
 Alpha  occ. eigenvalues --   -0.59812  -0.59442  -0.59153  -0.58226  -0.57440
 Alpha  occ. eigenvalues --   -0.57238  -0.57172  -0.56673  -0.56046  -0.55808
 Alpha  occ. eigenvalues --   -0.55099  -0.54735  -0.54487  -0.54292  -0.53941
 Alpha  occ. eigenvalues --   -0.53635  -0.53345  -0.53209  -0.53071  -0.52902
 Alpha  occ. eigenvalues --   -0.52727  -0.52533  -0.52275  -0.51914  -0.51707
 Alpha  occ. eigenvalues --   -0.51350  -0.51116  -0.51003  -0.50725  -0.50489
 Alpha  occ. eigenvalues --   -0.50325  -0.50072  -0.49833  -0.49719  -0.49603
 Alpha  occ. eigenvalues --   -0.49505  -0.49426  -0.49393  -0.49033  -0.48747
 Alpha  occ. eigenvalues --   -0.48638  -0.48442  -0.48336  -0.48105  -0.47878
 Alpha  occ. eigenvalues --   -0.47325  -0.47185  -0.46806  -0.46669  -0.46492
 Alpha  occ. eigenvalues --   -0.46257  -0.46191  -0.46005  -0.45670  -0.45626
 Alpha  occ. eigenvalues --   -0.45426  -0.45370  -0.45156  -0.45101  -0.45050
 Alpha  occ. eigenvalues --   -0.44813  -0.44594  -0.44373  -0.44055  -0.43772
 Alpha  occ. eigenvalues --   -0.43667  -0.43544  -0.43215  -0.43087  -0.42820
 Alpha  occ. eigenvalues --   -0.42756  -0.42564  -0.42508  -0.42403  -0.42183
 Alpha  occ. eigenvalues --   -0.41937  -0.41732  -0.41663  -0.41399  -0.41177
 Alpha  occ. eigenvalues --   -0.41052  -0.40971  -0.40732  -0.40298  -0.39903
 Alpha  occ. eigenvalues --   -0.39578  -0.39529  -0.39405  -0.39042  -0.38801
 Alpha  occ. eigenvalues --   -0.38677  -0.38284  -0.37889  -0.37817  -0.37548
 Alpha  occ. eigenvalues --   -0.36948  -0.36556  -0.36285  -0.36088  -0.36082
 Alpha  occ. eigenvalues --   -0.36029  -0.35527  -0.34608  -0.34480  -0.34307
 Alpha  occ. eigenvalues --   -0.34003  -0.33514  -0.32519  -0.31691  -0.31100
 Alpha  occ. eigenvalues --   -0.30858  -0.30573  -0.29867  -0.29409  -0.23693
 Alpha  occ. eigenvalues --   -0.20819
 Alpha virt. eigenvalues --   -0.08553  -0.02320   0.00022   0.01747   0.02186
 Alpha virt. eigenvalues --    0.03901   0.05383   0.05499   0.05741   0.06961
 Alpha virt. eigenvalues --    0.07788   0.07898   0.08303   0.08682   0.08961

 Mulliken charges:
               1
     1  Mg   0.801636
     2  C    0.042332
     3  C   -0.080396
     4  C   -0.050330
     5  C   -0.057600
     6  N   -0.297982
     7  C   -0.039804
     8  C    0.032367
     9  C   -0.072712
    10  C    0.053027
    11  C    0.067813
    12  C    0.041994
    13  C    0.000330
    14  C    0.191251
    15  O   -0.233092
    16  O   -0.337137
    17  N   -0.376100
    18  C    0.147521
    19  C   -0.160321
    20  C    0.002183
    21  C    0.129599
    22  C    0.121842
    23  C   -0.038799
    24  O   -0.214983
    25  C    0.052455
    26  N   -0.247923
    27  C    0.020333
    28  C   -0.082052
    29  C    0.001018
    30  C    0.009573
    31  C    0.069360
    32  C    0.031077
    33  C    0.007669
    34  N   -0.355414
    35  C    0.106230
    36  C   -0.202632
    37  C    0.050214
    38  C    0.069276
    39  C    0.112640
    40  C    0.061854
    41  O   -0.158376
    42  C   -0.030130
    43  C    0.185170
    44  O   -0.247062
    45  O   -0.320388
    46  C    0.179053
    47  C    0.277457
    48  C   -0.125330
    49  C   -0.148197
    50  C    0.091253
    51  C    0.069271
    52  C    0.038799
    53  C   -0.001052
    54  C   -0.155111
    55  C    0.047976
    56  C    0.030073
    57  C    0.079796
    58  C    0.012164
    59  C   -0.130839
    60  C    0.019767
    61  C    0.065490
    62  C    0.000432
    63  C    0.034852
    64  C   -0.105558
    65  C    0.040294
    66  C    0.035925
    67  H   -0.029273
    68  H    0.008154
    69  H   -0.023369
    70  H    0.015121
    71  H    0.010804
    72  H    0.021589
    73  H    0.002338
    74  H    0.020026
    75  H    0.003584
    76  H    0.015955
    77  H    0.056664
    78  H    0.025912
    79  H    0.039819
    80  H    0.034038
    81  H    0.019070
    82  H    0.023969
    83  H    0.025854
    84  H    0.036342
    85  H    0.021454
    86  H    0.020267
    87  H    0.012197
    88  H    0.009843
    89  H    0.042939
    90  H    0.008949
    91  H    0.002412
    92  H    0.006631
    93  H    0.016986
    94  H    0.025960
    95  H    0.022960
    96  H    0.032341
    97  H    0.035451
    98  H    0.033462
    99  H    0.057253
   100  H    0.028730
   101  H    0.053011
   102  H    0.040084
   103  H    0.011681
   104  H   -0.018917
   105  H    0.023011
   106  H    0.012301
   107  H    0.004991
   108  H    0.002046
   109  H    0.019936
   110  H    0.003109
   111  H    0.009884
   112  H   -0.000056
   113  H    0.010742
   114  H   -0.008483
   115  H    0.007638
   116  H    0.000569
   117  H    0.013168
   118  H   -0.015687
   119  H   -0.004589
   120  H   -0.004478
   121  H    0.000845
   122  H    0.005835
   123  H   -0.006855
   124  H   -0.004786
   125  H    0.012982
   126  H    0.002103
   127  H   -0.001936
   128  H   -0.004828
   129  H   -0.004444
   130  H   -0.006065
   131  H   -0.001239
   132  H   -0.027465
   133  H   -0.015736
   134  H    0.005840
   135  H    0.008453
   136  H    0.009557
   137  H    0.010907
   138  H   -0.007928
   139  H    0.017426
   140  H    0.000893
 Sum of Mulliken charges =  -0.00000

 Dipole moment (field-independent basis, Debye):
    X=             -4.1129    Y=              2.6447    Z=              0.0792  Tot=              4.8905
 Quadrupole moment (field-independent basis, Debye-Ang):
   XX=           -380.9167   YY=           -411.8167   ZZ=           -412.1271
   XY=              6.3179   XZ=             26.6004   YZ=             -0.6004

 Normal termination of Gaussian 16 at Wed May  4 08:37:06 2022.
