 Gaussian 16, Revision A.03,
 Gaussian 16:  ES64L-G16RevA.03 25-Dec-2016

 ---------------------------------
 #p PBE1PBE/Def2SVP td=(nstates=5)
 ---------------------------------

 ----------------------------------------------------
 step_151_chromophore_7 TDDFT with PBE1PBE functional
 ----------------------------------------------------
 Symbolic Z-matrix:
 Charge =  0 Multiplicity = 1

                         Standard orientation:
 ---------------------------------------------------------------------
 Center     Atomic      Atomic             Coordinates (Angstroms)
 Number     Number       Type             X           Y           Z
 ---------------------------------------------------------------------
      1         12           0        5.893077    0.498572    0.083343
      2          6           0        3.715059   -2.245217   -0.006453
      3          6           0        3.302633    2.505311   -1.227521
      4          6           0        8.029257    3.109904    0.108012
      5          6           0        8.611967   -1.738528    0.864517
      6          7           0        3.716272    0.108922   -0.538849
      7          6           0        3.063108   -1.108293   -0.425444
      8          6           0        1.627038   -0.894893   -0.747564
      9          6           0        1.538087    0.543690   -1.365937
     10          6           0        2.951247    1.115063   -1.104045
     11          6           0        1.019045    0.755011   -2.766804
     12          6           0        0.657678   -1.155671    0.454904
     13          6           0       -0.709207   -1.881861    0.197813
     14          6           0       -2.018662   -1.453667    0.970194
     15          8           0       -2.050276   -0.994653    2.116702
     16          8           0       -3.111161   -1.921124    0.243646
     17          7           0        5.713271    2.477116   -0.600236
     18          6           0        4.582849    3.172570   -0.988335
     19          6           0        4.808445    4.622691   -1.095072
     20          6           0        6.192306    4.834871   -0.891596
     21          6           0        6.735141    3.430834   -0.468117
     22          6           0        3.695065    5.636572   -1.439520
     23          6           0        6.996947    6.052200   -0.924627
     24          8           0        8.210060    6.070490   -0.715749
     25          6           0        6.355181    7.403885   -1.172706
     26          7           0        8.148948    0.578335    0.190886
     27          6           0        8.688280    1.822622    0.398428
     28          6           0        9.995635    1.647821    1.175902
     29          6           0       10.344501    0.152788    1.023749
     30          6           0        8.953663   -0.389821    0.685855
     31          6           0       11.103553    2.580046    0.585182
     32          6           0       10.990752   -0.470421    2.316268
     33          6           0       12.283616   -1.265720    2.056612
     34          7           0        6.172613   -1.584394    0.396469
     35          6           0        7.338194   -2.313024    0.724524
     36          6           0        6.833062   -3.690617    0.926538
     37          6           0        5.500645   -3.743086    0.649633
     38          6           0        5.098757   -2.381262    0.329929
     39          6           0        7.692591   -4.918082    1.408150
     40          6           0        4.384844   -4.572463    0.597678
     41          8           0        4.247958   -5.766592    0.794986
     42          6           0        3.222762   -3.632380    0.148341
     43          6           0        2.512802   -4.151530   -1.080252
     44          8           0        2.799401   -3.884618   -2.261677
     45          8           0        1.624869   -5.067972   -0.652335
     46          6           0        0.908433   -5.908163   -1.651223
     47          6           0       -4.401257   -1.781037    0.878560
     48          6           0       -5.193132   -0.862727   -0.101172
     49          6           0       -6.430223   -1.014842   -0.626192
     50          6           0       -7.271371   -2.125475   -0.113096
     51          6           0       -6.934747    0.154708   -1.395548
     52          6           0       -7.871044   -0.059762   -2.552140
     53          6           0       -9.317711    0.350378   -2.115436
     54          6           0      -10.453425   -0.486195   -2.808417
     55          6           0      -10.464491   -0.362343   -4.361312
     56          6           0      -11.743562   -0.008535   -2.140558
     57          6           0      -12.197858   -0.980699   -0.985620
     58          6           0      -12.470280   -0.193788    0.250424
     59          6           0      -13.984609   -0.200836    0.762570
     60          6           0      -14.884548    0.598136   -0.285882
     61          6           0      -14.127621    0.411481    2.177357
     62          6           0      -13.451903    1.776167    2.303370
     63          6           0      -12.144943    1.728365    3.089833
     64          6           0      -11.407185    3.082003    3.136599
     65          6           0      -10.058672    2.994888    2.352251
     66          6           0      -11.175772    3.473018    4.646538
     67          1           0        2.461827    3.095557   -1.597951
     68          1           0        8.645719    3.976060    0.357951
     69          1           0        9.362427   -2.425887    1.262049
     70          1           0        1.305321   -1.597732   -1.516802
     71          1           0        0.823084    1.179798   -0.842453
     72          1           0        1.661943    1.492830   -3.245518
     73          1           0       -0.006991    1.121906   -2.730235
     74          1           0        0.897649   -0.159983   -3.347819
     75          1           0        0.340010   -0.221440    0.916819
     76          1           0        1.146051   -1.602264    1.321709
     77          1           0       -0.516983   -2.953033    0.266010
     78          1           0       -1.000233   -1.595255   -0.812785
     79          1           0        3.913099    6.092635   -2.405384
     80          1           0        3.697809    6.387539   -0.650520
     81          1           0        2.714561    5.163036   -1.471165
     82          1           0        5.479217    7.594845   -0.552622
     83          1           0        5.980671    7.388231   -2.195982
     84          1           0        7.141158    8.144082   -1.027145
     85          1           0        9.793038    1.892820    2.218312
     86          1           0       10.970235   -0.048495    0.153808
     87          1           0       11.868742    2.054389    0.013902
     88          1           0       11.531464    2.936173    1.522453
     89          1           0       10.686248    3.378711   -0.028534
     90          1           0       10.204566   -1.033880    2.819740
     91          1           0       11.210384    0.351628    2.997167
     92          1           0       12.988252   -0.792209    2.740648
     93          1           0       12.733670   -1.096252    1.079102
     94          1           0       12.258391   -2.326357    2.305501
     95          1           0        8.295377   -4.557971    2.241533
     96          1           0        8.301715   -5.304631    0.590962
     97          1           0        6.957761   -5.680800    1.664906
     98          1           0        2.432985   -3.474160    0.883582
     99          1           0        1.433318   -6.121384   -2.582881
    100          1           0        0.095773   -5.210501   -1.855974
    101          1           0        0.511977   -6.808687   -1.181860
    102          1           0       -4.317134   -1.374392    1.885627
    103          1           0       -4.880015   -2.750654    1.015872
    104          1           0       -4.649371    0.020559   -0.437099
    105          1           0       -6.934307   -2.781450    0.689366
    106          1           0       -7.595838   -2.698653   -0.981684
    107          1           0       -8.209490   -1.702063    0.245557
    108          1           0       -6.151883    0.787830   -1.812199
    109          1           0       -7.502067    0.658179   -0.613354
    110          1           0       -7.830094   -1.115964   -2.817239
    111          1           0       -7.515619    0.547820   -3.385571
    112          1           0       -9.466647    1.333890   -2.559676
    113          1           0       -9.483582    0.461470   -1.043801
    114          1           0      -10.378224   -1.571585   -2.730605
    115          1           0      -10.707460   -1.351869   -4.747578
    116          1           0       -9.443555   -0.148877   -4.677788
    117          1           0      -11.149398    0.404560   -4.723158
    118          1           0      -12.471500    0.029970   -2.950336
    119          1           0      -11.633910    1.034760   -1.842663
    120          1           0      -11.381281   -1.670289   -0.768481
    121          1           0      -13.058041   -1.580793   -1.281658
    122          1           0      -12.079945    0.795752    0.017183
    123          1           0      -11.876549   -0.581463    1.078949
    124          1           0      -14.489590   -1.165891    0.732149
    125          1           0      -14.441826    0.920090   -1.228862
    126          1           0      -15.325894    1.475619    0.185598
    127          1           0      -15.711622   -0.082875   -0.483730
    128          1           0      -13.656942   -0.419627    2.702436
    129          1           0      -15.145506    0.481452    2.561315
    130          1           0      -14.168502    2.490494    2.709886
    131          1           0      -13.194277    2.211103    1.337705
    132          1           0      -11.529020    0.934606    2.667539
    133          1           0      -12.358798    1.232193    4.036521
    134          1           0      -12.113197    3.810893    2.737183
    135          1           0       -9.717164    4.022177    2.228097
    136          1           0      -10.203944    2.448412    1.419865
    137          1           0       -9.209598    2.503086    2.825667
    138          1           0      -10.114171    3.623312    4.843701
    139          1           0      -11.572515    2.739092    5.347414
    140          1           0      -11.518736    4.478339    4.889897
 ---------------------------------------------------------------------

 SCF Done:  E(RPBE1PBE) =  -3005.33640720     A.U. after   15 cycles

 Excitation energies and oscillator strengths:

 Excited State   1:      Singlet-A      1.7977 eV  689.69 nm  f=0.3540  <S**2>=0.000
     245 -> 248       -0.17758
     246 -> 247        0.68911
     246 <- 247       -0.10344
 This state for optimization and/or second-order correction.
 Total Energy, E(TD-HF/TD-DFT) =  -3005.27034333
 Copying the excited state density for this state as the 1-particle RhoCI density.

 Excited State   2:      Singlet-A      2.1376 eV  580.03 nm  f=0.0904  <S**2>=0.000
     245 -> 247        0.64605
     246 -> 248        0.27052

 Excited State   3:      Singlet-A      3.0441 eV  407.30 nm  f=0.0277  <S**2>=0.000
     241 -> 247       -0.37573
     241 -> 249       -0.10534
     242 -> 247        0.39448
     243 -> 247       -0.31106
     246 -> 248       -0.18912

 Excited State   4:      Singlet-A      3.0949 eV  400.61 nm  f=0.0038  <S**2>=0.000
     241 -> 247        0.47710
     241 -> 249       -0.10123
     242 -> 247        0.45780
     242 -> 249       -0.13942

 Excited State   5:      Singlet-A      3.1308 eV  396.02 nm  f=0.2391  <S**2>=0.000
     243 -> 247       -0.36589
     245 -> 247       -0.19338
     246 -> 248        0.53136
     246 -> 249       -0.11387

 The electronic state is 1-A.
 Alpha  occ. eigenvalues --  -46.93806 -19.26240 -19.25978 -19.21097 -19.19586
 Alpha  occ. eigenvalues --  -19.18846 -19.18741 -14.41458 -14.41316 -14.40521
 Alpha  occ. eigenvalues --  -14.39123 -10.37620 -10.36171 -10.31829 -10.31518
 Alpha  occ. eigenvalues --  -10.29746 -10.29471 -10.29364 -10.29273 -10.29259
 Alpha  occ. eigenvalues --  -10.28965 -10.28495 -10.28182 -10.27719 -10.27442
 Alpha  occ. eigenvalues --  -10.26682 -10.25937 -10.25845 -10.25776 -10.25732
 Alpha  occ. eigenvalues --  -10.25614 -10.25502 -10.25424 -10.25413 -10.25191
 Alpha  occ. eigenvalues --  -10.25185 -10.25118 -10.25032 -10.24763 -10.24678
 Alpha  occ. eigenvalues --  -10.24576 -10.24273 -10.23927 -10.23902 -10.23751
 Alpha  occ. eigenvalues --  -10.23367 -10.23328 -10.23294 -10.23219 -10.23216
 Alpha  occ. eigenvalues --  -10.23212 -10.23068 -10.22999 -10.22907 -10.22825
 Alpha  occ. eigenvalues --  -10.22494 -10.22374 -10.22333 -10.22314 -10.22266
 Alpha  occ. eigenvalues --  -10.22106 -10.22074 -10.21986 -10.21681 -10.21646
 Alpha  occ. eigenvalues --  -10.21426  -3.15538  -1.88385  -1.87906  -1.87750
 Alpha  occ. eigenvalues --   -1.10915  -1.10762  -1.04477  -1.04277  -1.03017
 Alpha  occ. eigenvalues --   -1.01493  -0.98252  -0.97454  -0.96792  -0.96140
 Alpha  occ. eigenvalues --   -0.87228  -0.85583  -0.84153  -0.83160  -0.82997
 Alpha  occ. eigenvalues --   -0.82952  -0.82139  -0.81665  -0.81464  -0.81182
 Alpha  occ. eigenvalues --   -0.79960  -0.79538  -0.78733  -0.77792  -0.77430
 Alpha  occ. eigenvalues --   -0.76828  -0.76072  -0.75457  -0.74838  -0.74381
 Alpha  occ. eigenvalues --   -0.74068  -0.72663  -0.72205  -0.71481  -0.70937
 Alpha  occ. eigenvalues --   -0.70212  -0.69468  -0.69150  -0.68991  -0.68461
 Alpha  occ. eigenvalues --   -0.67433  -0.66971  -0.65801  -0.64754  -0.63658
 Alpha  occ. eigenvalues --   -0.63511  -0.62906  -0.62190  -0.61290  -0.60150
 Alpha  occ. eigenvalues --   -0.60000  -0.59663  -0.59262  -0.58812  -0.58270
 Alpha  occ. eigenvalues --   -0.57885  -0.57747  -0.56573  -0.55633  -0.54599
 Alpha  occ. eigenvalues --   -0.54391  -0.53963  -0.53695  -0.52892  -0.51986
 Alpha  occ. eigenvalues --   -0.51714  -0.51665  -0.51081  -0.50660  -0.50380
 Alpha  occ. eigenvalues --   -0.49711  -0.49360  -0.49018  -0.48755  -0.48555
 Alpha  occ. eigenvalues --   -0.48112  -0.47905  -0.47720  -0.47611  -0.47364
 Alpha  occ. eigenvalues --   -0.47270  -0.46878  -0.46728  -0.46495  -0.46287
 Alpha  occ. eigenvalues --   -0.45970  -0.45713  -0.45530  -0.45277  -0.45207
 Alpha  occ. eigenvalues --   -0.44824  -0.44733  -0.44527  -0.44267  -0.44137
 Alpha  occ. eigenvalues --   -0.44069  -0.44015  -0.43923  -0.43570  -0.43372
 Alpha  occ. eigenvalues --   -0.43218  -0.43104  -0.43022  -0.42704  -0.42595
 Alpha  occ. eigenvalues --   -0.41951  -0.41778  -0.41481  -0.41330  -0.41222
 Alpha  occ. eigenvalues --   -0.41038  -0.40925  -0.40692  -0.40420  -0.40206
 Alpha  occ. eigenvalues --   -0.40140  -0.40072  -0.39870  -0.39773  -0.39692
 Alpha  occ. eigenvalues --   -0.39552  -0.39302  -0.39162  -0.38820  -0.38480
 Alpha  occ. eigenvalues --   -0.38385  -0.38362  -0.38081  -0.37875  -0.37631
 Alpha  occ. eigenvalues --   -0.37586  -0.37411  -0.37312  -0.37149  -0.37058
 Alpha  occ. eigenvalues --   -0.36725  -0.36560  -0.36395  -0.36185  -0.36055
 Alpha  occ. eigenvalues --   -0.35937  -0.35828  -0.35725  -0.35202  -0.34713
 Alpha  occ. eigenvalues --   -0.34503  -0.34284  -0.34159  -0.34084  -0.33748
 Alpha  occ. eigenvalues --   -0.33484  -0.33047  -0.32798  -0.32715  -0.32589
 Alpha  occ. eigenvalues --   -0.31918  -0.31394  -0.31343  -0.31108  -0.31078
 Alpha  occ. eigenvalues --   -0.30988  -0.30467  -0.29496  -0.29435  -0.29238
 Alpha  occ. eigenvalues --   -0.29056  -0.28567  -0.28113  -0.27171  -0.26314
 Alpha  occ. eigenvalues --   -0.25791  -0.25748  -0.25548  -0.24768  -0.20641
 Alpha  occ. eigenvalues --   -0.18528
 Alpha virt. eigenvalues --   -0.11067  -0.05804  -0.04105  -0.02320  -0.00894
 Alpha virt. eigenvalues --   -0.00745   0.00793   0.01130   0.01316   0.03103
 Alpha virt. eigenvalues --    0.04344   0.04479   0.04747   0.05059   0.05572

 Mulliken charges:
               1
     1  Mg   0.940344
     2  C    0.019542
     3  C   -0.074016
     4  C   -0.049069
     5  C   -0.059713
     6  N   -0.398940
     7  C    0.033034
     8  C   -0.034455
     9  C   -0.145706
    10  C    0.091842
    11  C    0.011344
    12  C   -0.001963
    13  C   -0.077797
    14  C    0.253174
    15  O   -0.264731
    16  O   -0.363834
    17  N   -0.484239
    18  C    0.165206
    19  C   -0.181440
    20  C   -0.048255
    21  C    0.161690
    22  C    0.060551
    23  C    0.008853
    24  O   -0.252973
    25  C   -0.020457
    26  N   -0.348982
    27  C    0.061592
    28  C   -0.174278
    29  C   -0.069687
    30  C    0.055026
    31  C    0.016303
    32  C   -0.029696
    33  C   -0.062658
    34  N   -0.483124
    35  C    0.136905
    36  C   -0.213228
    37  C   -0.005659
    38  C    0.134923
    39  C    0.059277
    40  C    0.146627
    41  O   -0.206219
    42  C   -0.129279
    43  C    0.271177
    44  O   -0.281453
    45  O   -0.352465
    46  C    0.124057
    47  C    0.233659
    48  C   -0.134635
    49  C   -0.193304
    50  C    0.029577
    51  C    0.005972
    52  C   -0.024394
    53  C   -0.061489
    54  C   -0.238696
    55  C   -0.012043
    56  C   -0.027521
    57  C    0.024741
    58  C   -0.047749
    59  C   -0.217560
    60  C   -0.036604
    61  C    0.010094
    62  C   -0.069050
    63  C   -0.011075
    64  C   -0.203854
    65  C   -0.025346
    66  C   -0.020237
    67  H    0.003206
    68  H    0.039620
    69  H    0.010054
    70  H    0.055671
    71  H    0.047708
    72  H    0.049005
    73  H    0.029460
    74  H    0.046804
    75  H    0.036918
    76  H    0.047527
    77  H    0.089236
    78  H    0.058719
    79  H    0.066649
    80  H    0.061294
    81  H    0.045725
    82  H    0.050512
    83  H    0.053228
    84  H    0.062806
    85  H    0.058159
    86  H    0.057380
    87  H    0.039187
    88  H    0.037569
    89  H    0.069483
    90  H    0.041488
    91  H    0.035868
    92  H    0.034904
    93  H    0.043867
    94  H    0.052637
    95  H    0.049810
    96  H    0.060661
    97  H    0.063443
    98  H    0.074214
    99  H    0.077757
   100  H    0.051080
   101  H    0.074184
   102  H    0.066889
   103  H    0.038818
   104  H    0.011682
   105  H    0.048162
   106  H    0.040526
   107  H    0.034375
   108  H    0.032504
   109  H    0.054540
   110  H    0.037334
   111  H    0.041444
   112  H    0.034972
   113  H    0.044252
   114  H    0.028531
   115  H    0.035645
   116  H    0.029876
   117  H    0.039877
   118  H    0.017985
   119  H    0.025278
   120  H    0.028744
   121  H    0.033163
   122  H    0.039629
   123  H    0.025586
   124  H    0.032102
   125  H    0.041436
   126  H    0.030034
   127  H    0.025914
   128  H    0.028631
   129  H    0.027909
   130  H    0.027144
   131  H    0.031982
   132  H    0.006737
   133  H    0.016461
   134  H    0.042575
   135  H    0.037108
   136  H    0.039436
   137  H    0.037892
   138  H    0.019582
   139  H    0.043408
   140  H    0.028363
 Sum of Mulliken charges =  -0.00000

 Dipole moment (field-independent basis, Debye):
    X=             -4.1147    Y=              2.3219    Z=              0.1774  Tot=              4.7280
 Quadrupole moment (field-independent basis, Debye-Ang):
   XX=           -374.3669   YY=           -409.9438   ZZ=           -409.5507
   XY=              4.1838   XZ=             28.4632   YZ=             -0.6196

 Normal termination of Gaussian 16 at Wed May  4 08:55:11 2022.
