 Gaussian 16, Revision A.03,
 Gaussian 16:  ES64L-G16RevA.03 25-Dec-2016

 --------------------------------
 #p wB97XD/Def2SVP td=(nstates=5)
 --------------------------------

 ---------------------------------------------------
 step_151_chromophore_7 TDDFT with wB97XD functional
 ---------------------------------------------------
 Symbolic Z-matrix:
 Charge =  0 Multiplicity = 1

                         Standard orientation:
 ---------------------------------------------------------------------
 Center     Atomic      Atomic             Coordinates (Angstroms)
 Number     Number       Type             X           Y           Z
 ---------------------------------------------------------------------
      1         12           0        5.893077    0.498572    0.083343
      2          6           0        3.715059   -2.245217   -0.006453
      3          6           0        3.302633    2.505311   -1.227521
      4          6           0        8.029257    3.109904    0.108012
      5          6           0        8.611967   -1.738528    0.864517
      6          7           0        3.716272    0.108922   -0.538849
      7          6           0        3.063108   -1.108293   -0.425444
      8          6           0        1.627038   -0.894893   -0.747564
      9          6           0        1.538087    0.543690   -1.365937
     10          6           0        2.951247    1.115063   -1.104045
     11          6           0        1.019045    0.755011   -2.766804
     12          6           0        0.657678   -1.155671    0.454904
     13          6           0       -0.709207   -1.881861    0.197813
     14          6           0       -2.018662   -1.453667    0.970194
     15          8           0       -2.050276   -0.994653    2.116702
     16          8           0       -3.111161   -1.921124    0.243646
     17          7           0        5.713271    2.477116   -0.600236
     18          6           0        4.582849    3.172570   -0.988335
     19          6           0        4.808445    4.622691   -1.095072
     20          6           0        6.192306    4.834871   -0.891596
     21          6           0        6.735141    3.430834   -0.468117
     22          6           0        3.695065    5.636572   -1.439520
     23          6           0        6.996947    6.052200   -0.924627
     24          8           0        8.210060    6.070490   -0.715749
     25          6           0        6.355181    7.403885   -1.172706
     26          7           0        8.148948    0.578335    0.190886
     27          6           0        8.688280    1.822622    0.398428
     28          6           0        9.995635    1.647821    1.175902
     29          6           0       10.344501    0.152788    1.023749
     30          6           0        8.953663   -0.389821    0.685855
     31          6           0       11.103553    2.580046    0.585182
     32          6           0       10.990752   -0.470421    2.316268
     33          6           0       12.283616   -1.265720    2.056612
     34          7           0        6.172613   -1.584394    0.396469
     35          6           0        7.338194   -2.313024    0.724524
     36          6           0        6.833062   -3.690617    0.926538
     37          6           0        5.500645   -3.743086    0.649633
     38          6           0        5.098757   -2.381262    0.329929
     39          6           0        7.692591   -4.918082    1.408150
     40          6           0        4.384844   -4.572463    0.597678
     41          8           0        4.247958   -5.766592    0.794986
     42          6           0        3.222762   -3.632380    0.148341
     43          6           0        2.512802   -4.151530   -1.080252
     44          8           0        2.799401   -3.884618   -2.261677
     45          8           0        1.624869   -5.067972   -0.652335
     46          6           0        0.908433   -5.908163   -1.651223
     47          6           0       -4.401257   -1.781037    0.878560
     48          6           0       -5.193132   -0.862727   -0.101172
     49          6           0       -6.430223   -1.014842   -0.626192
     50          6           0       -7.271371   -2.125475   -0.113096
     51          6           0       -6.934747    0.154708   -1.395548
     52          6           0       -7.871044   -0.059762   -2.552140
     53          6           0       -9.317711    0.350378   -2.115436
     54          6           0      -10.453425   -0.486195   -2.808417
     55          6           0      -10.464491   -0.362343   -4.361312
     56          6           0      -11.743562   -0.008535   -2.140558
     57          6           0      -12.197858   -0.980699   -0.985620
     58          6           0      -12.470280   -0.193788    0.250424
     59          6           0      -13.984609   -0.200836    0.762570
     60          6           0      -14.884548    0.598136   -0.285882
     61          6           0      -14.127621    0.411481    2.177357
     62          6           0      -13.451903    1.776167    2.303370
     63          6           0      -12.144943    1.728365    3.089833
     64          6           0      -11.407185    3.082003    3.136599
     65          6           0      -10.058672    2.994888    2.352251
     66          6           0      -11.175772    3.473018    4.646538
     67          1           0        2.461827    3.095557   -1.597951
     68          1           0        8.645719    3.976060    0.357951
     69          1           0        9.362427   -2.425887    1.262049
     70          1           0        1.305321   -1.597732   -1.516802
     71          1           0        0.823084    1.179798   -0.842453
     72          1           0        1.661943    1.492830   -3.245518
     73          1           0       -0.006991    1.121906   -2.730235
     74          1           0        0.897649   -0.159983   -3.347819
     75          1           0        0.340010   -0.221440    0.916819
     76          1           0        1.146051   -1.602264    1.321709
     77          1           0       -0.516983   -2.953033    0.266010
     78          1           0       -1.000233   -1.595255   -0.812785
     79          1           0        3.913099    6.092635   -2.405384
     80          1           0        3.697809    6.387539   -0.650520
     81          1           0        2.714561    5.163036   -1.471165
     82          1           0        5.479217    7.594845   -0.552622
     83          1           0        5.980671    7.388231   -2.195982
     84          1           0        7.141158    8.144082   -1.027145
     85          1           0        9.793038    1.892820    2.218312
     86          1           0       10.970235   -0.048495    0.153808
     87          1           0       11.868742    2.054389    0.013902
     88          1           0       11.531464    2.936173    1.522453
     89          1           0       10.686248    3.378711   -0.028534
     90          1           0       10.204566   -1.033880    2.819740
     91          1           0       11.210384    0.351628    2.997167
     92          1           0       12.988252   -0.792209    2.740648
     93          1           0       12.733670   -1.096252    1.079102
     94          1           0       12.258391   -2.326357    2.305501
     95          1           0        8.295377   -4.557971    2.241533
     96          1           0        8.301715   -5.304631    0.590962
     97          1           0        6.957761   -5.680800    1.664906
     98          1           0        2.432985   -3.474160    0.883582
     99          1           0        1.433318   -6.121384   -2.582881
    100          1           0        0.095773   -5.210501   -1.855974
    101          1           0        0.511977   -6.808687   -1.181860
    102          1           0       -4.317134   -1.374392    1.885627
    103          1           0       -4.880015   -2.750654    1.015872
    104          1           0       -4.649371    0.020559   -0.437099
    105          1           0       -6.934307   -2.781450    0.689366
    106          1           0       -7.595838   -2.698653   -0.981684
    107          1           0       -8.209490   -1.702063    0.245557
    108          1           0       -6.151883    0.787830   -1.812199
    109          1           0       -7.502067    0.658179   -0.613354
    110          1           0       -7.830094   -1.115964   -2.817239
    111          1           0       -7.515619    0.547820   -3.385571
    112          1           0       -9.466647    1.333890   -2.559676
    113          1           0       -9.483582    0.461470   -1.043801
    114          1           0      -10.378224   -1.571585   -2.730605
    115          1           0      -10.707460   -1.351869   -4.747578
    116          1           0       -9.443555   -0.148877   -4.677788
    117          1           0      -11.149398    0.404560   -4.723158
    118          1           0      -12.471500    0.029970   -2.950336
    119          1           0      -11.633910    1.034760   -1.842663
    120          1           0      -11.381281   -1.670289   -0.768481
    121          1           0      -13.058041   -1.580793   -1.281658
    122          1           0      -12.079945    0.795752    0.017183
    123          1           0      -11.876549   -0.581463    1.078949
    124          1           0      -14.489590   -1.165891    0.732149
    125          1           0      -14.441826    0.920090   -1.228862
    126          1           0      -15.325894    1.475619    0.185598
    127          1           0      -15.711622   -0.082875   -0.483730
    128          1           0      -13.656942   -0.419627    2.702436
    129          1           0      -15.145506    0.481452    2.561315
    130          1           0      -14.168502    2.490494    2.709886
    131          1           0      -13.194277    2.211103    1.337705
    132          1           0      -11.529020    0.934606    2.667539
    133          1           0      -12.358798    1.232193    4.036521
    134          1           0      -12.113197    3.810893    2.737183
    135          1           0       -9.717164    4.022177    2.228097
    136          1           0      -10.203944    2.448412    1.419865
    137          1           0       -9.209598    2.503086    2.825667
    138          1           0      -10.114171    3.623312    4.843701
    139          1           0      -11.572515    2.739092    5.347414
    140          1           0      -11.518736    4.478339    4.889897
 ---------------------------------------------------------------------

 SCF Done:  E(RwB97XD) =  -3007.84505227     A.U. after   17 cycles

 Excitation energies and oscillator strengths:

 Excited State   1:      Singlet-A      1.5885 eV  780.49 nm  f=0.3650  <S**2>=0.000
     245 -> 248        0.19363
     246 -> 247        0.67992
     245 <- 248        0.11817
 This state for optimization and/or second-order correction.
 Total Energy, E(TD-HF/TD-DFT) =  -3007.78667442
 Copying the excited state density for this state as the 1-particle RhoCI density.

 Excited State   2:      Singlet-A      2.0845 eV  594.80 nm  f=0.0813  <S**2>=0.000
     245 -> 247        0.62869
     246 -> 248       -0.31004

 Excited State   3:      Singlet-A      3.3468 eV  370.46 nm  f=0.6482  <S**2>=0.000
     241 -> 247       -0.10003
     242 -> 247        0.11041
     245 -> 247        0.29410
     246 -> 248        0.61299
     245 <- 247       -0.11584

 Excited State   4:      Singlet-A      3.5419 eV  350.05 nm  f=0.0297  <S**2>=0.000
     239 -> 247       -0.10770
     240 -> 247        0.42742
     240 -> 248       -0.17920
     240 -> 249        0.25580
     240 -> 250       -0.17839
     241 -> 247        0.11493
     243 -> 247        0.26233
     246 -> 248        0.10409

 Excited State   5:      Singlet-A      3.5939 eV  344.99 nm  f=0.0056  <S**2>=0.000
     240 -> 247       -0.28138
     240 -> 249       -0.11954
     243 -> 247        0.59946

 The electronic state is 1-A.
 Alpha  occ. eigenvalues --  -46.96746 -19.30742 -19.30481 -19.25729 -19.24236
 Alpha  occ. eigenvalues --  -19.23731 -19.23514 -14.46451 -14.46435 -14.45558
 Alpha  occ. eigenvalues --  -14.43954 -10.44373 -10.42956 -10.38855 -10.38297
 Alpha  occ. eigenvalues --  -10.36243 -10.35929 -10.35847 -10.35691 -10.35642
 Alpha  occ. eigenvalues --  -10.35544 -10.34677 -10.34250 -10.34181 -10.33739
 Alpha  occ. eigenvalues --  -10.32824 -10.32448 -10.32168 -10.32164 -10.32104
 Alpha  occ. eigenvalues --  -10.31999 -10.31995 -10.31768 -10.31676 -10.31627
 Alpha  occ. eigenvalues --  -10.31356 -10.31322 -10.31304 -10.31084 -10.31046
 Alpha  occ. eigenvalues --  -10.30912 -10.30524 -10.30195 -10.30193 -10.30182
 Alpha  occ. eigenvalues --  -10.29952 -10.29668 -10.29644 -10.29629 -10.29625
 Alpha  occ. eigenvalues --  -10.29578 -10.29412 -10.29371 -10.29257 -10.29213
 Alpha  occ. eigenvalues --  -10.28869 -10.28803 -10.28686 -10.28667 -10.28618
 Alpha  occ. eigenvalues --  -10.28528 -10.28455 -10.28103 -10.28095 -10.28017
 Alpha  occ. eigenvalues --  -10.27852  -3.22383  -1.95970  -1.95491  -1.95334
 Alpha  occ. eigenvalues --   -1.18262  -1.18112  -1.11940  -1.11832  -1.10328
 Alpha  occ. eigenvalues --   -1.08820  -1.05602  -1.04780  -1.04187  -1.03562
 Alpha  occ. eigenvalues --   -0.94733  -0.93234  -0.91823  -0.90790  -0.90630
 Alpha  occ. eigenvalues --   -0.90501  -0.89952  -0.89300  -0.89057  -0.88846
 Alpha  occ. eigenvalues --   -0.87481  -0.87195  -0.86394  -0.85359  -0.85085
 Alpha  occ. eigenvalues --   -0.84468  -0.83763  -0.83219  -0.82460  -0.82015
 Alpha  occ. eigenvalues --   -0.81732  -0.80487  -0.79816  -0.79047  -0.78592
 Alpha  occ. eigenvalues --   -0.77783  -0.77168  -0.76816  -0.76562  -0.76136
 Alpha  occ. eigenvalues --   -0.75029  -0.74497  -0.73331  -0.72373  -0.71245
 Alpha  occ. eigenvalues --   -0.71037  -0.70551  -0.69713  -0.68926  -0.67653
 Alpha  occ. eigenvalues --   -0.67607  -0.67158  -0.66705  -0.66218  -0.65929
 Alpha  occ. eigenvalues --   -0.65436  -0.65285  -0.63930  -0.63235  -0.62115
 Alpha  occ. eigenvalues --   -0.61784  -0.61491  -0.61129  -0.60204  -0.59390
 Alpha  occ. eigenvalues --   -0.59169  -0.59128  -0.58561  -0.57977  -0.57803
 Alpha  occ. eigenvalues --   -0.57079  -0.56717  -0.56386  -0.56192  -0.55881
 Alpha  occ. eigenvalues --   -0.55514  -0.55285  -0.55102  -0.54990  -0.54777
 Alpha  occ. eigenvalues --   -0.54655  -0.54492  -0.54198  -0.53821  -0.53621
 Alpha  occ. eigenvalues --   -0.53244  -0.53015  -0.52889  -0.52645  -0.52412
 Alpha  occ. eigenvalues --   -0.52189  -0.51988  -0.51781  -0.51707  -0.51529
 Alpha  occ. eigenvalues --   -0.51407  -0.51361  -0.51304  -0.51013  -0.50656
 Alpha  occ. eigenvalues --   -0.50526  -0.50358  -0.50243  -0.49990  -0.49825
 Alpha  occ. eigenvalues --   -0.49305  -0.49129  -0.48693  -0.48551  -0.48405
 Alpha  occ. eigenvalues --   -0.48184  -0.48111  -0.47895  -0.47603  -0.47457
 Alpha  occ. eigenvalues --   -0.47350  -0.47288  -0.47027  -0.46982  -0.46902
 Alpha  occ. eigenvalues --   -0.46757  -0.46536  -0.46287  -0.45975  -0.45620
 Alpha  occ. eigenvalues --   -0.45595  -0.45503  -0.45173  -0.44993  -0.44749
 Alpha  occ. eigenvalues --   -0.44720  -0.44457  -0.44410  -0.44277  -0.44159
 Alpha  occ. eigenvalues --   -0.43942  -0.43681  -0.43517  -0.43266  -0.43088
 Alpha  occ. eigenvalues --   -0.42926  -0.42904  -0.42628  -0.42208  -0.41791
 Alpha  occ. eigenvalues --   -0.41494  -0.41362  -0.41254  -0.40940  -0.40711
 Alpha  occ. eigenvalues --   -0.40535  -0.40118  -0.39748  -0.39722  -0.39490
 Alpha  occ. eigenvalues --   -0.38902  -0.38417  -0.38386  -0.38127  -0.37959
 Alpha  occ. eigenvalues --   -0.37936  -0.37377  -0.36539  -0.36321  -0.36156
 Alpha  occ. eigenvalues --   -0.35963  -0.35471  -0.34771  -0.33890  -0.33116
 Alpha  occ. eigenvalues --   -0.32867  -0.32690  -0.32038  -0.31456  -0.25616
 Alpha  occ. eigenvalues --   -0.22615
 Alpha virt. eigenvalues --   -0.06919  -0.00403   0.02059   0.04116   0.05074
 Alpha virt. eigenvalues --    0.06165   0.07625   0.07874   0.08062   0.09700
 Alpha virt. eigenvalues --    0.10631   0.11021   0.11566   0.11736   0.12323

 Mulliken charges:
               1
     1  Mg   0.935104
     2  C    0.024093
     3  C   -0.093551
     4  C   -0.063275
     5  C   -0.068846
     6  N   -0.367033
     7  C    0.002450
     8  C   -0.009637
     9  C   -0.120828
    10  C    0.080907
    11  C    0.021089
    12  C    0.004056
    13  C   -0.056985
    14  C    0.244400
    15  O   -0.262988
    16  O   -0.364605
    17  N   -0.456751
    18  C    0.162974
    19  C   -0.173961
    20  C   -0.042124
    21  C    0.153535
    22  C    0.074699
    23  C    0.007006
    24  O   -0.246045
    25  C   -0.008040
    26  N   -0.316434
    27  C    0.048356
    28  C   -0.143117
    29  C   -0.046351
    30  C    0.037789
    31  C    0.025461
    32  C   -0.014700
    33  C   -0.047227
    34  N   -0.444195
    35  C    0.120699
    36  C   -0.212562
    37  C    0.000164
    38  C    0.109557
    39  C    0.071320
    40  C    0.132335
    41  O   -0.195875
    42  C   -0.091341
    43  C    0.247195
    44  O   -0.275373
    45  O   -0.351102
    46  C    0.139025
    47  C    0.248261
    48  C   -0.142667
    49  C   -0.179752
    50  C    0.042112
    51  C    0.027376
    52  C   -0.011955
    53  C   -0.037423
    54  C   -0.208737
    55  C   -0.000528
    56  C   -0.009901
    57  C    0.034440
    58  C   -0.020760
    59  C   -0.185278
    60  C   -0.028031
    61  C    0.022898
    62  C   -0.046449
    63  C    0.003784
    64  C   -0.174991
    65  C   -0.009441
    66  C   -0.008859
    67  H   -0.005418
    68  H    0.033266
    69  H    0.002695
    70  H    0.039522
    71  H    0.036906
    72  H    0.042113
    73  H    0.024378
    74  H    0.042428
    75  H    0.028228
    76  H    0.040422
    77  H    0.083666
    78  H    0.049896
    79  H    0.062366
    80  H    0.055720
    81  H    0.043001
    82  H    0.044822
    83  H    0.047551
    84  H    0.062579
    85  H    0.047850
    86  H    0.044736
    87  H    0.034401
    88  H    0.031862
    89  H    0.063276
    90  H    0.032513
    91  H    0.026937
    92  H    0.028594
    93  H    0.037582
    94  H    0.047703
    95  H    0.043742
    96  H    0.055489
    97  H    0.058723
    98  H    0.061882
    99  H    0.074695
   100  H    0.046100
   101  H    0.071370
   102  H    0.062990
   103  H    0.033094
   104  H    0.006673
   105  H    0.044421
   106  H    0.033819
   107  H    0.026778
   108  H    0.027311
   109  H    0.042810
   110  H    0.025996
   111  H    0.035228
   112  H    0.023954
   113  H    0.029386
   114  H    0.015223
   115  H    0.030812
   116  H    0.022052
   117  H    0.034268
   118  H    0.008945
   119  H    0.015208
   120  H    0.019427
   121  H    0.026075
   122  H    0.018442
   123  H    0.015085
   124  H    0.022486
   125  H    0.033767
   126  H    0.023373
   127  H    0.020563
   128  H    0.018068
   129  H    0.022198
   130  H    0.019866
   131  H    0.017722
   132  H   -0.008015
   133  H    0.006814
   134  H    0.032555
   135  H    0.031277
   136  H    0.030812
   137  H    0.032002
   138  H    0.013038
   139  H    0.037551
   140  H    0.022964
 Sum of Mulliken charges =  -0.00000

 Dipole moment (field-independent basis, Debye):
    X=             -4.1621    Y=              2.8194    Z=              0.0784  Tot=              5.0277
 Quadrupole moment (field-independent basis, Debye-Ang):
   XX=           -375.8491   YY=           -407.1177   ZZ=           -409.2474
   XY=              7.2638   XZ=             27.7454   YZ=             -0.9565

 Normal termination of Gaussian 16 at Wed May  4 09:27:12 2022.
