 Gaussian 16, Revision A.03,
 Gaussian 16:  ES64L-G16RevA.03 25-Dec-2016

 --------------------
 #p ZINDO=(nstates=5)
 --------------------

 ----------------------------
 step_151_chromophore_7 ZINDO
 ----------------------------
 Symbolic Z-matrix:
 Charge =  0 Multiplicity = 1

                         Standard orientation:
 ---------------------------------------------------------------------
 Center     Atomic      Atomic             Coordinates (Angstroms)
 Number     Number       Type             X           Y           Z
 ---------------------------------------------------------------------
      1         12           0        5.893077    0.498572    0.083343
      2          6           0        3.715059   -2.245217   -0.006453
      3          6           0        3.302633    2.505311   -1.227521
      4          6           0        8.029257    3.109904    0.108012
      5          6           0        8.611967   -1.738528    0.864517
      6          7           0        3.716272    0.108922   -0.538849
      7          6           0        3.063108   -1.108293   -0.425444
      8          6           0        1.627038   -0.894893   -0.747564
      9          6           0        1.538087    0.543690   -1.365937
     10          6           0        2.951247    1.115063   -1.104045
     11          6           0        1.019045    0.755011   -2.766804
     12          6           0        0.657678   -1.155671    0.454904
     13          6           0       -0.709207   -1.881861    0.197813
     14          6           0       -2.018662   -1.453667    0.970194
     15          8           0       -2.050276   -0.994653    2.116702
     16          8           0       -3.111161   -1.921124    0.243646
     17          7           0        5.713271    2.477116   -0.600236
     18          6           0        4.582849    3.172570   -0.988335
     19          6           0        4.808445    4.622691   -1.095072
     20          6           0        6.192306    4.834871   -0.891596
     21          6           0        6.735141    3.430834   -0.468117
     22          6           0        3.695065    5.636572   -1.439520
     23          6           0        6.996947    6.052200   -0.924627
     24          8           0        8.210060    6.070490   -0.715749
     25          6           0        6.355181    7.403885   -1.172706
     26          7           0        8.148948    0.578335    0.190886
     27          6           0        8.688280    1.822622    0.398428
     28          6           0        9.995635    1.647821    1.175902
     29          6           0       10.344501    0.152788    1.023749
     30          6           0        8.953663   -0.389821    0.685855
     31          6           0       11.103553    2.580046    0.585182
     32          6           0       10.990752   -0.470421    2.316268
     33          6           0       12.283616   -1.265720    2.056612
     34          7           0        6.172613   -1.584394    0.396469
     35          6           0        7.338194   -2.313024    0.724524
     36          6           0        6.833062   -3.690617    0.926538
     37          6           0        5.500645   -3.743086    0.649633
     38          6           0        5.098757   -2.381262    0.329929
     39          6           0        7.692591   -4.918082    1.408150
     40          6           0        4.384844   -4.572463    0.597678
     41          8           0        4.247958   -5.766592    0.794986
     42          6           0        3.222762   -3.632380    0.148341
     43          6           0        2.512802   -4.151530   -1.080252
     44          8           0        2.799401   -3.884618   -2.261677
     45          8           0        1.624869   -5.067972   -0.652335
     46          6           0        0.908433   -5.908163   -1.651223
     47          6           0       -4.401257   -1.781037    0.878560
     48          6           0       -5.193132   -0.862727   -0.101172
     49          6           0       -6.430223   -1.014842   -0.626192
     50          6           0       -7.271371   -2.125475   -0.113096
     51          6           0       -6.934747    0.154708   -1.395548
     52          6           0       -7.871044   -0.059762   -2.552140
     53          6           0       -9.317711    0.350378   -2.115436
     54          6           0      -10.453425   -0.486195   -2.808417
     55          6           0      -10.464491   -0.362343   -4.361312
     56          6           0      -11.743562   -0.008535   -2.140558
     57          6           0      -12.197858   -0.980699   -0.985620
     58          6           0      -12.470280   -0.193788    0.250424
     59          6           0      -13.984609   -0.200836    0.762570
     60          6           0      -14.884548    0.598136   -0.285882
     61          6           0      -14.127621    0.411481    2.177357
     62          6           0      -13.451903    1.776167    2.303370
     63          6           0      -12.144943    1.728365    3.089833
     64          6           0      -11.407185    3.082003    3.136599
     65          6           0      -10.058672    2.994888    2.352251
     66          6           0      -11.175772    3.473018    4.646538
     67          1           0        2.461827    3.095557   -1.597951
     68          1           0        8.645719    3.976060    0.357951
     69          1           0        9.362427   -2.425887    1.262049
     70          1           0        1.305321   -1.597732   -1.516802
     71          1           0        0.823084    1.179798   -0.842453
     72          1           0        1.661943    1.492830   -3.245518
     73          1           0       -0.006991    1.121906   -2.730235
     74          1           0        0.897649   -0.159983   -3.347819
     75          1           0        0.340010   -0.221440    0.916819
     76          1           0        1.146051   -1.602264    1.321709
     77          1           0       -0.516983   -2.953033    0.266010
     78          1           0       -1.000233   -1.595255   -0.812785
     79          1           0        3.913099    6.092635   -2.405384
     80          1           0        3.697809    6.387539   -0.650520
     81          1           0        2.714561    5.163036   -1.471165
     82          1           0        5.479217    7.594845   -0.552622
     83          1           0        5.980671    7.388231   -2.195982
     84          1           0        7.141158    8.144082   -1.027145
     85          1           0        9.793038    1.892820    2.218312
     86          1           0       10.970235   -0.048495    0.153808
     87          1           0       11.868742    2.054389    0.013902
     88          1           0       11.531464    2.936173    1.522453
     89          1           0       10.686248    3.378711   -0.028534
     90          1           0       10.204566   -1.033880    2.819740
     91          1           0       11.210384    0.351628    2.997167
     92          1           0       12.988252   -0.792209    2.740648
     93          1           0       12.733670   -1.096252    1.079102
     94          1           0       12.258391   -2.326357    2.305501
     95          1           0        8.295377   -4.557971    2.241533
     96          1           0        8.301715   -5.304631    0.590962
     97          1           0        6.957761   -5.680800    1.664906
     98          1           0        2.432985   -3.474160    0.883582
     99          1           0        1.433318   -6.121384   -2.582881
    100          1           0        0.095773   -5.210501   -1.855974
    101          1           0        0.511977   -6.808687   -1.181860
    102          1           0       -4.317134   -1.374392    1.885627
    103          1           0       -4.880015   -2.750654    1.015872
    104          1           0       -4.649371    0.020559   -0.437099
    105          1           0       -6.934307   -2.781450    0.689366
    106          1           0       -7.595838   -2.698653   -0.981684
    107          1           0       -8.209490   -1.702063    0.245557
    108          1           0       -6.151883    0.787830   -1.812199
    109          1           0       -7.502067    0.658179   -0.613354
    110          1           0       -7.830094   -1.115964   -2.817239
    111          1           0       -7.515619    0.547820   -3.385571
    112          1           0       -9.466647    1.333890   -2.559676
    113          1           0       -9.483582    0.461470   -1.043801
    114          1           0      -10.378224   -1.571585   -2.730605
    115          1           0      -10.707460   -1.351869   -4.747578
    116          1           0       -9.443555   -0.148877   -4.677788
    117          1           0      -11.149398    0.404560   -4.723158
    118          1           0      -12.471500    0.029970   -2.950336
    119          1           0      -11.633910    1.034760   -1.842663
    120          1           0      -11.381281   -1.670289   -0.768481
    121          1           0      -13.058041   -1.580793   -1.281658
    122          1           0      -12.079945    0.795752    0.017183
    123          1           0      -11.876549   -0.581463    1.078949
    124          1           0      -14.489590   -1.165891    0.732149
    125          1           0      -14.441826    0.920090   -1.228862
    126          1           0      -15.325894    1.475619    0.185598
    127          1           0      -15.711622   -0.082875   -0.483730
    128          1           0      -13.656942   -0.419627    2.702436
    129          1           0      -15.145506    0.481452    2.561315
    130          1           0      -14.168502    2.490494    2.709886
    131          1           0      -13.194277    2.211103    1.337705
    132          1           0      -11.529020    0.934606    2.667539
    133          1           0      -12.358798    1.232193    4.036521
    134          1           0      -12.113197    3.810893    2.737183
    135          1           0       -9.717164    4.022177    2.228097
    136          1           0      -10.203944    2.448412    1.419865
    137          1           0       -9.209598    2.503086    2.825667
    138          1           0      -10.114171    3.623312    4.843701
    139          1           0      -11.572515    2.739092    5.347414
    140          1           0      -11.518736    4.478339    4.889897
 ---------------------------------------------------------------------

 SCF Done:  E(RZINDO/S) =  -473.948943423     A.U. after   19 cycles

 Excitation energies and oscillator strengths:

 Excited State   1:      Singlet-A      1.2103 eV 1024.42 nm  f=0.5857  <S**2>=0.000
     175 ->178         0.19426
     176 ->177         0.66083
 This state for optimization and/or second-order correction.
 Total Energy, E(CIS/TDA) =  -473.904466067
 Copying the excited state density for this state as the 1-particle RhoCI density.

 Excited State   2:      Singlet-A      1.8582 eV  667.23 nm  f=0.0165  <S**2>=0.000
     175 ->177         0.52176
     176 ->178        -0.45114

 Excited State   3:      Singlet-A      2.8140 eV  440.60 nm  f=0.4500  <S**2>=0.000
     175 ->177         0.27568
     176 ->178         0.38843
     176 ->179         0.43617

 Excited State   4:      Singlet-A      2.8888 eV  429.19 nm  f=0.0134  <S**2>=0.000
     168 ->177        -0.30337
     168 ->178         0.17866
     168 ->179         0.31586
     168 ->180        -0.10946
     168 ->181        -0.22571
     168 ->186         0.19693
     168 ->194        -0.10412
     176 ->179        -0.28662

 Excited State   5:      Singlet-A      2.9249 eV  423.90 nm  f=0.5634  <S**2>=0.000
     168 ->179         0.12688
     175 ->177        -0.30651
     176 ->178        -0.32097
     176 ->179         0.40852
     176 ->181         0.17028

 The electronic state is 1-A.
 Alpha  occ. eigenvalues --   -1.82494  -1.79195  -1.76332  -1.71694  -1.71377
 Alpha  occ. eigenvalues --   -1.69205  -1.66948  -1.62299  -1.59342  -1.58133
 Alpha  occ. eigenvalues --   -1.55488  -1.50778  -1.49347  -1.48259  -1.46517
 Alpha  occ. eigenvalues --   -1.43408  -1.42335  -1.39573  -1.39222  -1.38630
 Alpha  occ. eigenvalues --   -1.36778  -1.32893  -1.31387  -1.30068  -1.27276
 Alpha  occ. eigenvalues --   -1.27105  -1.24010  -1.21467  -1.19917  -1.18089
 Alpha  occ. eigenvalues --   -1.17455  -1.16649  -1.15288  -1.13650  -1.13217
 Alpha  occ. eigenvalues --   -1.12149  -1.11478  -1.10197  -1.04593  -1.03200
 Alpha  occ. eigenvalues --   -1.02624  -1.00422  -0.99153  -0.97705  -0.96741
 Alpha  occ. eigenvalues --   -0.96110  -0.95589  -0.94188  -0.92149  -0.91723
 Alpha  occ. eigenvalues --   -0.91020  -0.89858  -0.88937  -0.87514  -0.86403
 Alpha  occ. eigenvalues --   -0.84627  -0.84031  -0.83279  -0.81990  -0.80944
 Alpha  occ. eigenvalues --   -0.80706  -0.78348  -0.77860  -0.77399  -0.76183
 Alpha  occ. eigenvalues --   -0.75545  -0.75262  -0.74955  -0.73816  -0.73779
 Alpha  occ. eigenvalues --   -0.73653  -0.73267  -0.72064  -0.71840  -0.70984
 Alpha  occ. eigenvalues --   -0.70136  -0.69646  -0.68478  -0.68110  -0.67373
 Alpha  occ. eigenvalues --   -0.66870  -0.66448  -0.66429  -0.66318  -0.65876
 Alpha  occ. eigenvalues --   -0.65714  -0.65436  -0.64671  -0.63942  -0.63866
 Alpha  occ. eigenvalues --   -0.63370  -0.62871  -0.62297  -0.62233  -0.61887
 Alpha  occ. eigenvalues --   -0.61115  -0.60942  -0.60897  -0.60026  -0.59603
 Alpha  occ. eigenvalues --   -0.59522  -0.59047  -0.58675  -0.58478  -0.58364
 Alpha  occ. eigenvalues --   -0.57777  -0.57563  -0.57507  -0.56632  -0.55839
 Alpha  occ. eigenvalues --   -0.55440  -0.55361  -0.55018  -0.54377  -0.54176
 Alpha  occ. eigenvalues --   -0.54051  -0.53856  -0.53568  -0.53129  -0.53020
 Alpha  occ. eigenvalues --   -0.52565  -0.52334  -0.52257  -0.51625  -0.51518
 Alpha  occ. eigenvalues --   -0.51275  -0.51032  -0.50792  -0.50685  -0.50335
 Alpha  occ. eigenvalues --   -0.50135  -0.49852  -0.49581  -0.49453  -0.49282
 Alpha  occ. eigenvalues --   -0.48747  -0.48401  -0.48345  -0.48049  -0.47772
 Alpha  occ. eigenvalues --   -0.47336  -0.47200  -0.47064  -0.46808  -0.46649
 Alpha  occ. eigenvalues --   -0.46317  -0.45940  -0.45873  -0.45623  -0.45510
 Alpha  occ. eigenvalues --   -0.45013  -0.44878  -0.44238  -0.44057  -0.43915
 Alpha  occ. eigenvalues --   -0.43111  -0.42796  -0.42375  -0.42346  -0.41906
 Alpha  occ. eigenvalues --   -0.41829  -0.41106  -0.41051  -0.39468  -0.38557
 Alpha  occ. eigenvalues --   -0.37910  -0.36627  -0.35739  -0.34767  -0.34113
 Alpha  occ. eigenvalues --   -0.34057  -0.32908  -0.32004  -0.31773  -0.26403
 Alpha  occ. eigenvalues --   -0.21335
 Alpha virt. eigenvalues --   -0.08271  -0.02414  -0.00843   0.00908   0.00957
 Alpha virt. eigenvalues --    0.01733   0.02539   0.02834   0.04738   0.04804
 Alpha virt. eigenvalues --    0.06368   0.06586   0.07127   0.07523   0.07798

 Mulliken charges:
               1
     1  Mg   0.438517
     2  C   -0.040048
     3  C   -0.104206
     4  C   -0.068603
     5  C   -0.050503
     6  N   -0.308422
     7  C    0.127722
     8  C    0.021882
     9  C    0.006627
    10  C    0.143088
    11  C   -0.046708
    12  C   -0.032064
    13  C    0.000191
    14  C    0.460012
    15  O   -0.505334
    16  O   -0.263322
    17  N   -0.315544
    18  C    0.127824
    19  C    0.020544
    20  C   -0.034786
    21  C    0.121211
    22  C   -0.039730
    23  C    0.332342
    24  O   -0.528458
    25  C   -0.032576
    26  N   -0.261929
    27  C    0.136242
    28  C    0.012372
    29  C   -0.001882
    30  C    0.104683
    31  C   -0.061005
    32  C   -0.032689
    33  C   -0.058656
    34  N   -0.311454
    35  C    0.058061
    36  C    0.031110
    37  C   -0.052168
    38  C    0.107092
    39  C   -0.050390
    40  C    0.345619
    41  O   -0.528015
    42  C    0.054259
    43  C    0.486203
    44  O   -0.538781
    45  O   -0.260533
    46  C    0.072486
    47  C    0.100998
    48  C   -0.103421
    49  C   -0.001279
    50  C   -0.038858
    51  C   -0.016111
    52  C   -0.037259
    53  C   -0.038056
    54  C   -0.023281
    55  C   -0.062543
    56  C   -0.039354
    57  C   -0.031873
    58  C   -0.032561
    59  C   -0.018050
    60  C   -0.072233
    61  C   -0.033308
    62  C   -0.029376
    63  C   -0.036918
    64  C   -0.007737
    65  C   -0.053329
    66  C   -0.065614
    67  H    0.025637
    68  H    0.047225
    69  H    0.029390
    70  H    0.032462
    71  H    0.027234
    72  H    0.027606
    73  H    0.012019
    74  H    0.025170
    75  H    0.021381
    76  H    0.025715
    77  H    0.052912
    78  H    0.030636
    79  H    0.035070
    80  H    0.032664
    81  H    0.029768
    82  H    0.033938
    83  H    0.035070
    84  H    0.043126
    85  H    0.041440
    86  H    0.040664
    87  H    0.024750
    88  H    0.017421
    89  H    0.036612
    90  H    0.025784
    91  H    0.016390
    92  H    0.010595
    93  H    0.024846
    94  H    0.027767
    95  H    0.029373
    96  H    0.034145
    97  H    0.036808
    98  H    0.051322
    99  H    0.058889
   100  H    0.029083
   101  H    0.043628
   102  H    0.057789
   103  H    0.038899
   104  H    0.024621
   105  H    0.034505
   106  H    0.023415
   107  H    0.018087
   108  H    0.024990
   109  H    0.030276
   110  H    0.021403
   111  H    0.022778
   112  H    0.013779
   113  H    0.030892
   114  H    0.021723
   115  H    0.017401
   116  H    0.015850
   117  H    0.024952
   118  H    0.009412
   119  H    0.025346
   120  H    0.016593
   121  H    0.023594
   122  H    0.028811
   123  H    0.009244
   124  H    0.024504
   125  H    0.024721
   126  H    0.015172
   127  H    0.011057
   128  H    0.013870
   129  H    0.019339
   130  H    0.015029
   131  H    0.016786
   132  H    0.013113
   133  H    0.015881
   134  H    0.029036
   135  H    0.014361
   136  H    0.017461
   137  H    0.023824
   138  H    0.012617
   139  H    0.026998
   140  H    0.015211
 Sum of Mulliken charges =  -0.00000

 Dipole moment (field-independent basis, Debye):
    X=             -5.4316    Y=              5.9473    Z=              0.3926  Tot=              8.0639
 N-N= 4.226641371231D+03 E-N= 0.000000000000D+00  KE=-9.127446615842D+03
 Leave Link  601 at Wed May  4 09:38:08 2022, MaxMem=  6710886400 cpu:               0.8 elap:               0.0
 (Enter /sw/apps/gaussian-16.0/g16/l9999.exe)
 1\1\GINC-BP1-COMPUTE100\SP\RZINDO CIS\STO-3G\C55H74Mg1N4O6\OF15641\04-
 May-2022\0\\#p ZINDO=(nstates=5)\\step_151_chromophore_7 ZINDO\\0,1\Mg
 ,0,26.338,0.534,29.723\C,0,28.256,0.012,32.609\C,0,23.469,0.785,31.763
 \C,0,24.5,0.96,26.926\C,0,29.211,-0.308,27.712\N,0,25.958,0.406,31.985
 \C,0,26.94,0.229,32.947\C,0,26.313,0.397,34.285\C,0,24.765,0.4,34.033\
 C,0,24.671,0.474,32.491\C,0,23.873,-0.635,34.673\C,0,26.851,1.627,35.0
 92\C,0,27.093,1.488,36.636\C,0,26.77,2.678,37.623\O,0,26.848,3.878,37.

 Normal termination of Gaussian 16 at Wed May  4 09:38:08 2022.
