 Gaussian 16, Revision A.03,
 Gaussian 16:  ES64L-G16RevA.03 25-Dec-2016

 ------------------------------
 #p blyp/Def2SVP td=(nstates=5)
 ------------------------------

 ------------------------------------------------
 step_1_chromophore_25 TDDFT with blyp functional
 ------------------------------------------------
 Symbolic Z-matrix:
 Charge =  0 Multiplicity = 1

                         Standard orientation:
 ---------------------------------------------------------------------
 Center     Atomic      Atomic             Coordinates (Angstroms)
 Number     Number       Type             X           Y           Z
 ---------------------------------------------------------------------
      1         12           0        6.024536    0.400113    0.309236
      2          6           0        3.639839   -2.206034    0.147485
      3          6           0        3.505303    2.616739   -0.375679
      4          6           0        8.332062    2.724172   -0.182597
      5          6           0        8.528412   -2.036786    0.517999
      6          7           0        3.844089    0.198740   -0.232289
      7          6           0        3.090152   -0.971933   -0.114628
      8          6           0        1.579710   -0.631228   -0.141567
      9          6           0        1.565946    0.929623   -0.331289
     10          6           0        3.065445    1.333416   -0.277074
     11          6           0        0.709356    1.483581   -1.456406
     12          6           0        0.749764   -1.096680    1.064995
     13          6           0       -0.479290   -1.967830    0.686037
     14          6           0       -1.813661   -1.464117    1.189725
     15          8           0       -2.074498   -1.011209    2.304459
     16          8           0       -2.799236   -1.508815    0.248480
     17          7           0        5.895544    2.424167   -0.127555
     18          6           0        4.791130    3.172051   -0.412791
     19          6           0        5.205315    4.552566   -0.492858
     20          6           0        6.662408    4.583841   -0.585312
     21          6           0        6.984377    3.191103   -0.314665
     22          6           0        4.162570    5.757707   -0.759028
     23          6           0        7.588511    5.594685   -1.110435
     24          8           0        8.784868    5.540682   -1.143076
     25          6           0        6.944512    6.849554   -1.692321
     26          7           0        8.157736    0.289930   -0.020699
     27          6           0        8.881033    1.420316   -0.140139
     28          6           0       10.374627    1.126588    0.018679
     29          6           0       10.381273   -0.300285    0.590273
     30          6           0        8.942340   -0.725759    0.401034
     31          6           0       11.140167    1.222995   -1.379993
     32          6           0       10.737735   -0.219865    2.161259
     33          6           0        9.618613    0.344949    3.078198
     34          7           0        6.160866   -1.707097    0.454528
     35          6           0        7.225023   -2.521297    0.543123
     36          6           0        6.748264   -3.876182    0.617395
     37          6           0        5.372207   -3.791325    0.517923
     38          6           0        5.031340   -2.446192    0.351749
     39          6           0        7.539525   -5.163996    0.744761
     40          6           0        4.191376   -4.656581    0.452565
     41          8           0        3.937445   -5.826998    0.401500
     42          6           0        3.009688   -3.664454    0.289185
     43          6           0        2.333393   -4.055864   -0.972477
     44          8           0        2.938890   -4.137011   -2.011583
     45          8           0        0.999803   -4.392018   -0.803769
     46          6           0        0.333954   -5.078201   -1.961156
     47          6           0       -4.127472   -1.034191    0.625105
     48          6           0       -5.119183   -0.957730   -0.576985
     49          6           0       -6.256054   -0.216090   -0.685722
     50          6           0       -6.933538    0.780164    0.281180
     51          6           0       -7.041255   -0.419158   -1.998481
     52          6           0       -8.523755   -0.810681   -1.861734
     53          6           0       -9.457674   -0.110403   -2.846068
     54          6           0      -10.946981   -0.486707   -2.681535
     55          6           0      -11.385127   -1.632034   -3.659660
     56          6           0      -11.903469    0.770791   -2.886545
     57          6           0      -12.224045    1.393287   -1.474413
     58          6           0      -13.789891    1.246582   -1.047273
     59          6           0      -13.982750    0.362604    0.195370
     60          6           0      -15.495431    0.081001    0.490821
     61          6           0      -13.380160    1.112244    1.439155
     62          6           0      -12.261725    0.288959    2.052078
     63          6           0      -10.996513    1.270630    2.226761
     64          6           0      -10.556312    1.598698    3.693918
     65          6           0      -11.702242    2.418913    4.388853
     66          6           0       -9.146222    2.278014    3.796148
     67          1           0        2.674252    3.325241   -0.384466
     68          1           0        9.131044    3.468182   -0.218808
     69          1           0        9.213608   -2.840909    0.794420
     70          1           0        1.147972   -1.036596   -1.056888
     71          1           0        1.052824    1.365420    0.526189
     72          1           0        0.440371    0.703690   -2.167273
     73          1           0        1.168283    2.317280   -1.988448
     74          1           0       -0.228901    1.786273   -0.992166
     75          1           0        0.293532   -0.334826    1.697103
     76          1           0        1.365868   -1.667665    1.759242
     77          1           0       -0.313915   -3.018007    0.926399
     78          1           0       -0.580924   -1.934549   -0.397958
     79          1           0        4.375499    6.546449   -0.037555
     80          1           0        3.108690    5.525264   -0.610773
     81          1           0        4.111091    6.195319   -1.755969
     82          1           0        6.424256    7.282103   -0.837404
     83          1           0        6.258918    6.479979   -2.454212
     84          1           0        7.649898    7.600599   -2.049284
     85          1           0       10.866846    1.757957    0.759168
     86          1           0       10.981377   -1.079565    0.119962
     87          1           0       12.165960    1.518116   -1.157628
     88          1           0       10.781692    1.935664   -2.123528
     89          1           0       11.126080    0.200780   -1.757803
     90          1           0       11.652921    0.338065    2.358407
     91          1           0       10.812957   -1.228211    2.568530
     92          1           0        9.917090    0.558831    4.103939
     93          1           0        8.826514   -0.402564    3.124673
     94          1           0        9.225567    1.242741    2.600025
     95          1           0        8.115642   -5.248439    1.665925
     96          1           0        8.232833   -5.120552   -0.094796
     97          1           0        6.928556   -6.051603    0.580628
     98          1           0        2.366479   -3.904101    1.135726
     99          1           0       -0.605541   -4.525527   -1.960645
    100          1           0        0.138673   -6.134436   -1.776792
    101          1           0        0.794679   -5.063145   -2.948568
    102          1           0       -4.039458   -0.034929    1.051018
    103          1           0       -4.527196   -1.713658    1.377720
    104          1           0       -4.738377   -1.568775   -1.394932
    105          1           0       -7.148830    1.733299   -0.200851
    106          1           0       -6.200420    0.953912    1.068474
    107          1           0       -7.754515    0.315449    0.828221
    108          1           0       -6.555665   -1.215811   -2.561219
    109          1           0       -7.000623    0.491339   -2.596648
    110          1           0       -9.021623   -0.572281   -0.922088
    111          1           0       -8.630247   -1.865700   -2.115407
    112          1           0       -9.160692   -0.402801   -3.853472
    113          1           0       -9.203569    0.946049   -2.932138
    114          1           0      -11.154874   -0.866892   -1.681522
    115          1           0      -10.608997   -2.051938   -4.298372
    116          1           0      -12.211399   -1.409228   -4.335038
    117          1           0      -11.773146   -2.427904   -3.024004
    118          1           0      -12.826485    0.425160   -3.352333
    119          1           0      -11.451289    1.468582   -3.592185
    120          1           0      -11.994423    2.457761   -1.511024
    121          1           0      -11.599271    0.983890   -0.680446
    122          1           0      -14.263294    0.831987   -1.937121
    123          1           0      -14.325662    2.176888   -0.854897
    124          1           0      -13.589796   -0.633098   -0.007442
    125          1           0      -15.615893   -0.100207    1.558780
    126          1           0      -15.850995   -0.894284    0.157429
    127          1           0      -16.163759    0.885004    0.182392
    128          1           0      -14.118273    1.083545    2.240331
    129          1           0      -13.251641    2.172712    1.222188
    130          1           0      -11.889687   -0.444943    1.337102
    131          1           0      -12.532114   -0.217587    2.978767
    132          1           0      -11.098622    2.205858    1.677034
    133          1           0      -10.195228    0.681170    1.781522
    134          1           0      -10.441121    0.656765    4.229758
    135          1           0      -12.451193    2.776899    3.681950
    136          1           0      -11.313631    3.295561    4.908427
    137          1           0      -12.176683    1.810325    5.158191
    138          1           0       -8.421505    1.471364    3.907825
    139          1           0       -9.051159    2.938699    4.657786
    140          1           0       -8.925314    2.756964    2.842364
 ---------------------------------------------------------------------

 SCF Done:  E(RB-LYP) =  -3007.38407232     A.U. after   21 cycles

 Excitation energies and oscillator strengths:

 Excited State   1:      Singlet-A      1.7087 eV  725.61 nm  f=0.0146  <S**2>=0.000
     244 -> 247        0.60064
     245 -> 247       -0.32752
     246 -> 247       -0.16980
 This state for optimization and/or second-order correction.
 Total Energy, E(TD-HF/TD-DFT) =  -3007.32127903
 Copying the excited state density for this state as the 1-particle RhoCI density.

 Excited State   2:      Singlet-A      1.8373 eV  674.80 nm  f=0.3062  <S**2>=0.000
     244 -> 247        0.15989
     245 -> 248       -0.17660
     246 -> 247        0.67114
     246 <- 247       -0.15054

 Excited State   3:      Singlet-A      1.9704 eV  629.22 nm  f=0.0470  <S**2>=0.000
     243 -> 247        0.48053
     244 -> 247        0.25376
     245 -> 247        0.42378
     246 -> 248        0.13361

 Excited State   4:      Singlet-A      2.0685 eV  599.38 nm  f=0.0456  <S**2>=0.000
     243 -> 247        0.51418
     244 -> 247       -0.20460
     245 -> 247       -0.39204
     246 -> 248       -0.16567

 Excited State   5:      Singlet-A      2.3772 eV  521.56 nm  f=0.0000  <S**2>=0.000
     242 -> 247        0.70707

 The electronic state is 1-A.
 Alpha  occ. eigenvalues --  -46.28006 -18.82367 -18.81960 -18.76377 -18.76295
 Alpha  occ. eigenvalues --  -18.76187 -18.75305 -14.03345 -14.03077 -14.01395
 Alpha  occ. eigenvalues --  -14.00863 -10.03908 -10.03513  -9.99875  -9.99340
 Alpha  occ. eigenvalues --   -9.98086  -9.97868  -9.97025  -9.96453  -9.96419
 Alpha  occ. eigenvalues --   -9.96386  -9.95965  -9.95809  -9.95153  -9.95031
 Alpha  occ. eigenvalues --   -9.94804  -9.94438  -9.94209  -9.94111  -9.94021
 Alpha  occ. eigenvalues --   -9.93904  -9.93825  -9.93656  -9.93425  -9.93306
 Alpha  occ. eigenvalues --   -9.93286  -9.93221  -9.93011  -9.93006  -9.92770
 Alpha  occ. eigenvalues --   -9.92741  -9.92612  -9.92557  -9.92415  -9.92402
 Alpha  occ. eigenvalues --   -9.92372  -9.92340  -9.92199  -9.92196  -9.92025
 Alpha  occ. eigenvalues --   -9.91974  -9.91945  -9.91712  -9.91599  -9.91537
 Alpha  occ. eigenvalues --   -9.91490  -9.91414  -9.91354  -9.91060  -9.91023
 Alpha  occ. eigenvalues --   -9.91013  -9.90913  -9.90826  -9.90791  -9.90721
 Alpha  occ. eigenvalues --   -9.90572  -2.92512  -1.72916  -1.72419  -1.72215
 Alpha  occ. eigenvalues --   -0.97956  -0.97248  -0.93196  -0.92696  -0.89836
 Alpha  occ. eigenvalues --   -0.88883  -0.87461  -0.86680  -0.86304  -0.84528
 Alpha  occ. eigenvalues --   -0.75279  -0.73289  -0.72875  -0.72554  -0.72260
 Alpha  occ. eigenvalues --   -0.71660  -0.71397  -0.71211  -0.70189  -0.70022
 Alpha  occ. eigenvalues --   -0.69725  -0.69317  -0.67883  -0.67477  -0.67099
 Alpha  occ. eigenvalues --   -0.66118  -0.65651  -0.65127  -0.64957  -0.64237
 Alpha  occ. eigenvalues --   -0.63782  -0.62749  -0.62483  -0.61919  -0.61110
 Alpha  occ. eigenvalues --   -0.60863  -0.60142  -0.59979  -0.59174  -0.58638
 Alpha  occ. eigenvalues --   -0.58340  -0.57883  -0.56960  -0.55523  -0.54791
 Alpha  occ. eigenvalues --   -0.54447  -0.53473  -0.53254  -0.52099  -0.51526
 Alpha  occ. eigenvalues --   -0.51455  -0.51304  -0.51114  -0.50667  -0.50159
 Alpha  occ. eigenvalues --   -0.49285  -0.49173  -0.48682  -0.48595  -0.46881
 Alpha  occ. eigenvalues --   -0.46419  -0.46205  -0.45831  -0.45550  -0.44676
 Alpha  occ. eigenvalues --   -0.44251  -0.43825  -0.43019  -0.42742  -0.42445
 Alpha  occ. eigenvalues --   -0.42031  -0.41881  -0.41486  -0.41219  -0.41115
 Alpha  occ. eigenvalues --   -0.40863  -0.40274  -0.40126  -0.39999  -0.39762
 Alpha  occ. eigenvalues --   -0.39619  -0.39464  -0.39364  -0.39264  -0.38976
 Alpha  occ. eigenvalues --   -0.38871  -0.38729  -0.38616  -0.38275  -0.38225
 Alpha  occ. eigenvalues --   -0.37828  -0.37587  -0.37328  -0.37128  -0.37016
 Alpha  occ. eigenvalues --   -0.36866  -0.36811  -0.36702  -0.36470  -0.36446
 Alpha  occ. eigenvalues --   -0.36308  -0.36086  -0.36010  -0.35770  -0.35638
 Alpha  occ. eigenvalues --   -0.35613  -0.35225  -0.34937  -0.34809  -0.34681
 Alpha  occ. eigenvalues --   -0.34491  -0.34281  -0.34208  -0.33967  -0.33959
 Alpha  occ. eigenvalues --   -0.33884  -0.33524  -0.33422  -0.33357  -0.33172
 Alpha  occ. eigenvalues --   -0.33083  -0.32927  -0.32912  -0.32608  -0.32428
 Alpha  occ. eigenvalues --   -0.32113  -0.32034  -0.31732  -0.31538  -0.31299
 Alpha  occ. eigenvalues --   -0.31190  -0.31037  -0.31009  -0.30925  -0.30879
 Alpha  occ. eigenvalues --   -0.30762  -0.30627  -0.30531  -0.30406  -0.30257
 Alpha  occ. eigenvalues --   -0.29935  -0.29558  -0.29325  -0.29192  -0.28761
 Alpha  occ. eigenvalues --   -0.28641  -0.28313  -0.28223  -0.28019  -0.27817
 Alpha  occ. eigenvalues --   -0.27713  -0.27660  -0.27383  -0.26683  -0.26559
 Alpha  occ. eigenvalues --   -0.26546  -0.26131  -0.25685  -0.25583  -0.25192
 Alpha  occ. eigenvalues --   -0.25104  -0.24934  -0.24529  -0.24027  -0.23622
 Alpha  occ. eigenvalues --   -0.23125  -0.22535  -0.21792  -0.21318  -0.21023
 Alpha  occ. eigenvalues --   -0.20843  -0.20718  -0.19313  -0.18325  -0.17433
 Alpha  occ. eigenvalues --   -0.16260
 Alpha virt. eigenvalues --   -0.11982  -0.06769  -0.06036  -0.04545  -0.03350
 Alpha virt. eigenvalues --   -0.02705  -0.02337  -0.02006  -0.01715   0.00608
 Alpha virt. eigenvalues --    0.01119   0.01402   0.02210   0.02675   0.02759

 Mulliken charges:
               1
     1  Mg   0.683993
     2  C    0.009344
     3  C   -0.058513
     4  C   -0.046633
     5  C   -0.063581
     6  N   -0.230618
     7  C   -0.080557
     8  C    0.055939
     9  C   -0.012008
    10  C    0.029402
    11  C    0.126575
    12  C    0.132305
    13  C    0.094329
    14  C    0.064601
    15  O   -0.213427
    16  O   -0.267021
    17  N   -0.276226
    18  C    0.158960
    19  C   -0.115245
    20  C    0.025217
    21  C    0.108545
    22  C    0.114476
    23  C   -0.098423
    24  O   -0.133736
    25  C    0.134470
    26  N   -0.197505
    27  C    0.015526
    28  C    0.024813
    29  C    0.044141
    30  C    0.020930
    31  C    0.118026
    32  C    0.052525
    33  C    0.043721
    34  N   -0.229437
    35  C    0.057659
    36  C   -0.168563
    37  C    0.053612
    38  C    0.101998
    39  C    0.168995
    40  C   -0.033846
    41  O   -0.098015
    42  C    0.072570
    43  C    0.092412
    44  O   -0.163356
    45  O   -0.286455
    46  C    0.198490
    47  C    0.286324
    48  C   -0.110852
    49  C   -0.138692
    50  C    0.158164
    51  C    0.161828
    52  C    0.052596
    53  C    0.073471
    54  C   -0.080032
    55  C    0.094795
    56  C    0.111347
    57  C    0.052637
    58  C    0.088597
    59  C   -0.079765
    60  C    0.100255
    61  C    0.113166
    62  C    0.081031
    63  C    0.027821
    64  C   -0.081327
    65  C    0.093843
    66  C    0.101816
    67  H   -0.066560
    68  H   -0.042184
    69  H   -0.067471
    70  H   -0.014037
    71  H   -0.023035
    72  H   -0.015732
    73  H   -0.002682
    74  H   -0.013294
    75  H   -0.008809
    76  H   -0.023025
    77  H    0.029622
    78  H   -0.015768
    79  H    0.002614
    80  H   -0.023795
    81  H    0.008701
    82  H   -0.003098
    83  H    0.011523
    84  H   -0.012380
    85  H   -0.018144
    86  H   -0.023493
    87  H   -0.006166
    88  H    0.010692
    89  H   -0.005794
    90  H   -0.006769
    91  H   -0.025761
    92  H   -0.001890
    93  H    0.001427
    94  H    0.001593
    95  H    0.004050
    96  H   -0.005607
    97  H    0.007511
    98  H   -0.008638
    99  H    0.017011
   100  H    0.023533
   101  H    0.031366
   102  H    0.005209
   103  H    0.006202
   104  H   -0.023859
   105  H    0.010791
   106  H   -0.029520
   107  H    0.023991
   108  H   -0.037032
   109  H   -0.025497
   110  H   -0.018472
   111  H   -0.027518
   112  H   -0.048228
   113  H   -0.040896
   114  H   -0.026750
   115  H   -0.017344
   116  H   -0.018508
   117  H   -0.022824
   118  H   -0.034176
   119  H   -0.026998
   120  H   -0.035381
   121  H   -0.009082
   122  H   -0.040311
   123  H   -0.031087
   124  H   -0.030931
   125  H   -0.034008
   126  H   -0.029176
   127  H   -0.012503
   128  H   -0.037529
   129  H   -0.017080
   130  H   -0.024706
   131  H   -0.019721
   132  H   -0.013401
   133  H   -0.034451
   134  H   -0.038592
   135  H   -0.011879
   136  H   -0.025687
   137  H   -0.014209
   138  H   -0.018025
   139  H   -0.009749
   140  H   -0.014003
 Sum of Mulliken charges =  -0.00000

 Dipole moment (field-independent basis, Debye):
    X=             -2.2404    Y=              1.7869    Z=              0.6714  Tot=              2.9433
 Quadrupole moment (field-independent basis, Debye-Ang):
   XX=           -381.3014   YY=           -422.5768   ZZ=           -409.3672
   XY=             -7.9217   XZ=             23.0373   YZ=              0.7025

 Normal termination of Gaussian 16 at Fri Apr 29 07:05:31 2022.
