 Gaussian 16, Revision A.03,
 Gaussian 16:  ES64L-G16RevA.03 25-Dec-2016

 -----------------------------------
 #p cam-b3lyp/Def2SVP td=(nstates=5)
 -----------------------------------

 -----------------------------------------------------
 step_1_chromophore_25 TDDFT with cam-b3lyp functional
 -----------------------------------------------------
 Symbolic Z-matrix:
 Charge =  0 Multiplicity = 1

                         Standard orientation:
 ---------------------------------------------------------------------
 Center     Atomic      Atomic             Coordinates (Angstroms)
 Number     Number       Type             X           Y           Z
 ---------------------------------------------------------------------
      1         12           0        6.024536    0.400113    0.309236
      2          6           0        3.639839   -2.206034    0.147485
      3          6           0        3.505303    2.616739   -0.375679
      4          6           0        8.332062    2.724172   -0.182597
      5          6           0        8.528412   -2.036786    0.517999
      6          7           0        3.844089    0.198740   -0.232289
      7          6           0        3.090152   -0.971933   -0.114628
      8          6           0        1.579710   -0.631228   -0.141567
      9          6           0        1.565946    0.929623   -0.331289
     10          6           0        3.065445    1.333416   -0.277074
     11          6           0        0.709356    1.483581   -1.456406
     12          6           0        0.749764   -1.096680    1.064995
     13          6           0       -0.479290   -1.967830    0.686037
     14          6           0       -1.813661   -1.464117    1.189725
     15          8           0       -2.074498   -1.011209    2.304459
     16          8           0       -2.799236   -1.508815    0.248480
     17          7           0        5.895544    2.424167   -0.127555
     18          6           0        4.791130    3.172051   -0.412791
     19          6           0        5.205315    4.552566   -0.492858
     20          6           0        6.662408    4.583841   -0.585312
     21          6           0        6.984377    3.191103   -0.314665
     22          6           0        4.162570    5.757707   -0.759028
     23          6           0        7.588511    5.594685   -1.110435
     24          8           0        8.784868    5.540682   -1.143076
     25          6           0        6.944512    6.849554   -1.692321
     26          7           0        8.157736    0.289930   -0.020699
     27          6           0        8.881033    1.420316   -0.140139
     28          6           0       10.374627    1.126588    0.018679
     29          6           0       10.381273   -0.300285    0.590273
     30          6           0        8.942340   -0.725759    0.401034
     31          6           0       11.140167    1.222995   -1.379993
     32          6           0       10.737735   -0.219865    2.161259
     33          6           0        9.618613    0.344949    3.078198
     34          7           0        6.160866   -1.707097    0.454528
     35          6           0        7.225023   -2.521297    0.543123
     36          6           0        6.748264   -3.876182    0.617395
     37          6           0        5.372207   -3.791325    0.517923
     38          6           0        5.031340   -2.446192    0.351749
     39          6           0        7.539525   -5.163996    0.744761
     40          6           0        4.191376   -4.656581    0.452565
     41          8           0        3.937445   -5.826998    0.401500
     42          6           0        3.009688   -3.664454    0.289185
     43          6           0        2.333393   -4.055864   -0.972477
     44          8           0        2.938890   -4.137011   -2.011583
     45          8           0        0.999803   -4.392018   -0.803769
     46          6           0        0.333954   -5.078201   -1.961156
     47          6           0       -4.127472   -1.034191    0.625105
     48          6           0       -5.119183   -0.957730   -0.576985
     49          6           0       -6.256054   -0.216090   -0.685722
     50          6           0       -6.933538    0.780164    0.281180
     51          6           0       -7.041255   -0.419158   -1.998481
     52          6           0       -8.523755   -0.810681   -1.861734
     53          6           0       -9.457674   -0.110403   -2.846068
     54          6           0      -10.946981   -0.486707   -2.681535
     55          6           0      -11.385127   -1.632034   -3.659660
     56          6           0      -11.903469    0.770791   -2.886545
     57          6           0      -12.224045    1.393287   -1.474413
     58          6           0      -13.789891    1.246582   -1.047273
     59          6           0      -13.982750    0.362604    0.195370
     60          6           0      -15.495431    0.081001    0.490821
     61          6           0      -13.380160    1.112244    1.439155
     62          6           0      -12.261725    0.288959    2.052078
     63          6           0      -10.996513    1.270630    2.226761
     64          6           0      -10.556312    1.598698    3.693918
     65          6           0      -11.702242    2.418913    4.388853
     66          6           0       -9.146222    2.278014    3.796148
     67          1           0        2.674252    3.325241   -0.384466
     68          1           0        9.131044    3.468182   -0.218808
     69          1           0        9.213608   -2.840909    0.794420
     70          1           0        1.147972   -1.036596   -1.056888
     71          1           0        1.052824    1.365420    0.526189
     72          1           0        0.440371    0.703690   -2.167273
     73          1           0        1.168283    2.317280   -1.988448
     74          1           0       -0.228901    1.786273   -0.992166
     75          1           0        0.293532   -0.334826    1.697103
     76          1           0        1.365868   -1.667665    1.759242
     77          1           0       -0.313915   -3.018007    0.926399
     78          1           0       -0.580924   -1.934549   -0.397958
     79          1           0        4.375499    6.546449   -0.037555
     80          1           0        3.108690    5.525264   -0.610773
     81          1           0        4.111091    6.195319   -1.755969
     82          1           0        6.424256    7.282103   -0.837404
     83          1           0        6.258918    6.479979   -2.454212
     84          1           0        7.649898    7.600599   -2.049284
     85          1           0       10.866846    1.757957    0.759168
     86          1           0       10.981377   -1.079565    0.119962
     87          1           0       12.165960    1.518116   -1.157628
     88          1           0       10.781692    1.935664   -2.123528
     89          1           0       11.126080    0.200780   -1.757803
     90          1           0       11.652921    0.338065    2.358407
     91          1           0       10.812957   -1.228211    2.568530
     92          1           0        9.917090    0.558831    4.103939
     93          1           0        8.826514   -0.402564    3.124673
     94          1           0        9.225567    1.242741    2.600025
     95          1           0        8.115642   -5.248439    1.665925
     96          1           0        8.232833   -5.120552   -0.094796
     97          1           0        6.928556   -6.051603    0.580628
     98          1           0        2.366479   -3.904101    1.135726
     99          1           0       -0.605541   -4.525527   -1.960645
    100          1           0        0.138673   -6.134436   -1.776792
    101          1           0        0.794679   -5.063145   -2.948568
    102          1           0       -4.039458   -0.034929    1.051018
    103          1           0       -4.527196   -1.713658    1.377720
    104          1           0       -4.738377   -1.568775   -1.394932
    105          1           0       -7.148830    1.733299   -0.200851
    106          1           0       -6.200420    0.953912    1.068474
    107          1           0       -7.754515    0.315449    0.828221
    108          1           0       -6.555665   -1.215811   -2.561219
    109          1           0       -7.000623    0.491339   -2.596648
    110          1           0       -9.021623   -0.572281   -0.922088
    111          1           0       -8.630247   -1.865700   -2.115407
    112          1           0       -9.160692   -0.402801   -3.853472
    113          1           0       -9.203569    0.946049   -2.932138
    114          1           0      -11.154874   -0.866892   -1.681522
    115          1           0      -10.608997   -2.051938   -4.298372
    116          1           0      -12.211399   -1.409228   -4.335038
    117          1           0      -11.773146   -2.427904   -3.024004
    118          1           0      -12.826485    0.425160   -3.352333
    119          1           0      -11.451289    1.468582   -3.592185
    120          1           0      -11.994423    2.457761   -1.511024
    121          1           0      -11.599271    0.983890   -0.680446
    122          1           0      -14.263294    0.831987   -1.937121
    123          1           0      -14.325662    2.176888   -0.854897
    124          1           0      -13.589796   -0.633098   -0.007442
    125          1           0      -15.615893   -0.100207    1.558780
    126          1           0      -15.850995   -0.894284    0.157429
    127          1           0      -16.163759    0.885004    0.182392
    128          1           0      -14.118273    1.083545    2.240331
    129          1           0      -13.251641    2.172712    1.222188
    130          1           0      -11.889687   -0.444943    1.337102
    131          1           0      -12.532114   -0.217587    2.978767
    132          1           0      -11.098622    2.205858    1.677034
    133          1           0      -10.195228    0.681170    1.781522
    134          1           0      -10.441121    0.656765    4.229758
    135          1           0      -12.451193    2.776899    3.681950
    136          1           0      -11.313631    3.295561    4.908427
    137          1           0      -12.176683    1.810325    5.158191
    138          1           0       -8.421505    1.471364    3.907825
    139          1           0       -9.051159    2.938699    4.657786
    140          1           0       -8.925314    2.756964    2.842364
 ---------------------------------------------------------------------

 SCF Done:  E(RCAM-B3LYP) =  -3007.17936838     A.U. after   19 cycles

 Excitation energies and oscillator strengths:

 Excited State   1:      Singlet-A      1.7036 eV  727.79 nm  f=0.3947  <S**2>=0.000
     245 -> 248        0.17579
     246 -> 247        0.68728
     245 <- 248        0.10775
 This state for optimization and/or second-order correction.
 Total Energy, E(TD-HF/TD-DFT) =  -3007.11676307
 Copying the excited state density for this state as the 1-particle RhoCI density.

 Excited State   2:      Singlet-A      2.1918 eV  565.67 nm  f=0.1476  <S**2>=0.000
     245 -> 247        0.65679
     246 -> 248       -0.24862

 Excited State   3:      Singlet-A      3.3778 eV  367.06 nm  f=0.0019  <S**2>=0.000
     243 -> 247        0.12596
     244 -> 247        0.67118

 Excited State   4:      Singlet-A      3.4381 eV  360.61 nm  f=0.0110  <S**2>=0.000
     243 -> 247        0.58770
     243 -> 249        0.15935
     243 -> 251       -0.13214
     246 -> 248       -0.20655

 Excited State   5:      Singlet-A      3.4886 eV  355.40 nm  f=0.0033  <S**2>=0.000
     241 -> 247        0.63570
     243 -> 249       -0.10831
     246 -> 248       -0.19842

 The electronic state is 1-A.
 Alpha  occ. eigenvalues --  -46.89585 -19.25365 -19.24824 -19.19674 -19.19435
 Alpha  occ. eigenvalues --  -19.19192 -19.18432 -14.42171 -14.41962 -14.39811
 Alpha  occ. eigenvalues --  -14.39274 -10.39217 -10.38954 -10.35232 -10.34406
 Alpha  occ. eigenvalues --  -10.32135 -10.31962 -10.31609 -10.30823 -10.30819
 Alpha  occ. eigenvalues --  -10.30785 -10.30286 -10.30011 -10.29672 -10.29383
 Alpha  occ. eigenvalues --  -10.29209 -10.28753 -10.28311 -10.28265 -10.28019
 Alpha  occ. eigenvalues --  -10.28012 -10.27919 -10.27800 -10.27592 -10.27406
 Alpha  occ. eigenvalues --  -10.27216 -10.27040 -10.27032 -10.26943 -10.26823
 Alpha  occ. eigenvalues --  -10.26702 -10.26684 -10.26594 -10.26317 -10.26212
 Alpha  occ. eigenvalues --  -10.26200 -10.26005 -10.25991 -10.25948 -10.25698
 Alpha  occ. eigenvalues --  -10.25675 -10.25609 -10.25462 -10.25303 -10.25273
 Alpha  occ. eigenvalues --  -10.25147 -10.25141 -10.25096 -10.25087 -10.25084
 Alpha  occ. eigenvalues --  -10.24691 -10.24639 -10.24451 -10.24445 -10.24324
 Alpha  occ. eigenvalues --  -10.24179  -3.17987  -1.92870  -1.92456  -1.92280
 Alpha  occ. eigenvalues --   -1.16418  -1.15869  -1.11746  -1.11099  -1.07803
 Alpha  occ. eigenvalues --   -1.06737  -1.05226  -1.04330  -1.03878  -1.02072
 Alpha  occ. eigenvalues --   -0.92441  -0.90142  -0.89672  -0.89331  -0.88908
 Alpha  occ. eigenvalues --   -0.88266  -0.88058  -0.87791  -0.86736  -0.86590
 Alpha  occ. eigenvalues --   -0.86383  -0.85695  -0.84111  -0.83668  -0.83205
 Alpha  occ. eigenvalues --   -0.82094  -0.81647  -0.80948  -0.80814  -0.80235
 Alpha  occ. eigenvalues --   -0.79576  -0.78434  -0.78108  -0.77482  -0.76575
 Alpha  occ. eigenvalues --   -0.76246  -0.75392  -0.75328  -0.74439  -0.73848
 Alpha  occ. eigenvalues --   -0.73420  -0.72909  -0.71821  -0.70335  -0.69374
 Alpha  occ. eigenvalues --   -0.69157  -0.67998  -0.67759  -0.66455  -0.65736
 Alpha  occ. eigenvalues --   -0.65607  -0.65370  -0.65232  -0.64527  -0.64208
 Alpha  occ. eigenvalues --   -0.63217  -0.62982  -0.62490  -0.62414  -0.60456
 Alpha  occ. eigenvalues --   -0.59928  -0.59781  -0.59417  -0.58949  -0.58224
 Alpha  occ. eigenvalues --   -0.57601  -0.57163  -0.56218  -0.55953  -0.55345
 Alpha  occ. eigenvalues --   -0.55250  -0.54835  -0.54363  -0.54321  -0.54163
 Alpha  occ. eigenvalues --   -0.53815  -0.53318  -0.53037  -0.52852  -0.52687
 Alpha  occ. eigenvalues --   -0.52468  -0.52263  -0.51994  -0.51841  -0.51650
 Alpha  occ. eigenvalues --   -0.51553  -0.51316  -0.51224  -0.50591  -0.50533
 Alpha  occ. eigenvalues --   -0.50228  -0.50032  -0.49784  -0.49591  -0.49524
 Alpha  occ. eigenvalues --   -0.49460  -0.49119  -0.48906  -0.48841  -0.48646
 Alpha  occ. eigenvalues --   -0.48338  -0.48323  -0.48085  -0.47880  -0.47620
 Alpha  occ. eigenvalues --   -0.47521  -0.47469  -0.47076  -0.46745  -0.46564
 Alpha  occ. eigenvalues --   -0.46429  -0.46208  -0.46147  -0.46015  -0.45685
 Alpha  occ. eigenvalues --   -0.45646  -0.45350  -0.45229  -0.44948  -0.44931
 Alpha  occ. eigenvalues --   -0.44785  -0.44669  -0.44545  -0.44147  -0.44065
 Alpha  occ. eigenvalues --   -0.43688  -0.43639  -0.43414  -0.43252  -0.43118
 Alpha  occ. eigenvalues --   -0.42824  -0.42602  -0.42449  -0.42400  -0.42267
 Alpha  occ. eigenvalues --   -0.42094  -0.42021  -0.41931  -0.41605  -0.41388
 Alpha  occ. eigenvalues --   -0.41286  -0.40923  -0.40567  -0.40351  -0.39818
 Alpha  occ. eigenvalues --   -0.39696  -0.39291  -0.39099  -0.39019  -0.38735
 Alpha  occ. eigenvalues --   -0.38683  -0.38553  -0.38203  -0.38024  -0.37332
 Alpha  occ. eigenvalues --   -0.37146  -0.36858  -0.36745  -0.36571  -0.36472
 Alpha  occ. eigenvalues --   -0.36260  -0.35798  -0.34978  -0.34545  -0.34274
 Alpha  occ. eigenvalues --   -0.33684  -0.33467  -0.33443  -0.31675  -0.31296
 Alpha  occ. eigenvalues --   -0.30427  -0.30371  -0.30335  -0.30191  -0.24226
 Alpha  occ. eigenvalues --   -0.21627
 Alpha virt. eigenvalues --   -0.09216  -0.01479   0.00502   0.01690   0.02463
 Alpha virt. eigenvalues --    0.05007   0.05364   0.05515   0.05632   0.07184
 Alpha virt. eigenvalues --    0.07547   0.08251   0.08624   0.08912   0.09183

 Mulliken charges:
               1
     1  Mg   0.814227
     2  C   -0.025625
     3  C   -0.076949
     4  C   -0.061714
     5  C   -0.064069
     6  N   -0.302357
     7  C   -0.030063
     8  C    0.002819
     9  C   -0.058893
    10  C    0.051618
    11  C    0.067226
    12  C    0.070096
    13  C    0.028531
    14  C    0.148794
    15  O   -0.254822
    16  O   -0.332970
    17  N   -0.363129
    18  C    0.161223
    19  C   -0.116468
    20  C   -0.041442
    21  C    0.130752
    22  C    0.062343
    23  C   -0.022216
    24  O   -0.176195
    25  C    0.054541
    26  N   -0.263212
    27  C    0.030132
    28  C   -0.035280
    29  C   -0.014470
    30  C    0.032472
    31  C    0.066484
    32  C    0.004295
    33  C   -0.014669
    34  N   -0.320680
    35  C    0.065082
    36  C   -0.162487
    37  C   -0.035111
    38  C    0.140476
    39  C    0.116970
    40  C    0.069788
    41  O   -0.136659
    42  C    0.001681
    43  C    0.182160
    44  O   -0.200328
    45  O   -0.353450
    46  C    0.163980
    47  C    0.259107
    48  C   -0.135656
    49  C   -0.158495
    50  C    0.101354
    51  C    0.102097
    52  C   -0.000080
    53  C    0.024749
    54  C   -0.135878
    55  C    0.037976
    56  C    0.062206
    57  C    0.003270
    58  C    0.040526
    59  C   -0.134742
    60  C    0.045114
    61  C    0.050134
    62  C    0.029761
    63  C   -0.020230
    64  C   -0.134173
    65  C    0.033549
    66  C    0.045615
    67  H   -0.033118
    68  H   -0.000773
    69  H   -0.030992
    70  H    0.019061
    71  H    0.011523
    72  H    0.009112
    73  H    0.022899
    74  H    0.011172
    75  H    0.026280
    76  H    0.009392
    77  H    0.060710
    78  H    0.017110
    79  H    0.027605
    80  H    0.004432
    81  H    0.033311
    82  H    0.022092
    83  H    0.036791
    84  H    0.022720
    85  H    0.016772
    86  H    0.012867
    87  H    0.017476
    88  H    0.035546
    89  H    0.016237
    90  H    0.020265
    91  H    0.002170
    92  H    0.023970
    93  H    0.021881
    94  H    0.021025
    95  H    0.029416
    96  H    0.019732
    97  H    0.036309
    98  H    0.033046
    99  H    0.037241
   100  H    0.044652
   101  H    0.057285
   102  H    0.031225
   103  H    0.033902
   104  H    0.011001
   105  H    0.034607
   106  H   -0.005145
   107  H    0.044580
   108  H   -0.005826
   109  H    0.003314
   110  H    0.003366
   111  H    0.000270
   112  H   -0.019561
   113  H   -0.012925
   114  H    0.002264
   115  H    0.006633
   116  H    0.005998
   117  H    0.001237
   118  H   -0.006140
   119  H    0.001443
   120  H   -0.005630
   121  H    0.008836
   122  H   -0.011549
   123  H   -0.003809
   124  H   -0.001188
   125  H   -0.009244
   126  H   -0.003475
   127  H    0.010725
   128  H   -0.006912
   129  H    0.010427
   130  H    0.001798
   131  H    0.008581
   132  H    0.010899
   133  H   -0.011101
   134  H   -0.007392
   135  H    0.009679
   136  H   -0.000778
   137  H    0.009418
   138  H    0.004789
   139  H    0.014405
   140  H    0.007425
 Sum of Mulliken charges =  -0.00000

 Dipole moment (field-independent basis, Debye):
    X=             -2.3738    Y=              1.9578    Z=              0.5906  Tot=              3.1332
 Quadrupole moment (field-independent basis, Debye-Ang):
   XX=           -379.8489   YY=           -418.2568   ZZ=           -409.2105
   XY=             -7.3933   XZ=             24.4364   YZ=              0.0118

 Normal termination of Gaussian 16 at Fri Apr 29 06:06:51 2022.
