 Gaussian 16, Revision A.03,
 Gaussian 16:  ES64L-G16RevA.03 25-Dec-2016

 ---------------------------------
 #p PBE1PBE/Def2SVP td=(nstates=5)
 ---------------------------------

 ---------------------------------------------------
 step_1_chromophore_25 TDDFT with PBE1PBE functional
 ---------------------------------------------------
 Symbolic Z-matrix:
 Charge =  0 Multiplicity = 1

                         Standard orientation:
 ---------------------------------------------------------------------
 Center     Atomic      Atomic             Coordinates (Angstroms)
 Number     Number       Type             X           Y           Z
 ---------------------------------------------------------------------
      1         12           0        6.024536    0.400113    0.309236
      2          6           0        3.639839   -2.206034    0.147485
      3          6           0        3.505303    2.616739   -0.375679
      4          6           0        8.332062    2.724172   -0.182597
      5          6           0        8.528412   -2.036786    0.517999
      6          7           0        3.844089    0.198740   -0.232289
      7          6           0        3.090152   -0.971933   -0.114628
      8          6           0        1.579710   -0.631228   -0.141567
      9          6           0        1.565946    0.929623   -0.331289
     10          6           0        3.065445    1.333416   -0.277074
     11          6           0        0.709356    1.483581   -1.456406
     12          6           0        0.749764   -1.096680    1.064995
     13          6           0       -0.479290   -1.967830    0.686037
     14          6           0       -1.813661   -1.464117    1.189725
     15          8           0       -2.074498   -1.011209    2.304459
     16          8           0       -2.799236   -1.508815    0.248480
     17          7           0        5.895544    2.424167   -0.127555
     18          6           0        4.791130    3.172051   -0.412791
     19          6           0        5.205315    4.552566   -0.492858
     20          6           0        6.662408    4.583841   -0.585312
     21          6           0        6.984377    3.191103   -0.314665
     22          6           0        4.162570    5.757707   -0.759028
     23          6           0        7.588511    5.594685   -1.110435
     24          8           0        8.784868    5.540682   -1.143076
     25          6           0        6.944512    6.849554   -1.692321
     26          7           0        8.157736    0.289930   -0.020699
     27          6           0        8.881033    1.420316   -0.140139
     28          6           0       10.374627    1.126588    0.018679
     29          6           0       10.381273   -0.300285    0.590273
     30          6           0        8.942340   -0.725759    0.401034
     31          6           0       11.140167    1.222995   -1.379993
     32          6           0       10.737735   -0.219865    2.161259
     33          6           0        9.618613    0.344949    3.078198
     34          7           0        6.160866   -1.707097    0.454528
     35          6           0        7.225023   -2.521297    0.543123
     36          6           0        6.748264   -3.876182    0.617395
     37          6           0        5.372207   -3.791325    0.517923
     38          6           0        5.031340   -2.446192    0.351749
     39          6           0        7.539525   -5.163996    0.744761
     40          6           0        4.191376   -4.656581    0.452565
     41          8           0        3.937445   -5.826998    0.401500
     42          6           0        3.009688   -3.664454    0.289185
     43          6           0        2.333393   -4.055864   -0.972477
     44          8           0        2.938890   -4.137011   -2.011583
     45          8           0        0.999803   -4.392018   -0.803769
     46          6           0        0.333954   -5.078201   -1.961156
     47          6           0       -4.127472   -1.034191    0.625105
     48          6           0       -5.119183   -0.957730   -0.576985
     49          6           0       -6.256054   -0.216090   -0.685722
     50          6           0       -6.933538    0.780164    0.281180
     51          6           0       -7.041255   -0.419158   -1.998481
     52          6           0       -8.523755   -0.810681   -1.861734
     53          6           0       -9.457674   -0.110403   -2.846068
     54          6           0      -10.946981   -0.486707   -2.681535
     55          6           0      -11.385127   -1.632034   -3.659660
     56          6           0      -11.903469    0.770791   -2.886545
     57          6           0      -12.224045    1.393287   -1.474413
     58          6           0      -13.789891    1.246582   -1.047273
     59          6           0      -13.982750    0.362604    0.195370
     60          6           0      -15.495431    0.081001    0.490821
     61          6           0      -13.380160    1.112244    1.439155
     62          6           0      -12.261725    0.288959    2.052078
     63          6           0      -10.996513    1.270630    2.226761
     64          6           0      -10.556312    1.598698    3.693918
     65          6           0      -11.702242    2.418913    4.388853
     66          6           0       -9.146222    2.278014    3.796148
     67          1           0        2.674252    3.325241   -0.384466
     68          1           0        9.131044    3.468182   -0.218808
     69          1           0        9.213608   -2.840909    0.794420
     70          1           0        1.147972   -1.036596   -1.056888
     71          1           0        1.052824    1.365420    0.526189
     72          1           0        0.440371    0.703690   -2.167273
     73          1           0        1.168283    2.317280   -1.988448
     74          1           0       -0.228901    1.786273   -0.992166
     75          1           0        0.293532   -0.334826    1.697103
     76          1           0        1.365868   -1.667665    1.759242
     77          1           0       -0.313915   -3.018007    0.926399
     78          1           0       -0.580924   -1.934549   -0.397958
     79          1           0        4.375499    6.546449   -0.037555
     80          1           0        3.108690    5.525264   -0.610773
     81          1           0        4.111091    6.195319   -1.755969
     82          1           0        6.424256    7.282103   -0.837404
     83          1           0        6.258918    6.479979   -2.454212
     84          1           0        7.649898    7.600599   -2.049284
     85          1           0       10.866846    1.757957    0.759168
     86          1           0       10.981377   -1.079565    0.119962
     87          1           0       12.165960    1.518116   -1.157628
     88          1           0       10.781692    1.935664   -2.123528
     89          1           0       11.126080    0.200780   -1.757803
     90          1           0       11.652921    0.338065    2.358407
     91          1           0       10.812957   -1.228211    2.568530
     92          1           0        9.917090    0.558831    4.103939
     93          1           0        8.826514   -0.402564    3.124673
     94          1           0        9.225567    1.242741    2.600025
     95          1           0        8.115642   -5.248439    1.665925
     96          1           0        8.232833   -5.120552   -0.094796
     97          1           0        6.928556   -6.051603    0.580628
     98          1           0        2.366479   -3.904101    1.135726
     99          1           0       -0.605541   -4.525527   -1.960645
    100          1           0        0.138673   -6.134436   -1.776792
    101          1           0        0.794679   -5.063145   -2.948568
    102          1           0       -4.039458   -0.034929    1.051018
    103          1           0       -4.527196   -1.713658    1.377720
    104          1           0       -4.738377   -1.568775   -1.394932
    105          1           0       -7.148830    1.733299   -0.200851
    106          1           0       -6.200420    0.953912    1.068474
    107          1           0       -7.754515    0.315449    0.828221
    108          1           0       -6.555665   -1.215811   -2.561219
    109          1           0       -7.000623    0.491339   -2.596648
    110          1           0       -9.021623   -0.572281   -0.922088
    111          1           0       -8.630247   -1.865700   -2.115407
    112          1           0       -9.160692   -0.402801   -3.853472
    113          1           0       -9.203569    0.946049   -2.932138
    114          1           0      -11.154874   -0.866892   -1.681522
    115          1           0      -10.608997   -2.051938   -4.298372
    116          1           0      -12.211399   -1.409228   -4.335038
    117          1           0      -11.773146   -2.427904   -3.024004
    118          1           0      -12.826485    0.425160   -3.352333
    119          1           0      -11.451289    1.468582   -3.592185
    120          1           0      -11.994423    2.457761   -1.511024
    121          1           0      -11.599271    0.983890   -0.680446
    122          1           0      -14.263294    0.831987   -1.937121
    123          1           0      -14.325662    2.176888   -0.854897
    124          1           0      -13.589796   -0.633098   -0.007442
    125          1           0      -15.615893   -0.100207    1.558780
    126          1           0      -15.850995   -0.894284    0.157429
    127          1           0      -16.163759    0.885004    0.182392
    128          1           0      -14.118273    1.083545    2.240331
    129          1           0      -13.251641    2.172712    1.222188
    130          1           0      -11.889687   -0.444943    1.337102
    131          1           0      -12.532114   -0.217587    2.978767
    132          1           0      -11.098622    2.205858    1.677034
    133          1           0      -10.195228    0.681170    1.781522
    134          1           0      -10.441121    0.656765    4.229758
    135          1           0      -12.451193    2.776899    3.681950
    136          1           0      -11.313631    3.295561    4.908427
    137          1           0      -12.176683    1.810325    5.158191
    138          1           0       -8.421505    1.471364    3.907825
    139          1           0       -9.051159    2.938699    4.657786
    140          1           0       -8.925314    2.756964    2.842364
 ---------------------------------------------------------------------

 SCF Done:  E(RPBE1PBE) =  -3005.36589148     A.U. after   15 cycles

 Excitation energies and oscillator strengths:

 Excited State   1:      Singlet-A      1.8680 eV  663.72 nm  f=0.3787  <S**2>=0.000
     245 -> 248        0.16833
     246 -> 247        0.69465
     246 <- 247       -0.11160
 This state for optimization and/or second-order correction.
 Total Energy, E(TD-HF/TD-DFT) =  -3005.29724330
 Copying the excited state density for this state as the 1-particle RhoCI density.

 Excited State   2:      Singlet-A      2.2026 eV  562.91 nm  f=0.1362  <S**2>=0.000
     245 -> 247        0.66415
     246 -> 248       -0.22480

 Excited State   3:      Singlet-A      2.8326 eV  437.70 nm  f=0.0007  <S**2>=0.000
     244 -> 247        0.68267
     244 -> 249        0.11372

 Excited State   4:      Singlet-A      3.0415 eV  407.64 nm  f=0.0013  <S**2>=0.000
     240 -> 247        0.17584
     242 -> 247        0.66740

 Excited State   5:      Singlet-A      3.1225 eV  397.07 nm  f=0.0002  <S**2>=0.000
     240 -> 247        0.55725
     240 -> 249       -0.10741
     241 -> 247        0.33680
     242 -> 247       -0.21263

 The electronic state is 1-A.
 Alpha  occ. eigenvalues --  -46.92970 -19.25985 -19.25529 -19.19847 -19.19610
 Alpha  occ. eigenvalues --  -19.19499 -19.18659 -14.41748 -14.41420 -14.39468
 Alpha  occ. eigenvalues --  -14.38909 -10.36278 -10.35933 -10.32348 -10.31520
 Alpha  occ. eigenvalues --  -10.29568 -10.29313 -10.29171 -10.28575 -10.28566
 Alpha  occ. eigenvalues --  -10.28491 -10.28004 -10.27746 -10.27456 -10.27033
 Alpha  occ. eigenvalues --  -10.26852 -10.26604 -10.26083 -10.25947 -10.25865
 Alpha  occ. eigenvalues --  -10.25762 -10.25712 -10.25419 -10.25408 -10.24889
 Alpha  occ. eigenvalues --  -10.24789 -10.24738 -10.24718 -10.24574 -10.24409
 Alpha  occ. eigenvalues --  -10.24251 -10.24236 -10.24101 -10.23977 -10.23956
 Alpha  occ. eigenvalues --  -10.23628 -10.23590 -10.23511 -10.23469 -10.23402
 Alpha  occ. eigenvalues --  -10.23272 -10.23037 -10.23031 -10.22876 -10.22874
 Alpha  occ. eigenvalues --  -10.22752 -10.22728 -10.22701 -10.22693 -10.22377
 Alpha  occ. eigenvalues --  -10.22250 -10.22054 -10.22032 -10.21869 -10.21710
 Alpha  occ. eigenvalues --  -10.21598  -3.14957  -1.87779  -1.87344  -1.87172
 Alpha  occ. eigenvalues --   -1.11263  -1.10573  -1.06473  -1.05867  -1.02596
 Alpha  occ. eigenvalues --   -1.01620  -0.99854  -0.99003  -0.98572  -0.96682
 Alpha  occ. eigenvalues --   -0.86770  -0.84267  -0.83887  -0.83422  -0.83209
 Alpha  occ. eigenvalues --   -0.82618  -0.82184  -0.82124  -0.80907  -0.80828
 Alpha  occ. eigenvalues --   -0.80649  -0.79957  -0.78353  -0.77922  -0.77449
 Alpha  occ. eigenvalues --   -0.76303  -0.75871  -0.75269  -0.75038  -0.74475
 Alpha  occ. eigenvalues --   -0.73706  -0.72721  -0.72366  -0.71754  -0.70856
 Alpha  occ. eigenvalues --   -0.70433  -0.69738  -0.69403  -0.68583  -0.68024
 Alpha  occ. eigenvalues --   -0.67818  -0.67275  -0.66279  -0.64661  -0.63689
 Alpha  occ. eigenvalues --   -0.63602  -0.62342  -0.62145  -0.60666  -0.60090
 Alpha  occ. eigenvalues --   -0.59925  -0.59866  -0.59710  -0.59137  -0.58345
 Alpha  occ. eigenvalues --   -0.57518  -0.57365  -0.56969  -0.56676  -0.55051
 Alpha  occ. eigenvalues --   -0.54390  -0.54279  -0.53977  -0.53538  -0.52709
 Alpha  occ. eigenvalues --   -0.52224  -0.51629  -0.50729  -0.50422  -0.49887
 Alpha  occ. eigenvalues --   -0.49730  -0.49306  -0.48950  -0.48765  -0.48556
 Alpha  occ. eigenvalues --   -0.48389  -0.47933  -0.47635  -0.47330  -0.47112
 Alpha  occ. eigenvalues --   -0.46952  -0.46742  -0.46564  -0.46381  -0.46196
 Alpha  occ. eigenvalues --   -0.46178  -0.45783  -0.45729  -0.45141  -0.45043
 Alpha  occ. eigenvalues --   -0.44847  -0.44625  -0.44363  -0.44143  -0.44121
 Alpha  occ. eigenvalues --   -0.44052  -0.43739  -0.43503  -0.43415  -0.43312
 Alpha  occ. eigenvalues --   -0.42971  -0.42933  -0.42666  -0.42520  -0.42302
 Alpha  occ. eigenvalues --   -0.42129  -0.42020  -0.41719  -0.41374  -0.41173
 Alpha  occ. eigenvalues --   -0.41086  -0.40920  -0.40872  -0.40702  -0.40370
 Alpha  occ. eigenvalues --   -0.40199  -0.40119  -0.39981  -0.39642  -0.39614
 Alpha  occ. eigenvalues --   -0.39514  -0.39440  -0.39243  -0.38996  -0.38809
 Alpha  occ. eigenvalues --   -0.38492  -0.38323  -0.38152  -0.38012  -0.37880
 Alpha  occ. eigenvalues --   -0.37659  -0.37350  -0.37271  -0.37218  -0.37027
 Alpha  occ. eigenvalues --   -0.36901  -0.36848  -0.36790  -0.36490  -0.36312
 Alpha  occ. eigenvalues --   -0.36089  -0.35762  -0.35377  -0.35265  -0.34761
 Alpha  occ. eigenvalues --   -0.34450  -0.34087  -0.34006  -0.33848  -0.33701
 Alpha  occ. eigenvalues --   -0.33535  -0.33359  -0.33028  -0.32972  -0.32229
 Alpha  occ. eigenvalues --   -0.32094  -0.31820  -0.31706  -0.31529  -0.31421
 Alpha  occ. eigenvalues --   -0.31174  -0.30654  -0.29924  -0.29739  -0.29194
 Alpha  occ. eigenvalues --   -0.28892  -0.28465  -0.28455  -0.27291  -0.26220
 Alpha  occ. eigenvalues --   -0.26031  -0.25794  -0.25663  -0.25138  -0.21174
 Alpha  occ. eigenvalues --   -0.19234
 Alpha virt. eigenvalues --   -0.11628  -0.05044  -0.03742  -0.01975  -0.01119
 Alpha virt. eigenvalues --    0.00459   0.00751   0.01049   0.01135   0.03671
 Alpha virt. eigenvalues --    0.03867   0.04482   0.04820   0.05592   0.05660

 Mulliken charges:
               1
     1  Mg   0.955769
     2  C   -0.038886
     3  C   -0.083280
     4  C   -0.048661
     5  C   -0.049025
     6  N   -0.404701
     7  C    0.043402
     8  C   -0.069353
     9  C   -0.128481
    10  C    0.090454
    11  C    0.009571
    12  C    0.021626
    13  C   -0.046411
    14  C    0.215526
    15  O   -0.287193
    16  O   -0.367114
    17  N   -0.475011
    18  C    0.180586
    19  C   -0.129053
    20  C   -0.086155
    21  C    0.157524
    22  C    0.004950
    23  C    0.025430
    24  O   -0.215670
    25  C   -0.023872
    26  N   -0.364524
    27  C    0.062856
    28  C   -0.113200
    29  C   -0.091326
    30  C    0.069364
    31  C    0.012091
    32  C   -0.054140
    33  C   -0.091862
    34  N   -0.451138
    35  C    0.089833
    36  C   -0.181831
    37  C   -0.089945
    38  C    0.196526
    39  C    0.065107
    40  C    0.164969
    41  O   -0.184147
    42  C   -0.107920
    43  C    0.279177
    44  O   -0.233867
    45  O   -0.387366
    46  C    0.109121
    47  C    0.224846
    48  C   -0.152711
    49  C   -0.196871
    50  C    0.031918
    51  C    0.039052
    52  C   -0.069531
    53  C   -0.021870
    54  C   -0.228512
    55  C   -0.017659
    56  C    0.012096
    57  C   -0.063880
    58  C   -0.011735
    59  C   -0.224512
    60  C   -0.011774
    61  C   -0.004112
    62  C   -0.029281
    63  C   -0.086483
    64  C   -0.221592
    65  C   -0.027114
    66  C   -0.016758
    67  H    0.000851
    68  H    0.030475
    69  H    0.000631
    70  H    0.057008
    71  H    0.049720
    72  H    0.036736
    73  H    0.049483
    74  H    0.038677
    75  H    0.057171
    76  H    0.043438
    77  H    0.092648
    78  H    0.050720
    79  H    0.055399
    80  H    0.031447
    81  H    0.059113
    82  H    0.050423
    83  H    0.064297
    84  H    0.050833
    85  H    0.051985
    86  H    0.047292
    87  H    0.045694
    88  H    0.062401
    89  H    0.044130
    90  H    0.052594
    91  H    0.036597
    92  H    0.052640
    93  H    0.051793
    94  H    0.053045
    95  H    0.056170
    96  H    0.047645
    97  H    0.063277
    98  H    0.068602
    99  H    0.058240
   100  H    0.066094
   101  H    0.077508
   102  H    0.056774
   103  H    0.061289
   104  H    0.040119
   105  H    0.060856
   106  H    0.024480
   107  H    0.074130
   108  H    0.026368
   109  H    0.036445
   110  H    0.037591
   111  H    0.034885
   112  H    0.014181
   113  H    0.018289
   114  H    0.040849
   115  H    0.032884
   116  H    0.032347
   117  H    0.028783
   118  H    0.025401
   119  H    0.032868
   120  H    0.027594
   121  H    0.048769
   122  H    0.021724
   123  H    0.027878
   124  H    0.036577
   125  H    0.018705
   126  H    0.024451
   127  H    0.037388
   128  H    0.026558
   129  H    0.039553
   130  H    0.033436
   131  H    0.039328
   132  H    0.041988
   133  H    0.028061
   134  H    0.030615
   135  H    0.038776
   136  H    0.026658
   137  H    0.036475
   138  H    0.032749
   139  H    0.041120
   140  H    0.035012
 Sum of Mulliken charges =  -0.00000

 Dipole moment (field-independent basis, Debye):
    X=             -2.3631    Y=              2.0129    Z=              0.6194  Tot=              3.1654
 Quadrupole moment (field-independent basis, Debye-Ang):
   XX=           -373.5609   YY=           -415.6901   ZZ=           -406.5988
   XY=             -7.6192   XZ=             24.9326   YZ=              0.0654

 Normal termination of Gaussian 16 at Fri Apr 29 06:27:07 2022.
