 Gaussian 16, Revision A.03,
 Gaussian 16:  ES64L-G16RevA.03 25-Dec-2016

 --------------------------------
 #p wB97XD/Def2SVP td=(nstates=5)
 --------------------------------

 --------------------------------------------------
 step_1_chromophore_25 TDDFT with wB97XD functional
 --------------------------------------------------
 Symbolic Z-matrix:
 Charge =  0 Multiplicity = 1

                         Standard orientation:
 ---------------------------------------------------------------------
 Center     Atomic      Atomic             Coordinates (Angstroms)
 Number     Number       Type             X           Y           Z
 ---------------------------------------------------------------------
      1         12           0        6.024536    0.400113    0.309236
      2          6           0        3.639839   -2.206034    0.147485
      3          6           0        3.505303    2.616739   -0.375679
      4          6           0        8.332062    2.724172   -0.182597
      5          6           0        8.528412   -2.036786    0.517999
      6          7           0        3.844089    0.198740   -0.232289
      7          6           0        3.090152   -0.971933   -0.114628
      8          6           0        1.579710   -0.631228   -0.141567
      9          6           0        1.565946    0.929623   -0.331289
     10          6           0        3.065445    1.333416   -0.277074
     11          6           0        0.709356    1.483581   -1.456406
     12          6           0        0.749764   -1.096680    1.064995
     13          6           0       -0.479290   -1.967830    0.686037
     14          6           0       -1.813661   -1.464117    1.189725
     15          8           0       -2.074498   -1.011209    2.304459
     16          8           0       -2.799236   -1.508815    0.248480
     17          7           0        5.895544    2.424167   -0.127555
     18          6           0        4.791130    3.172051   -0.412791
     19          6           0        5.205315    4.552566   -0.492858
     20          6           0        6.662408    4.583841   -0.585312
     21          6           0        6.984377    3.191103   -0.314665
     22          6           0        4.162570    5.757707   -0.759028
     23          6           0        7.588511    5.594685   -1.110435
     24          8           0        8.784868    5.540682   -1.143076
     25          6           0        6.944512    6.849554   -1.692321
     26          7           0        8.157736    0.289930   -0.020699
     27          6           0        8.881033    1.420316   -0.140139
     28          6           0       10.374627    1.126588    0.018679
     29          6           0       10.381273   -0.300285    0.590273
     30          6           0        8.942340   -0.725759    0.401034
     31          6           0       11.140167    1.222995   -1.379993
     32          6           0       10.737735   -0.219865    2.161259
     33          6           0        9.618613    0.344949    3.078198
     34          7           0        6.160866   -1.707097    0.454528
     35          6           0        7.225023   -2.521297    0.543123
     36          6           0        6.748264   -3.876182    0.617395
     37          6           0        5.372207   -3.791325    0.517923
     38          6           0        5.031340   -2.446192    0.351749
     39          6           0        7.539525   -5.163996    0.744761
     40          6           0        4.191376   -4.656581    0.452565
     41          8           0        3.937445   -5.826998    0.401500
     42          6           0        3.009688   -3.664454    0.289185
     43          6           0        2.333393   -4.055864   -0.972477
     44          8           0        2.938890   -4.137011   -2.011583
     45          8           0        0.999803   -4.392018   -0.803769
     46          6           0        0.333954   -5.078201   -1.961156
     47          6           0       -4.127472   -1.034191    0.625105
     48          6           0       -5.119183   -0.957730   -0.576985
     49          6           0       -6.256054   -0.216090   -0.685722
     50          6           0       -6.933538    0.780164    0.281180
     51          6           0       -7.041255   -0.419158   -1.998481
     52          6           0       -8.523755   -0.810681   -1.861734
     53          6           0       -9.457674   -0.110403   -2.846068
     54          6           0      -10.946981   -0.486707   -2.681535
     55          6           0      -11.385127   -1.632034   -3.659660
     56          6           0      -11.903469    0.770791   -2.886545
     57          6           0      -12.224045    1.393287   -1.474413
     58          6           0      -13.789891    1.246582   -1.047273
     59          6           0      -13.982750    0.362604    0.195370
     60          6           0      -15.495431    0.081001    0.490821
     61          6           0      -13.380160    1.112244    1.439155
     62          6           0      -12.261725    0.288959    2.052078
     63          6           0      -10.996513    1.270630    2.226761
     64          6           0      -10.556312    1.598698    3.693918
     65          6           0      -11.702242    2.418913    4.388853
     66          6           0       -9.146222    2.278014    3.796148
     67          1           0        2.674252    3.325241   -0.384466
     68          1           0        9.131044    3.468182   -0.218808
     69          1           0        9.213608   -2.840909    0.794420
     70          1           0        1.147972   -1.036596   -1.056888
     71          1           0        1.052824    1.365420    0.526189
     72          1           0        0.440371    0.703690   -2.167273
     73          1           0        1.168283    2.317280   -1.988448
     74          1           0       -0.228901    1.786273   -0.992166
     75          1           0        0.293532   -0.334826    1.697103
     76          1           0        1.365868   -1.667665    1.759242
     77          1           0       -0.313915   -3.018007    0.926399
     78          1           0       -0.580924   -1.934549   -0.397958
     79          1           0        4.375499    6.546449   -0.037555
     80          1           0        3.108690    5.525264   -0.610773
     81          1           0        4.111091    6.195319   -1.755969
     82          1           0        6.424256    7.282103   -0.837404
     83          1           0        6.258918    6.479979   -2.454212
     84          1           0        7.649898    7.600599   -2.049284
     85          1           0       10.866846    1.757957    0.759168
     86          1           0       10.981377   -1.079565    0.119962
     87          1           0       12.165960    1.518116   -1.157628
     88          1           0       10.781692    1.935664   -2.123528
     89          1           0       11.126080    0.200780   -1.757803
     90          1           0       11.652921    0.338065    2.358407
     91          1           0       10.812957   -1.228211    2.568530
     92          1           0        9.917090    0.558831    4.103939
     93          1           0        8.826514   -0.402564    3.124673
     94          1           0        9.225567    1.242741    2.600025
     95          1           0        8.115642   -5.248439    1.665925
     96          1           0        8.232833   -5.120552   -0.094796
     97          1           0        6.928556   -6.051603    0.580628
     98          1           0        2.366479   -3.904101    1.135726
     99          1           0       -0.605541   -4.525527   -1.960645
    100          1           0        0.138673   -6.134436   -1.776792
    101          1           0        0.794679   -5.063145   -2.948568
    102          1           0       -4.039458   -0.034929    1.051018
    103          1           0       -4.527196   -1.713658    1.377720
    104          1           0       -4.738377   -1.568775   -1.394932
    105          1           0       -7.148830    1.733299   -0.200851
    106          1           0       -6.200420    0.953912    1.068474
    107          1           0       -7.754515    0.315449    0.828221
    108          1           0       -6.555665   -1.215811   -2.561219
    109          1           0       -7.000623    0.491339   -2.596648
    110          1           0       -9.021623   -0.572281   -0.922088
    111          1           0       -8.630247   -1.865700   -2.115407
    112          1           0       -9.160692   -0.402801   -3.853472
    113          1           0       -9.203569    0.946049   -2.932138
    114          1           0      -11.154874   -0.866892   -1.681522
    115          1           0      -10.608997   -2.051938   -4.298372
    116          1           0      -12.211399   -1.409228   -4.335038
    117          1           0      -11.773146   -2.427904   -3.024004
    118          1           0      -12.826485    0.425160   -3.352333
    119          1           0      -11.451289    1.468582   -3.592185
    120          1           0      -11.994423    2.457761   -1.511024
    121          1           0      -11.599271    0.983890   -0.680446
    122          1           0      -14.263294    0.831987   -1.937121
    123          1           0      -14.325662    2.176888   -0.854897
    124          1           0      -13.589796   -0.633098   -0.007442
    125          1           0      -15.615893   -0.100207    1.558780
    126          1           0      -15.850995   -0.894284    0.157429
    127          1           0      -16.163759    0.885004    0.182392
    128          1           0      -14.118273    1.083545    2.240331
    129          1           0      -13.251641    2.172712    1.222188
    130          1           0      -11.889687   -0.444943    1.337102
    131          1           0      -12.532114   -0.217587    2.978767
    132          1           0      -11.098622    2.205858    1.677034
    133          1           0      -10.195228    0.681170    1.781522
    134          1           0      -10.441121    0.656765    4.229758
    135          1           0      -12.451193    2.776899    3.681950
    136          1           0      -11.313631    3.295561    4.908427
    137          1           0      -12.176683    1.810325    5.158191
    138          1           0       -8.421505    1.471364    3.907825
    139          1           0       -9.051159    2.938699    4.657786
    140          1           0       -8.925314    2.756964    2.842364
 ---------------------------------------------------------------------

 SCF Done:  E(RwB97XD) =  -3007.87983726     A.U. after   19 cycles

 Excitation energies and oscillator strengths:

 Excited State   1:      Singlet-A      1.6441 eV  754.12 nm  f=0.3934  <S**2>=0.000
     245 -> 248        0.18166
     246 -> 247        0.68502
     245 <- 248        0.11704
 This state for optimization and/or second-order correction.
 Total Energy, E(TD-HF/TD-DFT) =  -3007.81941770
 Copying the excited state density for this state as the 1-particle RhoCI density.

 Excited State   2:      Singlet-A      2.1359 eV  580.47 nm  f=0.1433  <S**2>=0.000
     245 -> 247        0.65459
     246 -> 248       -0.25239

 Excited State   3:      Singlet-A      3.3973 eV  364.95 nm  f=0.0016  <S**2>=0.000
     241 -> 247        0.12016
     243 -> 247        0.57629
     244 -> 247        0.34691

 Excited State   4:      Singlet-A      3.4609 eV  358.25 nm  f=0.0197  <S**2>=0.000
     241 -> 247       -0.26966
     243 -> 247       -0.25227
     244 -> 247        0.43877
     244 -> 248        0.11012
     244 -> 249        0.21054
     244 -> 250       -0.15582
     246 -> 248       -0.24811

 Excited State   5:      Singlet-A      3.5159 eV  352.64 nm  f=0.0080  <S**2>=0.000
     241 -> 247        0.54482
     243 -> 247       -0.24541
     243 -> 249       -0.11348
     244 -> 247        0.17835
     244 -> 249        0.11640
     244 -> 250       -0.11514
     246 -> 248        0.20832

 The electronic state is 1-A.
 Alpha  occ. eigenvalues --  -46.95916 -19.30588 -19.30090 -19.24717 -19.24361
 Alpha  occ. eigenvalues --  -19.24165 -19.23433 -14.46776 -14.46555 -14.44393
 Alpha  occ. eigenvalues --  -14.43855 -10.43048 -10.42793 -10.39252 -10.38332
 Alpha  occ. eigenvalues --  -10.36049 -10.35713 -10.35655 -10.34835 -10.34831
 Alpha  occ. eigenvalues --  -10.34783 -10.34301 -10.34022 -10.33853 -10.33389
 Alpha  occ. eigenvalues --  -10.33232 -10.32894 -10.32382 -10.32334 -10.32071
 Alpha  occ. eigenvalues --  -10.32056 -10.31961 -10.31937 -10.31621 -10.31367
 Alpha  occ. eigenvalues --  -10.31161 -10.31116 -10.30996 -10.30942 -10.30807
 Alpha  occ. eigenvalues --  -10.30706 -10.30606 -10.30556 -10.30393 -10.30229
 Alpha  occ. eigenvalues --  -10.30093 -10.29904 -10.29844 -10.29842 -10.29666
 Alpha  occ. eigenvalues --  -10.29654 -10.29452 -10.29411 -10.29234 -10.29227
 Alpha  occ. eigenvalues --  -10.29139 -10.29088 -10.29080 -10.29041 -10.28937
 Alpha  occ. eigenvalues --  -10.28630 -10.28453 -10.28398 -10.28288 -10.28135
 Alpha  occ. eigenvalues --  -10.28014  -3.21779  -1.95346  -1.94913  -1.94739
 Alpha  occ. eigenvalues --   -1.18628  -1.18021  -1.13992  -1.13299  -1.10000
 Alpha  occ. eigenvalues --   -1.08960  -1.07239  -1.06365  -1.05905  -1.04075
 Alpha  occ. eigenvalues --   -0.94419  -0.91948  -0.91519  -0.91096  -0.90796
 Alpha  occ. eigenvalues --   -0.90191  -0.89859  -0.89714  -0.88552  -0.88501
 Alpha  occ. eigenvalues --   -0.88316  -0.87584  -0.86002  -0.85568  -0.85078
 Alpha  occ. eigenvalues --   -0.83955  -0.83528  -0.82898  -0.82701  -0.82166
 Alpha  occ. eigenvalues --   -0.81393  -0.80374  -0.80013  -0.79410  -0.78504
 Alpha  occ. eigenvalues --   -0.78107  -0.77314  -0.77110  -0.76267  -0.75681
 Alpha  occ. eigenvalues --   -0.75384  -0.74865  -0.73794  -0.72269  -0.71281
 Alpha  occ. eigenvalues --   -0.71165  -0.69915  -0.69727  -0.68310  -0.67634
 Alpha  occ. eigenvalues --   -0.67515  -0.67328  -0.67208  -0.66533  -0.66028
 Alpha  occ. eigenvalues --   -0.65059  -0.64950  -0.64413  -0.64318  -0.62453
 Alpha  occ. eigenvalues --   -0.61872  -0.61736  -0.61407  -0.60922  -0.60193
 Alpha  occ. eigenvalues --   -0.59597  -0.59092  -0.58141  -0.57884  -0.57314
 Alpha  occ. eigenvalues --   -0.57182  -0.56744  -0.56334  -0.56218  -0.56017
 Alpha  occ. eigenvalues --   -0.55769  -0.55277  -0.55011  -0.54748  -0.54606
 Alpha  occ. eigenvalues --   -0.54353  -0.54165  -0.53897  -0.53730  -0.53568
 Alpha  occ. eigenvalues --   -0.53510  -0.53257  -0.53113  -0.52479  -0.52414
 Alpha  occ. eigenvalues --   -0.52143  -0.51994  -0.51682  -0.51511  -0.51455
 Alpha  occ. eigenvalues --   -0.51369  -0.51036  -0.50794  -0.50723  -0.50567
 Alpha  occ. eigenvalues --   -0.50229  -0.50218  -0.49974  -0.49804  -0.49567
 Alpha  occ. eigenvalues --   -0.49400  -0.49392  -0.49022  -0.48676  -0.48409
 Alpha  occ. eigenvalues --   -0.48323  -0.48124  -0.48082  -0.47931  -0.47538
 Alpha  occ. eigenvalues --   -0.47494  -0.47267  -0.47164  -0.46842  -0.46812
 Alpha  occ. eigenvalues --   -0.46697  -0.46614  -0.46426  -0.46068  -0.45976
 Alpha  occ. eigenvalues --   -0.45600  -0.45529  -0.45335  -0.45199  -0.45045
 Alpha  occ. eigenvalues --   -0.44771  -0.44480  -0.44423  -0.44311  -0.44159
 Alpha  occ. eigenvalues --   -0.43976  -0.43948  -0.43875  -0.43515  -0.43305
 Alpha  occ. eigenvalues --   -0.43182  -0.42795  -0.42463  -0.42259  -0.41721
 Alpha  occ. eigenvalues --   -0.41549  -0.41135  -0.40991  -0.40887  -0.40647
 Alpha  occ. eigenvalues --   -0.40544  -0.40401  -0.40046  -0.39939  -0.39263
 Alpha  occ. eigenvalues --   -0.39160  -0.38833  -0.38656  -0.38566  -0.38458
 Alpha  occ. eigenvalues --   -0.38120  -0.37640  -0.36840  -0.36541  -0.36214
 Alpha  occ. eigenvalues --   -0.35698  -0.35604  -0.35308  -0.33878  -0.33313
 Alpha  occ. eigenvalues --   -0.32588  -0.32422  -0.32404  -0.32243  -0.26145
 Alpha  occ. eigenvalues --   -0.23432
 Alpha virt. eigenvalues --   -0.07569   0.00439   0.02547   0.04543   0.04818
 Alpha virt. eigenvalues --    0.07267   0.07525   0.07788   0.07914   0.10327
 Alpha virt. eigenvalues --    0.10450   0.10976   0.11414   0.12321   0.12384

 Mulliken charges:
               1
     1  Mg   0.947457
     2  C   -0.042356
     3  C   -0.093068
     4  C   -0.064860
     5  C   -0.068193
     6  N   -0.372031
     7  C    0.014180
     8  C   -0.042780
     9  C   -0.103201
    10  C    0.076144
    11  C    0.020031
    12  C    0.032278
    13  C   -0.029071
    14  C    0.207115
    15  O   -0.284645
    16  O   -0.365524
    17  N   -0.445337
    18  C    0.174637
    19  C   -0.127764
    20  C   -0.081516
    21  C    0.149769
    22  C    0.017631
    23  C    0.023313
    24  O   -0.210260
    25  C   -0.005686
    26  N   -0.331249
    27  C    0.048552
    28  C   -0.089215
    29  C   -0.066763
    30  C    0.055863
    31  C    0.021659
    32  C   -0.041577
    33  C   -0.066490
    34  N   -0.411861
    35  C    0.080505
    36  C   -0.175852
    37  C   -0.085144
    38  C    0.178581
    39  C    0.073478
    40  C    0.148516
    41  O   -0.174227
    42  C   -0.069210
    43  C    0.253405
    44  O   -0.230070
    45  O   -0.384520
    46  C    0.125074
    47  C    0.237433
    48  C   -0.158467
    49  C   -0.187586
    50  C    0.050728
    51  C    0.056794
    52  C   -0.045290
    53  C   -0.010066
    54  C   -0.192617
    55  C   -0.007221
    56  C    0.026609
    57  C   -0.037757
    58  C    0.003243
    59  C   -0.192533
    60  C    0.000119
    61  C    0.009210
    62  C   -0.013321
    63  C   -0.061132
    64  C   -0.195217
    65  C   -0.014188
    66  C   -0.003381
    67  H   -0.008952
    68  H    0.026082
    69  H   -0.003673
    70  H    0.041688
    71  H    0.037799
    72  H    0.030804
    73  H    0.043785
    74  H    0.033310
    75  H    0.049375
    76  H    0.034269
    77  H    0.085866
    78  H    0.041308
    79  H    0.049446
    80  H    0.027642
    81  H    0.053934
    82  H    0.041949
    83  H    0.056427
    84  H    0.049743
    85  H    0.042363
    86  H    0.039977
    87  H    0.039953
    88  H    0.057649
    89  H    0.036750
    90  H    0.045313
    91  H    0.027758
    92  H    0.048642
    93  H    0.041228
    94  H    0.039375
    95  H    0.052160
    96  H    0.041757
    97  H    0.060798
    98  H    0.062308
    99  H    0.054259
   100  H    0.062205
   101  H    0.074397
   102  H    0.050136
   103  H    0.056594
   104  H    0.037637
   105  H    0.056515
   106  H    0.017316
   107  H    0.065627
   108  H    0.019464
   109  H    0.027660
   110  H    0.022184
   111  H    0.025878
   112  H    0.003496
   113  H    0.008579
   114  H    0.024009
   115  H    0.027140
   116  H    0.026724
   117  H    0.023232
   118  H    0.013946
   119  H    0.026072
   120  H    0.020786
   121  H    0.023069
   122  H    0.011796
   123  H    0.019171
   124  H    0.023914
   125  H    0.011032
   126  H    0.019330
   127  H    0.031896
   128  H    0.016256
   129  H    0.029822
   130  H    0.022756
   131  H    0.033325
   132  H    0.030490
   133  H    0.013267
   134  H    0.020003
   135  H    0.029904
   136  H    0.020764
   137  H    0.031022
   138  H    0.026479
   139  H    0.035939
   140  H    0.028004
 Sum of Mulliken charges =  -0.00000

 Dipole moment (field-independent basis, Debye):
    X=             -2.4176    Y=              1.9806    Z=              0.6055  Tot=              3.1835
 Quadrupole moment (field-independent basis, Debye-Ang):
   XX=           -374.2962   YY=           -414.0059   ZZ=           -406.1996
   XY=             -7.5997   XZ=             25.2458   YZ=             -0.1265

 Normal termination of Gaussian 16 at Fri Apr 29 06:52:36 2022.
