 Gaussian 16, Revision A.03,
 Gaussian 16:  ES64L-G16RevA.03 25-Dec-2016

 --------------------
 #p ZINDO=(nstates=5)
 --------------------

 ---------------------------
 step_1_chromophore_25 ZINDO
 ---------------------------
 Symbolic Z-matrix:
 Charge =  0 Multiplicity = 1

                         Standard orientation:
 ---------------------------------------------------------------------
 Center     Atomic      Atomic             Coordinates (Angstroms)
 Number     Number       Type             X           Y           Z
 ---------------------------------------------------------------------
      1         12           0        6.024536    0.400113    0.309236
      2          6           0        3.639839   -2.206034    0.147485
      3          6           0        3.505303    2.616739   -0.375679
      4          6           0        8.332062    2.724172   -0.182597
      5          6           0        8.528412   -2.036786    0.517999
      6          7           0        3.844089    0.198740   -0.232289
      7          6           0        3.090152   -0.971933   -0.114628
      8          6           0        1.579710   -0.631228   -0.141567
      9          6           0        1.565946    0.929623   -0.331289
     10          6           0        3.065445    1.333416   -0.277074
     11          6           0        0.709356    1.483581   -1.456406
     12          6           0        0.749764   -1.096680    1.064995
     13          6           0       -0.479290   -1.967830    0.686037
     14          6           0       -1.813661   -1.464117    1.189725
     15          8           0       -2.074498   -1.011209    2.304459
     16          8           0       -2.799236   -1.508815    0.248480
     17          7           0        5.895544    2.424167   -0.127555
     18          6           0        4.791130    3.172051   -0.412791
     19          6           0        5.205315    4.552566   -0.492858
     20          6           0        6.662408    4.583841   -0.585312
     21          6           0        6.984377    3.191103   -0.314665
     22          6           0        4.162570    5.757707   -0.759028
     23          6           0        7.588511    5.594685   -1.110435
     24          8           0        8.784868    5.540682   -1.143076
     25          6           0        6.944512    6.849554   -1.692321
     26          7           0        8.157736    0.289930   -0.020699
     27          6           0        8.881033    1.420316   -0.140139
     28          6           0       10.374627    1.126588    0.018679
     29          6           0       10.381273   -0.300285    0.590273
     30          6           0        8.942340   -0.725759    0.401034
     31          6           0       11.140167    1.222995   -1.379993
     32          6           0       10.737735   -0.219865    2.161259
     33          6           0        9.618613    0.344949    3.078198
     34          7           0        6.160866   -1.707097    0.454528
     35          6           0        7.225023   -2.521297    0.543123
     36          6           0        6.748264   -3.876182    0.617395
     37          6           0        5.372207   -3.791325    0.517923
     38          6           0        5.031340   -2.446192    0.351749
     39          6           0        7.539525   -5.163996    0.744761
     40          6           0        4.191376   -4.656581    0.452565
     41          8           0        3.937445   -5.826998    0.401500
     42          6           0        3.009688   -3.664454    0.289185
     43          6           0        2.333393   -4.055864   -0.972477
     44          8           0        2.938890   -4.137011   -2.011583
     45          8           0        0.999803   -4.392018   -0.803769
     46          6           0        0.333954   -5.078201   -1.961156
     47          6           0       -4.127472   -1.034191    0.625105
     48          6           0       -5.119183   -0.957730   -0.576985
     49          6           0       -6.256054   -0.216090   -0.685722
     50          6           0       -6.933538    0.780164    0.281180
     51          6           0       -7.041255   -0.419158   -1.998481
     52          6           0       -8.523755   -0.810681   -1.861734
     53          6           0       -9.457674   -0.110403   -2.846068
     54          6           0      -10.946981   -0.486707   -2.681535
     55          6           0      -11.385127   -1.632034   -3.659660
     56          6           0      -11.903469    0.770791   -2.886545
     57          6           0      -12.224045    1.393287   -1.474413
     58          6           0      -13.789891    1.246582   -1.047273
     59          6           0      -13.982750    0.362604    0.195370
     60          6           0      -15.495431    0.081001    0.490821
     61          6           0      -13.380160    1.112244    1.439155
     62          6           0      -12.261725    0.288959    2.052078
     63          6           0      -10.996513    1.270630    2.226761
     64          6           0      -10.556312    1.598698    3.693918
     65          6           0      -11.702242    2.418913    4.388853
     66          6           0       -9.146222    2.278014    3.796148
     67          1           0        2.674252    3.325241   -0.384466
     68          1           0        9.131044    3.468182   -0.218808
     69          1           0        9.213608   -2.840909    0.794420
     70          1           0        1.147972   -1.036596   -1.056888
     71          1           0        1.052824    1.365420    0.526189
     72          1           0        0.440371    0.703690   -2.167273
     73          1           0        1.168283    2.317280   -1.988448
     74          1           0       -0.228901    1.786273   -0.992166
     75          1           0        0.293532   -0.334826    1.697103
     76          1           0        1.365868   -1.667665    1.759242
     77          1           0       -0.313915   -3.018007    0.926399
     78          1           0       -0.580924   -1.934549   -0.397958
     79          1           0        4.375499    6.546449   -0.037555
     80          1           0        3.108690    5.525264   -0.610773
     81          1           0        4.111091    6.195319   -1.755969
     82          1           0        6.424256    7.282103   -0.837404
     83          1           0        6.258918    6.479979   -2.454212
     84          1           0        7.649898    7.600599   -2.049284
     85          1           0       10.866846    1.757957    0.759168
     86          1           0       10.981377   -1.079565    0.119962
     87          1           0       12.165960    1.518116   -1.157628
     88          1           0       10.781692    1.935664   -2.123528
     89          1           0       11.126080    0.200780   -1.757803
     90          1           0       11.652921    0.338065    2.358407
     91          1           0       10.812957   -1.228211    2.568530
     92          1           0        9.917090    0.558831    4.103939
     93          1           0        8.826514   -0.402564    3.124673
     94          1           0        9.225567    1.242741    2.600025
     95          1           0        8.115642   -5.248439    1.665925
     96          1           0        8.232833   -5.120552   -0.094796
     97          1           0        6.928556   -6.051603    0.580628
     98          1           0        2.366479   -3.904101    1.135726
     99          1           0       -0.605541   -4.525527   -1.960645
    100          1           0        0.138673   -6.134436   -1.776792
    101          1           0        0.794679   -5.063145   -2.948568
    102          1           0       -4.039458   -0.034929    1.051018
    103          1           0       -4.527196   -1.713658    1.377720
    104          1           0       -4.738377   -1.568775   -1.394932
    105          1           0       -7.148830    1.733299   -0.200851
    106          1           0       -6.200420    0.953912    1.068474
    107          1           0       -7.754515    0.315449    0.828221
    108          1           0       -6.555665   -1.215811   -2.561219
    109          1           0       -7.000623    0.491339   -2.596648
    110          1           0       -9.021623   -0.572281   -0.922088
    111          1           0       -8.630247   -1.865700   -2.115407
    112          1           0       -9.160692   -0.402801   -3.853472
    113          1           0       -9.203569    0.946049   -2.932138
    114          1           0      -11.154874   -0.866892   -1.681522
    115          1           0      -10.608997   -2.051938   -4.298372
    116          1           0      -12.211399   -1.409228   -4.335038
    117          1           0      -11.773146   -2.427904   -3.024004
    118          1           0      -12.826485    0.425160   -3.352333
    119          1           0      -11.451289    1.468582   -3.592185
    120          1           0      -11.994423    2.457761   -1.511024
    121          1           0      -11.599271    0.983890   -0.680446
    122          1           0      -14.263294    0.831987   -1.937121
    123          1           0      -14.325662    2.176888   -0.854897
    124          1           0      -13.589796   -0.633098   -0.007442
    125          1           0      -15.615893   -0.100207    1.558780
    126          1           0      -15.850995   -0.894284    0.157429
    127          1           0      -16.163759    0.885004    0.182392
    128          1           0      -14.118273    1.083545    2.240331
    129          1           0      -13.251641    2.172712    1.222188
    130          1           0      -11.889687   -0.444943    1.337102
    131          1           0      -12.532114   -0.217587    2.978767
    132          1           0      -11.098622    2.205858    1.677034
    133          1           0      -10.195228    0.681170    1.781522
    134          1           0      -10.441121    0.656765    4.229758
    135          1           0      -12.451193    2.776899    3.681950
    136          1           0      -11.313631    3.295561    4.908427
    137          1           0      -12.176683    1.810325    5.158191
    138          1           0       -8.421505    1.471364    3.907825
    139          1           0       -9.051159    2.938699    4.657786
    140          1           0       -8.925314    2.756964    2.842364
 ---------------------------------------------------------------------

 SCF Done:  E(RZINDO/S) =  -474.209240939     A.U. after   20 cycles

 Excitation energies and oscillator strengths:

 Excited State   1:      Singlet-A      1.2581 eV  985.50 nm  f=0.6308  <S**2>=0.000
     175 ->178         0.19135
     176 ->177         0.66346
 This state for optimization and/or second-order correction.
 Total Energy, E(CIS/TDA) =  -474.163007420
 Copying the excited state density for this state as the 1-particle RhoCI density.

 Excited State   2:      Singlet-A      1.8952 eV  654.20 nm  f=0.0937  <S**2>=0.000
     175 ->177         0.58624
     176 ->178        -0.36547

 Excited State   3:      Singlet-A      2.9536 eV  419.77 nm  f=0.0733  <S**2>=0.000
     168 ->179         0.10522
     170 ->177         0.27826
     170 ->178        -0.10696
     170 ->179         0.27011
     170 ->181         0.30484
     170 ->186         0.16045
     170 ->187         0.18563
     170 ->188         0.10143
     172 ->177        -0.10879
     176 ->178        -0.18726

 Excited State   4:      Singlet-A      2.9750 eV  416.76 nm  f=0.0036  <S**2>=0.000
     168 ->177         0.30154
     168 ->178        -0.12417
     168 ->179        -0.36084
     168 ->181         0.26162
     168 ->186        -0.19679
     168 ->198         0.10142
     169 ->177         0.12193
     169 ->179        -0.17651

 Excited State   5:      Singlet-A      3.0738 eV  403.36 nm  f=0.8768  <S**2>=0.000
     170 ->177         0.13046
     170 ->181         0.11506
     171 ->177        -0.13570
     174 ->177         0.12004
     175 ->177         0.30083
     176 ->178         0.52289

 The electronic state is 1-A.
 Alpha  occ. eigenvalues --   -1.86612  -1.82646  -1.79926  -1.73818  -1.72546
 Alpha  occ. eigenvalues --   -1.70999  -1.64440  -1.60400  -1.60019  -1.59649
 Alpha  occ. eigenvalues --   -1.52878  -1.50449  -1.48590  -1.48047  -1.44821
 Alpha  occ. eigenvalues --   -1.44036  -1.42927  -1.39729  -1.37216  -1.36674
 Alpha  occ. eigenvalues --   -1.35292  -1.34265  -1.32872  -1.31466  -1.29649
 Alpha  occ. eigenvalues --   -1.27528  -1.24598  -1.21295  -1.19992  -1.18013
 Alpha  occ. eigenvalues --   -1.17437  -1.16135  -1.15400  -1.14515  -1.12690
 Alpha  occ. eigenvalues --   -1.12264  -1.11413  -1.09795  -1.05856  -1.04603
 Alpha  occ. eigenvalues --   -1.02473  -1.01169  -0.98654  -0.97997  -0.96427
 Alpha  occ. eigenvalues --   -0.95564  -0.95122  -0.94840  -0.93662  -0.93358
 Alpha  occ. eigenvalues --   -0.90384  -0.89824  -0.88618  -0.88119  -0.86674
 Alpha  occ. eigenvalues --   -0.85889  -0.83864  -0.83435  -0.81872  -0.81279
 Alpha  occ. eigenvalues --   -0.80213  -0.79561  -0.77509  -0.77311  -0.77021
 Alpha  occ. eigenvalues --   -0.76167  -0.75584  -0.75004  -0.74081  -0.73565
 Alpha  occ. eigenvalues --   -0.73128  -0.72422  -0.71900  -0.70890  -0.69926
 Alpha  occ. eigenvalues --   -0.69669  -0.69069  -0.68900  -0.68027  -0.67601
 Alpha  occ. eigenvalues --   -0.66743  -0.66438  -0.66390  -0.66019  -0.65399
 Alpha  occ. eigenvalues --   -0.65308  -0.64335  -0.64058  -0.63814  -0.63495
 Alpha  occ. eigenvalues --   -0.63410  -0.62721  -0.62454  -0.62259  -0.61911
 Alpha  occ. eigenvalues --   -0.61786  -0.61109  -0.60937  -0.60438  -0.60091
 Alpha  occ. eigenvalues --   -0.59883  -0.59602  -0.58782  -0.58545  -0.57966
 Alpha  occ. eigenvalues --   -0.57508  -0.57400  -0.56972  -0.56695  -0.56055
 Alpha  occ. eigenvalues --   -0.55901  -0.55756  -0.55297  -0.54777  -0.54442
 Alpha  occ. eigenvalues --   -0.53990  -0.53820  -0.53615  -0.53581  -0.53293
 Alpha  occ. eigenvalues --   -0.52998  -0.52843  -0.52256  -0.51978  -0.51478
 Alpha  occ. eigenvalues --   -0.51173  -0.50944  -0.50856  -0.50746  -0.50533
 Alpha  occ. eigenvalues --   -0.50372  -0.49882  -0.49483  -0.49225  -0.49036
 Alpha  occ. eigenvalues --   -0.48906  -0.48623  -0.48392  -0.48266  -0.47979
 Alpha  occ. eigenvalues --   -0.47859  -0.47625  -0.47531  -0.47060  -0.46828
 Alpha  occ. eigenvalues --   -0.46377  -0.46119  -0.46024  -0.45745  -0.45642
 Alpha  occ. eigenvalues --   -0.45588  -0.44882  -0.44796  -0.44559  -0.43854
 Alpha  occ. eigenvalues --   -0.43736  -0.43320  -0.42953  -0.42823  -0.42146
 Alpha  occ. eigenvalues --   -0.42031  -0.41743  -0.40927  -0.39108  -0.38729
 Alpha  occ. eigenvalues --   -0.38204  -0.37418  -0.35299  -0.35021  -0.34241
 Alpha  occ. eigenvalues --   -0.33596  -0.32930  -0.32756  -0.32321  -0.26702
 Alpha  occ. eigenvalues --   -0.22161
 Alpha virt. eigenvalues --   -0.08974  -0.01836  -0.00277   0.01455   0.01628
 Alpha virt. eigenvalues --    0.01899   0.02788   0.03047   0.04460   0.05051
 Alpha virt. eigenvalues --    0.06439   0.06561   0.07577   0.08174   0.08289

 Mulliken charges:
               1
     1  Mg   0.430122
     2  C   -0.048046
     3  C   -0.062659
     4  C   -0.066694
     5  C   -0.066991
     6  N   -0.305934
     7  C    0.141926
     8  C    0.006600
     9  C   -0.002896
    10  C    0.119445
    11  C   -0.047482
    12  C   -0.022620
    13  C    0.003395
    14  C    0.470229
    15  O   -0.530899
    16  O   -0.272407
    17  N   -0.309978
    18  C    0.104488
    19  C   -0.021514
    20  C   -0.057698
    21  C    0.137868
    22  C   -0.057528
    23  C    0.338458
    24  O   -0.525805
    25  C   -0.036824
    26  N   -0.267109
    27  C    0.123557
    28  C    0.009173
    29  C    0.002885
    30  C    0.154279
    31  C   -0.055052
    32  C   -0.034920
    33  C   -0.055916
    34  N   -0.324297
    35  C    0.121079
    36  C    0.042061
    37  C   -0.044707
    38  C    0.130406
    39  C   -0.040096
    40  C    0.342813
    41  O   -0.503069
    42  C    0.044491
    43  C    0.493625
    44  O   -0.517723
    45  O   -0.281944
    46  C    0.073414
    47  C    0.102132
    48  C   -0.086289
    49  C   -0.012952
    50  C   -0.040793
    51  C   -0.025064
    52  C   -0.034691
    53  C   -0.035712
    54  C   -0.011452
    55  C   -0.063276
    56  C   -0.039029
    57  C   -0.045982
    58  C   -0.040119
    59  C   -0.012690
    60  C   -0.069117
    61  C   -0.032974
    62  C   -0.035749
    63  C   -0.043507
    64  C   -0.015876
    65  C   -0.059849
    66  C   -0.058656
    67  H    0.016512
    68  H    0.042948
    69  H    0.022757
    70  H    0.036266
    71  H    0.024492
    72  H    0.018520
    73  H    0.028018
    74  H    0.016977
    75  H    0.039307
    76  H    0.020558
    77  H    0.054462
    78  H    0.030150
    79  H    0.022836
    80  H    0.017415
    81  H    0.029673
    82  H    0.033596
    83  H    0.038369
    84  H    0.037364
    85  H    0.034887
    86  H    0.037139
    87  H    0.016656
    88  H    0.036457
    89  H    0.021868
    90  H    0.026062
    91  H    0.012331
    92  H    0.023303
    93  H    0.019183
    94  H    0.022968
    95  H    0.034318
    96  H    0.026040
    97  H    0.037740
    98  H    0.054697
    99  H    0.027263
   100  H    0.042751
   101  H    0.058284
   102  H    0.048267
   103  H    0.050485
   104  H    0.037878
   105  H    0.037714
   106  H    0.013308
   107  H    0.038532
   108  H    0.018894
   109  H    0.025704
   110  H    0.025930
   111  H    0.020381
   112  H    0.006066
   113  H    0.018416
   114  H    0.024615
   115  H    0.020240
   116  H    0.018975
   117  H    0.010558
   118  H    0.021164
   119  H    0.023641
   120  H    0.011798
   121  H    0.027709
   122  H    0.012689
   123  H    0.022622
   124  H    0.027664
   125  H    0.010066
   126  H    0.014020
   127  H    0.024643
   128  H    0.010044
   129  H    0.034271
   130  H    0.018185
   131  H    0.031171
   132  H    0.027427
   133  H    0.003865
   134  H    0.017725
   135  H    0.021797
   136  H    0.015054
   137  H    0.017360
   138  H    0.013676
   139  H    0.026958
   140  H    0.020463
 Sum of Mulliken charges =  -0.00000

 Dipole moment (field-independent basis, Debye):
    X=             -3.0748    Y=              1.2551    Z=              1.5232  Tot=              3.6538
 N-N= 4.277223856134D+03 E-N= 0.000000000000D+00  KE=-9.228548473196D+03
 Leave Link  601 at Fri Apr 29 07:05:38 2022, MaxMem=  6710886400 cpu:               4.9 elap:               0.2
 (Enter /sw/apps/gaussian-16.0/g16/l9999.exe)
 1\1\GINC-BP1-COMPUTE148\SP\RZINDO CIS\STO-3G\C55H74Mg1N4O6\OF15641\29-
 Apr-2022\0\\#p ZINDO=(nstates=5)\\step_1_chromophore_25 ZINDO\\0,1\Mg,
 0,-2.59,34.017,26.794\C,0,-3.62,32.414,29.773\C,0,-1.153,36.458,28.719
 \C,0,-2.206,35.825,24.046\C,0,-4.517,31.709,25.002\N,0,-2.552,34.472,2
 9.003\C,0,-2.952,33.593,30.013\C,0,-2.377,34.057,31.374\C,0,-1.602,35.
 375,31.007\C,0,-1.716,35.466,29.46\C,0,-1.914,36.614,31.828\C,0,-1.509
 ,33.042,32.134\C,0,-1.989,32.764,33.585\C,0,-0.958,32.997,34.667\O,0,0

 Normal termination of Gaussian 16 at Fri Apr 29 07:05:38 2022.
