 Gaussian 16, Revision A.03,
 Gaussian 16:  ES64L-G16RevA.03 25-Dec-2016

 ------------------------------
 #p blyp/Def2SVP td=(nstates=5)
 ------------------------------

 --------------------------------------------------
 step_551_chromophore_14 TDDFT with blyp functional
 --------------------------------------------------
 Symbolic Z-matrix:
 Charge =  0 Multiplicity = 1

                         Standard orientation:
 ---------------------------------------------------------------------
 Center     Atomic      Atomic             Coordinates (Angstroms)
 Number     Number       Type             X           Y           Z
 ---------------------------------------------------------------------
      1         12           0        5.444383    0.842630   -0.107132
      2          6           0        4.888470   -2.526478    0.444004
      3          6           0        4.061495    0.534064   -3.233652
      4          6           0        5.360237    4.203449   -0.278686
      5          6           0        6.354856    1.129469    3.360113
      6          7           0        4.721303   -0.830376   -1.303060
      7          6           0        4.555769   -2.095783   -0.904891
      8          6           0        4.073221   -2.995267   -2.084688
      9          6           0        3.955755   -2.117531   -3.261016
     10          6           0        4.239566   -0.748259   -2.642012
     11          6           0        4.792439   -2.479688   -4.459684
     12          6           0        2.735679   -3.785000   -1.685637
     13          6           0        1.564623   -2.921476   -1.142876
     14          6           0        0.123439   -3.321489   -1.383624
     15          8           0       -0.208044   -4.167858   -2.223490
     16          8           0       -0.748588   -2.507186   -0.665268
     17          7           0        4.908538    2.192373   -1.587267
     18          6           0        4.321194    1.891043   -2.780466
     19          6           0        4.073714    3.066216   -3.527501
     20          6           0        4.570906    4.216342   -2.761595
     21          6           0        4.952110    3.558436   -1.478051
     22          6           0        3.541442    3.068694   -4.906209
     23          6           0        4.633094    5.665212   -3.178058
     24          8           0        4.313958    6.099209   -4.299508
     25          6           0        5.234536    6.683251   -2.242423
     26          7           0        5.781029    2.377573    1.288915
     27          6           0        5.738971    3.698749    0.983317
     28          6           0        6.263793    4.587110    2.080875
     29          6           0        6.396188    3.646640    3.262807
     30          6           0        6.182521    2.240024    2.608317
     31          6           0        7.597881    5.295574    1.640443
     32          6           0        5.438481    3.944376    4.456531
     33          6           0        6.128983    4.767477    5.586651
     34          7           0        5.720129   -0.449691    1.593798
     35          6           0        6.089327   -0.234145    2.909570
     36          6           0        5.960167   -1.498873    3.672022
     37          6           0        5.647671   -2.413342    2.689816
     38          6           0        5.439746   -1.721581    1.525847
     39          6           0        5.988188   -1.635554    5.184109
     40          6           0        5.290217   -3.814027    2.453871
     41          8           0        5.331443   -4.718092    3.235018
     42          6           0        4.896606   -3.934678    0.985305
     43          6           0        5.900184   -4.913098    0.404387
     44          8           0        5.742902   -6.028574   -0.124306
     45          8           0        7.203507   -4.436094    0.608044
     46          6           0        8.163526   -5.271302   -0.112825
     47          6           0       -2.172031   -2.823822   -0.816464
     48          6           0       -3.075245   -1.583190   -0.574288
     49          6           0       -3.783452   -1.039868   -1.575851
     50          6           0       -3.760751   -1.539893   -2.965573
     51          6           0       -4.702360    0.159751   -1.288115
     52          6           0       -6.256059   -0.036886   -1.178304
     53          6           0       -6.833087   -0.448206    0.174061
     54          6           0       -8.294479    0.066718    0.238562
     55          6           0       -8.600265    0.708933    1.571064
     56          6           0       -9.207124   -1.198269    0.099559
     57          6           0      -10.519419   -0.848261   -0.522379
     58          6           0      -11.823986   -1.459935    0.142964
     59          6           0      -12.521650   -0.318090    0.957758
     60          6           0      -12.478680   -0.536947    2.459230
     61          6           0      -13.996456   -0.244523    0.529327
     62          6           0      -14.631929    1.171259    0.567224
     63          6           0      -15.931017    1.250752    1.475033
     64          6           0      -17.114476    1.443738    0.499404
     65          6           0      -17.131740    2.834295   -0.226685
     66          6           0      -18.413289    1.189359    1.242754
     67          1           0        3.752412    0.436469   -4.276530
     68          1           0        5.437897    5.291456   -0.334505
     69          1           0        6.738691    1.237460    4.376817
     70          1           0        4.842981   -3.766794   -2.088342
     71          1           0        2.960828   -2.077231   -3.703704
     72          1           0        5.769758   -2.858342   -4.160262
     73          1           0        5.113441   -1.552573   -4.935432
     74          1           0        4.195189   -3.085297   -5.142579
     75          1           0        2.971442   -4.615446   -1.020772
     76          1           0        2.337780   -4.134901   -2.637636
     77          1           0        1.856533   -1.898104   -1.377551
     78          1           0        1.854454   -3.025859   -0.097096
     79          1           0        2.903345    3.941248   -5.045234
     80          1           0        2.907490    2.186407   -4.994835
     81          1           0        4.373427    3.125318   -5.609447
     82          1           0        6.158314    6.423480   -1.725934
     83          1           0        4.468030    6.880803   -1.492565
     84          1           0        5.305428    7.584449   -2.851491
     85          1           0        5.565065    5.389300    2.319392
     86          1           0        7.452154    3.541285    3.514490
     87          1           0        8.215779    5.718126    2.432654
     88          1           0        7.410484    6.131562    0.966410
     89          1           0        8.156643    4.546551    1.078217
     90          1           0        5.132959    2.996775    4.900995
     91          1           0        4.518685    4.410183    4.102479
     92          1           0        6.893943    5.330347    5.052965
     93          1           0        6.589268    4.022030    6.234516
     94          1           0        5.368117    5.393810    6.051828
     95          1           0        6.242064   -0.725776    5.726973
     96          1           0        6.575132   -2.498154    5.500166
     97          1           0        4.949102   -1.899156    5.381442
     98          1           0        3.918028   -4.413805    0.966488
     99          1           0        9.151490   -4.895731    0.153364
    100          1           0        7.887673   -5.158851   -1.160488
    101          1           0        8.077352   -6.323643    0.157946
    102          1           0       -2.380011   -3.618870   -0.101072
    103          1           0       -2.359779   -3.231745   -1.809195
    104          1           0       -3.453277   -1.381955    0.428195
    105          1           0       -4.145161   -2.557002   -2.889389
    106          1           0       -2.753912   -1.572580   -3.381207
    107          1           0       -4.392616   -0.939956   -3.620953
    108          1           0       -4.552015    0.890394   -2.082743
    109          1           0       -4.412403    0.640009   -0.353712
    110          1           0       -6.483558   -0.746031   -1.974364
    111          1           0       -6.652233    0.950178   -1.418627
    112          1           0       -6.225876   -0.201611    1.045460
    113          1           0       -6.782015   -1.530548    0.061541
    114          1           0       -8.530889    0.966970   -0.328523
    115          1           0       -8.563012    0.092151    2.469111
    116          1           0       -9.634927    1.047780    1.527296
    117          1           0       -7.862793    1.486174    1.773087
    118          1           0       -9.345878   -1.764913    1.020087
    119          1           0       -8.738366   -1.839036   -0.646789
    120          1           0      -10.486887   -1.215573   -1.547717
    121          1           0      -10.581425    0.240101   -0.539594
    122          1           0      -11.601590   -2.289741    0.814380
    123          1           0      -12.373902   -1.850922   -0.712517
    124          1           0      -12.057570    0.656784    0.804490
    125          1           0      -11.471918   -0.389819    2.850659
    126          1           0      -12.742859   -1.586390    2.590477
    127          1           0      -13.219700    0.143951    2.878517
    128          1           0      -14.570929   -0.927673    1.154460
    129          1           0      -14.142601   -0.623733   -0.481919
    130          1           0      -14.969925    1.334561   -0.456200
    131          1           0      -13.822517    1.868493    0.783111
    132          1           0      -15.889277    2.202501    2.004865
    133          1           0      -16.029144    0.429455    2.186023
    134          1           0      -16.977741    0.656357   -0.240394
    135          1           0      -17.718344    3.571212    0.321286
    136          1           0      -17.458088    2.744669   -1.262674
    137          1           0      -16.124930    3.244621   -0.311132
    138          1           0      -18.484001    1.587700    2.255699
    139          1           0      -18.561053    0.116557    1.364848
    140          1           0      -19.274297    1.575293    0.697145
 ---------------------------------------------------------------------

 SCF Done:  E(RB-LYP) =  -3007.38640386     A.U. after   21 cycles

 Excitation energies and oscillator strengths:

 Excited State   1:      Singlet-A      1.7410 eV  712.13 nm  f=0.0064  <S**2>=0.000
     244 -> 247        0.69525
 This state for optimization and/or second-order correction.
 Total Energy, E(TD-HF/TD-DFT) =  -3007.32242239
 Copying the excited state density for this state as the 1-particle RhoCI density.

 Excited State   2:      Singlet-A      1.7742 eV  698.82 nm  f=0.3173  <S**2>=0.000
     245 -> 248       -0.16910
     246 -> 247        0.69260
     246 <- 247       -0.16400

 Excited State   3:      Singlet-A      1.9256 eV  643.87 nm  f=0.0214  <S**2>=0.000
     243 -> 247        0.59216
     245 -> 247        0.36507

 Excited State   4:      Singlet-A      2.0359 eV  608.99 nm  f=0.0731  <S**2>=0.000
     243 -> 247       -0.38221
     245 -> 247        0.53928
     246 -> 248        0.20378

 Excited State   5:      Singlet-A      2.2910 eV  541.17 nm  f=0.0002  <S**2>=0.000
     241 -> 247        0.70702

 The electronic state is 1-A.
 Alpha  occ. eigenvalues --  -46.27841 -18.81914 -18.81888 -18.77475 -18.77346
 Alpha  occ. eigenvalues --  -18.76062 -18.75239 -14.04271 -14.03666 -14.01486
 Alpha  occ. eigenvalues --  -14.01143 -10.04741 -10.04614  -9.99796  -9.99738
 Alpha  occ. eigenvalues --   -9.97680  -9.97529  -9.97386  -9.97275  -9.96870
 Alpha  occ. eigenvalues --   -9.96532  -9.96445  -9.96287  -9.95789  -9.94695
 Alpha  occ. eigenvalues --   -9.94681  -9.94672  -9.94629  -9.94559  -9.94323
 Alpha  occ. eigenvalues --   -9.94206  -9.93800  -9.93761  -9.93500  -9.93470
 Alpha  occ. eigenvalues --   -9.93213  -9.93173  -9.93139  -9.93110  -9.93107
 Alpha  occ. eigenvalues --   -9.93080  -9.92990  -9.92880  -9.92785  -9.92549
 Alpha  occ. eigenvalues --   -9.92332  -9.92093  -9.92048  -9.91998  -9.91961
 Alpha  occ. eigenvalues --   -9.91608  -9.91580  -9.91541  -9.91341  -9.91249
 Alpha  occ. eigenvalues --   -9.91146  -9.91031  -9.91017  -9.90862  -9.90810
 Alpha  occ. eigenvalues --   -9.90736  -9.90707  -9.90677  -9.90535  -9.90412
 Alpha  occ. eigenvalues --   -9.90252  -2.92423  -1.72860  -1.72277  -1.72152
 Alpha  occ. eigenvalues --   -0.97344  -0.96832  -0.93227  -0.90195  -0.89586
 Alpha  occ. eigenvalues --   -0.88840  -0.87726  -0.86393  -0.86310  -0.85324
 Alpha  occ. eigenvalues --   -0.76112  -0.74078  -0.73899  -0.73222  -0.72842
 Alpha  occ. eigenvalues --   -0.72468  -0.72137  -0.71287  -0.71094  -0.70498
 Alpha  occ. eigenvalues --   -0.69997  -0.69283  -0.68379  -0.67904  -0.67407
 Alpha  occ. eigenvalues --   -0.66277  -0.65924  -0.65138  -0.64813  -0.64418
 Alpha  occ. eigenvalues --   -0.64061  -0.62926  -0.62239  -0.61784  -0.61071
 Alpha  occ. eigenvalues --   -0.60890  -0.60238  -0.60163  -0.59644  -0.58919
 Alpha  occ. eigenvalues --   -0.58487  -0.58085  -0.57086  -0.55723  -0.54617
 Alpha  occ. eigenvalues --   -0.54026  -0.53284  -0.52922  -0.51920  -0.51802
 Alpha  occ. eigenvalues --   -0.51426  -0.50951  -0.50474  -0.50325  -0.50177
 Alpha  occ. eigenvalues --   -0.49331  -0.49113  -0.49011  -0.48914  -0.46689
 Alpha  occ. eigenvalues --   -0.46271  -0.46067  -0.45736  -0.45368  -0.45017
 Alpha  occ. eigenvalues --   -0.44764  -0.43969  -0.43359  -0.43075  -0.42736
 Alpha  occ. eigenvalues --   -0.42306  -0.42185  -0.41791  -0.41683  -0.41249
 Alpha  occ. eigenvalues --   -0.40941  -0.40675  -0.40624  -0.40592  -0.40146
 Alpha  occ. eigenvalues --   -0.40050  -0.39932  -0.39676  -0.39577  -0.39365
 Alpha  occ. eigenvalues --   -0.39196  -0.39093  -0.38871  -0.38738  -0.38677
 Alpha  occ. eigenvalues --   -0.38450  -0.38043  -0.37772  -0.37691  -0.37540
 Alpha  occ. eigenvalues --   -0.37454  -0.36956  -0.36822  -0.36546  -0.36517
 Alpha  occ. eigenvalues --   -0.36418  -0.36268  -0.36141  -0.35901  -0.35751
 Alpha  occ. eigenvalues --   -0.35578  -0.35123  -0.35058  -0.34985  -0.34938
 Alpha  occ. eigenvalues --   -0.34804  -0.34576  -0.34394  -0.34364  -0.33951
 Alpha  occ. eigenvalues --   -0.33845  -0.33761  -0.33677  -0.33593  -0.33267
 Alpha  occ. eigenvalues --   -0.33194  -0.32914  -0.32795  -0.32748  -0.32516
 Alpha  occ. eigenvalues --   -0.32362  -0.32023  -0.31650  -0.31525  -0.31464
 Alpha  occ. eigenvalues --   -0.31362  -0.31181  -0.31111  -0.30896  -0.30814
 Alpha  occ. eigenvalues --   -0.30660  -0.30468  -0.30418  -0.30251  -0.30166
 Alpha  occ. eigenvalues --   -0.29802  -0.29634  -0.29531  -0.29029  -0.28967
 Alpha  occ. eigenvalues --   -0.28883  -0.28652  -0.28557  -0.28494  -0.28328
 Alpha  occ. eigenvalues --   -0.28267  -0.27990  -0.27170  -0.26990  -0.26859
 Alpha  occ. eigenvalues --   -0.26517  -0.26375  -0.26111  -0.25863  -0.25230
 Alpha  occ. eigenvalues --   -0.24939  -0.24705  -0.24651  -0.24413  -0.23982
 Alpha  occ. eigenvalues --   -0.22905  -0.22796  -0.22503  -0.21752  -0.21253
 Alpha  occ. eigenvalues --   -0.20589  -0.20304  -0.19243  -0.18507  -0.17664
 Alpha  occ. eigenvalues --   -0.16194
 Alpha virt. eigenvalues --   -0.12171  -0.07043  -0.06128  -0.04964  -0.03780
 Alpha virt. eigenvalues --   -0.03572  -0.03096  -0.02732  -0.01764  -0.00291
 Alpha virt. eigenvalues --    0.00699   0.01005   0.01991   0.02345   0.02813

 Mulliken charges:
               1
     1  Mg   0.708340
     2  C    0.000004
     3  C   -0.078052
     4  C   -0.040356
     5  C   -0.090063
     6  N   -0.232482
     7  C   -0.086267
     8  C    0.059937
     9  C    0.069319
    10  C   -0.028392
    11  C    0.156932
    12  C    0.048635
    13  C    0.068528
    14  C    0.147382
    15  O   -0.198495
    16  O   -0.277898
    17  N   -0.280702
    18  C    0.157375
    19  C   -0.173800
    20  C    0.044330
    21  C    0.120839
    22  C    0.194795
    23  C   -0.089458
    24  O   -0.180975
    25  C    0.134454
    26  N   -0.230024
    27  C   -0.008204
    28  C    0.046405
    29  C    0.041376
    30  C    0.043487
    31  C    0.097147
    32  C    0.090035
    33  C    0.077309
    34  N   -0.203667
    35  C    0.063625
    36  C   -0.204719
    37  C    0.101430
    38  C    0.056911
    39  C    0.182854
    40  C   -0.106855
    41  O   -0.090632
    42  C    0.094518
    43  C    0.124353
    44  O   -0.189860
    45  O   -0.296699
    46  C    0.235988
    47  C    0.281967
    48  C   -0.048206
    49  C   -0.183721
    50  C    0.159298
    51  C    0.130259
    52  C    0.040390
    53  C    0.147247
    54  C   -0.085355
    55  C    0.086670
    56  C    0.133136
    57  C    0.040489
    58  C    0.118735
    59  C   -0.085215
    60  C    0.111470
    61  C    0.086747
    62  C    0.061874
    63  C    0.101901
    64  C   -0.095356
    65  C    0.102883
    66  C    0.114832
    67  H   -0.059987
    68  H   -0.101495
    69  H   -0.054619
    70  H   -0.016665
    71  H   -0.022616
    72  H   -0.020609
    73  H   -0.023534
    74  H    0.010794
    75  H    0.009011
    76  H   -0.014076
    77  H    0.019908
    78  H   -0.000718
    79  H    0.001385
    80  H   -0.012776
    81  H    0.014556
    82  H    0.020507
    83  H    0.006781
    84  H   -0.012399
    85  H   -0.028777
    86  H   -0.032783
    87  H   -0.002858
    88  H   -0.005438
    89  H   -0.005305
    90  H   -0.028706
    91  H   -0.021402
    92  H   -0.004698
    93  H    0.000743
    94  H    0.002598
    95  H   -0.011309
    96  H    0.012658
    97  H    0.009851
    98  H   -0.008645
    99  H    0.011764
   100  H    0.000666
   101  H    0.022357
   102  H   -0.012019
   103  H   -0.014589
   104  H   -0.032041
   105  H    0.017055
   106  H    0.020072
   107  H   -0.014980
   108  H   -0.030856
   109  H   -0.037606
   110  H   -0.029590
   111  H   -0.028068
   112  H   -0.036054
   113  H   -0.032204
   114  H   -0.017107
   115  H   -0.027471
   116  H   -0.021609
   117  H   -0.020330
   118  H   -0.025021
   119  H   -0.043098
   120  H   -0.039511
   121  H   -0.030398
   122  H   -0.035977
   123  H   -0.031003
   124  H   -0.021682
   125  H   -0.018326
   126  H   -0.018428
   127  H   -0.008444
   128  H   -0.044944
   129  H   -0.046537
   130  H   -0.024506
   131  H   -0.033536
   132  H   -0.042788
   133  H   -0.017612
   134  H   -0.037054
   135  H   -0.011272
   136  H   -0.012490
   137  H   -0.021853
   138  H   -0.020703
   139  H   -0.025947
   140  H   -0.024386
 Sum of Mulliken charges =  -0.00000

 Dipole moment (field-independent basis, Debye):
    X=              0.2348    Y=              3.5044    Z=              1.6525  Tot=              3.8816
 Quadrupole moment (field-independent basis, Debye-Ang):
   XX=           -366.5752   YY=           -449.8888   ZZ=           -409.1077
   XY=             17.7512   XZ=             13.7360   YZ=             37.1793

 Normal termination of Gaussian 16 at Thu May  5 04:06:36 2022.
