 Gaussian 16, Revision A.03,
 Gaussian 16:  ES64L-G16RevA.03 25-Dec-2016

 -----------------------------------
 #p cam-b3lyp/Def2SVP td=(nstates=5)
 -----------------------------------

 -------------------------------------------------------
 step_551_chromophore_14 TDDFT with cam-b3lyp functional
 -------------------------------------------------------
 Symbolic Z-matrix:
 Charge =  0 Multiplicity = 1

                         Standard orientation:
 ---------------------------------------------------------------------
 Center     Atomic      Atomic             Coordinates (Angstroms)
 Number     Number       Type             X           Y           Z
 ---------------------------------------------------------------------
      1         12           0        5.444383    0.842630   -0.107132
      2          6           0        4.888470   -2.526478    0.444004
      3          6           0        4.061495    0.534064   -3.233652
      4          6           0        5.360237    4.203449   -0.278686
      5          6           0        6.354856    1.129469    3.360113
      6          7           0        4.721303   -0.830376   -1.303060
      7          6           0        4.555769   -2.095783   -0.904891
      8          6           0        4.073221   -2.995267   -2.084688
      9          6           0        3.955755   -2.117531   -3.261016
     10          6           0        4.239566   -0.748259   -2.642012
     11          6           0        4.792439   -2.479688   -4.459684
     12          6           0        2.735679   -3.785000   -1.685637
     13          6           0        1.564623   -2.921476   -1.142876
     14          6           0        0.123439   -3.321489   -1.383624
     15          8           0       -0.208044   -4.167858   -2.223490
     16          8           0       -0.748588   -2.507186   -0.665268
     17          7           0        4.908538    2.192373   -1.587267
     18          6           0        4.321194    1.891043   -2.780466
     19          6           0        4.073714    3.066216   -3.527501
     20          6           0        4.570906    4.216342   -2.761595
     21          6           0        4.952110    3.558436   -1.478051
     22          6           0        3.541442    3.068694   -4.906209
     23          6           0        4.633094    5.665212   -3.178058
     24          8           0        4.313958    6.099209   -4.299508
     25          6           0        5.234536    6.683251   -2.242423
     26          7           0        5.781029    2.377573    1.288915
     27          6           0        5.738971    3.698749    0.983317
     28          6           0        6.263793    4.587110    2.080875
     29          6           0        6.396188    3.646640    3.262807
     30          6           0        6.182521    2.240024    2.608317
     31          6           0        7.597881    5.295574    1.640443
     32          6           0        5.438481    3.944376    4.456531
     33          6           0        6.128983    4.767477    5.586651
     34          7           0        5.720129   -0.449691    1.593798
     35          6           0        6.089327   -0.234145    2.909570
     36          6           0        5.960167   -1.498873    3.672022
     37          6           0        5.647671   -2.413342    2.689816
     38          6           0        5.439746   -1.721581    1.525847
     39          6           0        5.988188   -1.635554    5.184109
     40          6           0        5.290217   -3.814027    2.453871
     41          8           0        5.331443   -4.718092    3.235018
     42          6           0        4.896606   -3.934678    0.985305
     43          6           0        5.900184   -4.913098    0.404387
     44          8           0        5.742902   -6.028574   -0.124306
     45          8           0        7.203507   -4.436094    0.608044
     46          6           0        8.163526   -5.271302   -0.112825
     47          6           0       -2.172031   -2.823822   -0.816464
     48          6           0       -3.075245   -1.583190   -0.574288
     49          6           0       -3.783452   -1.039868   -1.575851
     50          6           0       -3.760751   -1.539893   -2.965573
     51          6           0       -4.702360    0.159751   -1.288115
     52          6           0       -6.256059   -0.036886   -1.178304
     53          6           0       -6.833087   -0.448206    0.174061
     54          6           0       -8.294479    0.066718    0.238562
     55          6           0       -8.600265    0.708933    1.571064
     56          6           0       -9.207124   -1.198269    0.099559
     57          6           0      -10.519419   -0.848261   -0.522379
     58          6           0      -11.823986   -1.459935    0.142964
     59          6           0      -12.521650   -0.318090    0.957758
     60          6           0      -12.478680   -0.536947    2.459230
     61          6           0      -13.996456   -0.244523    0.529327
     62          6           0      -14.631929    1.171259    0.567224
     63          6           0      -15.931017    1.250752    1.475033
     64          6           0      -17.114476    1.443738    0.499404
     65          6           0      -17.131740    2.834295   -0.226685
     66          6           0      -18.413289    1.189359    1.242754
     67          1           0        3.752412    0.436469   -4.276530
     68          1           0        5.437897    5.291456   -0.334505
     69          1           0        6.738691    1.237460    4.376817
     70          1           0        4.842981   -3.766794   -2.088342
     71          1           0        2.960828   -2.077231   -3.703704
     72          1           0        5.769758   -2.858342   -4.160262
     73          1           0        5.113441   -1.552573   -4.935432
     74          1           0        4.195189   -3.085297   -5.142579
     75          1           0        2.971442   -4.615446   -1.020772
     76          1           0        2.337780   -4.134901   -2.637636
     77          1           0        1.856533   -1.898104   -1.377551
     78          1           0        1.854454   -3.025859   -0.097096
     79          1           0        2.903345    3.941248   -5.045234
     80          1           0        2.907490    2.186407   -4.994835
     81          1           0        4.373427    3.125318   -5.609447
     82          1           0        6.158314    6.423480   -1.725934
     83          1           0        4.468030    6.880803   -1.492565
     84          1           0        5.305428    7.584449   -2.851491
     85          1           0        5.565065    5.389300    2.319392
     86          1           0        7.452154    3.541285    3.514490
     87          1           0        8.215779    5.718126    2.432654
     88          1           0        7.410484    6.131562    0.966410
     89          1           0        8.156643    4.546551    1.078217
     90          1           0        5.132959    2.996775    4.900995
     91          1           0        4.518685    4.410183    4.102479
     92          1           0        6.893943    5.330347    5.052965
     93          1           0        6.589268    4.022030    6.234516
     94          1           0        5.368117    5.393810    6.051828
     95          1           0        6.242064   -0.725776    5.726973
     96          1           0        6.575132   -2.498154    5.500166
     97          1           0        4.949102   -1.899156    5.381442
     98          1           0        3.918028   -4.413805    0.966488
     99          1           0        9.151490   -4.895731    0.153364
    100          1           0        7.887673   -5.158851   -1.160488
    101          1           0        8.077352   -6.323643    0.157946
    102          1           0       -2.380011   -3.618870   -0.101072
    103          1           0       -2.359779   -3.231745   -1.809195
    104          1           0       -3.453277   -1.381955    0.428195
    105          1           0       -4.145161   -2.557002   -2.889389
    106          1           0       -2.753912   -1.572580   -3.381207
    107          1           0       -4.392616   -0.939956   -3.620953
    108          1           0       -4.552015    0.890394   -2.082743
    109          1           0       -4.412403    0.640009   -0.353712
    110          1           0       -6.483558   -0.746031   -1.974364
    111          1           0       -6.652233    0.950178   -1.418627
    112          1           0       -6.225876   -0.201611    1.045460
    113          1           0       -6.782015   -1.530548    0.061541
    114          1           0       -8.530889    0.966970   -0.328523
    115          1           0       -8.563012    0.092151    2.469111
    116          1           0       -9.634927    1.047780    1.527296
    117          1           0       -7.862793    1.486174    1.773087
    118          1           0       -9.345878   -1.764913    1.020087
    119          1           0       -8.738366   -1.839036   -0.646789
    120          1           0      -10.486887   -1.215573   -1.547717
    121          1           0      -10.581425    0.240101   -0.539594
    122          1           0      -11.601590   -2.289741    0.814380
    123          1           0      -12.373902   -1.850922   -0.712517
    124          1           0      -12.057570    0.656784    0.804490
    125          1           0      -11.471918   -0.389819    2.850659
    126          1           0      -12.742859   -1.586390    2.590477
    127          1           0      -13.219700    0.143951    2.878517
    128          1           0      -14.570929   -0.927673    1.154460
    129          1           0      -14.142601   -0.623733   -0.481919
    130          1           0      -14.969925    1.334561   -0.456200
    131          1           0      -13.822517    1.868493    0.783111
    132          1           0      -15.889277    2.202501    2.004865
    133          1           0      -16.029144    0.429455    2.186023
    134          1           0      -16.977741    0.656357   -0.240394
    135          1           0      -17.718344    3.571212    0.321286
    136          1           0      -17.458088    2.744669   -1.262674
    137          1           0      -16.124930    3.244621   -0.311132
    138          1           0      -18.484001    1.587700    2.255699
    139          1           0      -18.561053    0.116557    1.364848
    140          1           0      -19.274297    1.575293    0.697145
 ---------------------------------------------------------------------

 SCF Done:  E(RCAM-B3LYP) =  -3007.18006705     A.U. after   19 cycles

 Excitation energies and oscillator strengths:

 Excited State   1:      Singlet-A      1.6435 eV  754.41 nm  f=0.3976  <S**2>=0.000
     245 -> 248       -0.16327
     246 -> 247        0.68976
     245 <- 248       -0.10621
 This state for optimization and/or second-order correction.
 Total Energy, E(TD-HF/TD-DFT) =  -3007.11967079
 Copying the excited state density for this state as the 1-particle RhoCI density.

 Excited State   2:      Singlet-A      2.1900 eV  566.14 nm  f=0.1445  <S**2>=0.000
     245 -> 247        0.65137
     246 -> 248        0.26112

 Excited State   3:      Singlet-A      3.2331 eV  383.49 nm  f=0.0104  <S**2>=0.000
     242 -> 247       -0.17310
     244 -> 247        0.67262

 Excited State   4:      Singlet-A      3.4008 eV  364.57 nm  f=0.0045  <S**2>=0.000
     239 -> 247        0.11236
     240 -> 247        0.10658
     241 -> 247       -0.22905
     242 -> 247        0.59459
     244 -> 247        0.15084
     246 -> 248       -0.13466

 Excited State   5:      Singlet-A      3.5199 eV  352.24 nm  f=0.0020  <S**2>=0.000
     241 -> 247        0.50727
     241 -> 248        0.15670
     241 -> 249       -0.31146
     241 -> 250        0.16342
     242 -> 247        0.18541
     242 -> 249       -0.10201

 The electronic state is 1-A.
 Alpha  occ. eigenvalues --  -46.89439 -19.24853 -19.24772 -19.20746 -19.20358
 Alpha  occ. eigenvalues --  -19.19538 -19.18325 -14.43356 -14.42515 -14.39949
 Alpha  occ. eigenvalues --  -14.39702 -10.40291 -10.40171 -10.35182 -10.34943
 Alpha  occ. eigenvalues --  -10.32452 -10.31898 -10.31650 -10.31346 -10.31236
 Alpha  occ. eigenvalues --  -10.30972 -10.30965 -10.30854 -10.29919 -10.29265
 Alpha  occ. eigenvalues --  -10.29217 -10.29166 -10.28979 -10.28779 -10.28483
 Alpha  occ. eigenvalues --  -10.28124 -10.28052 -10.27927 -10.27770 -10.27488
 Alpha  occ. eigenvalues --  -10.27349 -10.27309 -10.27200 -10.27140 -10.26954
 Alpha  occ. eigenvalues --  -10.26887 -10.26886 -10.26852 -10.26562 -10.26216
 Alpha  occ. eigenvalues --  -10.25922 -10.25795 -10.25712 -10.25690 -10.25613
 Alpha  occ. eigenvalues --  -10.25603 -10.25475 -10.25225 -10.25039 -10.24984
 Alpha  occ. eigenvalues --  -10.24865 -10.24833 -10.24707 -10.24634 -10.24561
 Alpha  occ. eigenvalues --  -10.24415 -10.24313 -10.24286 -10.24161 -10.23979
 Alpha  occ. eigenvalues --  -10.23904  -3.17922  -1.92838  -1.92357  -1.92240
 Alpha  occ. eigenvalues --   -1.15953  -1.15258  -1.11943  -1.08446  -1.07437
 Alpha  occ. eigenvalues --   -1.06821  -1.05620  -1.04165  -1.03996  -1.02809
 Alpha  occ. eigenvalues --   -0.93469  -0.90946  -0.90736  -0.90034  -0.89550
 Alpha  occ. eigenvalues --   -0.89201  -0.88852  -0.88000  -0.87699  -0.87161
 Alpha  occ. eigenvalues --   -0.86516  -0.85760  -0.84637  -0.84142  -0.83627
 Alpha  occ. eigenvalues --   -0.82313  -0.82067  -0.81110  -0.80666  -0.80252
 Alpha  occ. eigenvalues --   -0.79866  -0.78606  -0.77814  -0.77325  -0.76451
 Alpha  occ. eigenvalues --   -0.76358  -0.75571  -0.75514  -0.74933  -0.74097
 Alpha  occ. eigenvalues --   -0.73633  -0.73176  -0.72044  -0.70577  -0.69208
 Alpha  occ. eigenvalues --   -0.68726  -0.67795  -0.67448  -0.66189  -0.65927
 Alpha  occ. eigenvalues --   -0.65604  -0.65011  -0.64549  -0.64374  -0.64249
 Alpha  occ. eigenvalues --   -0.63317  -0.62982  -0.62948  -0.62728  -0.60410
 Alpha  occ. eigenvalues --   -0.59999  -0.59604  -0.59215  -0.58825  -0.58592
 Alpha  occ. eigenvalues --   -0.58115  -0.57527  -0.56538  -0.56259  -0.55985
 Alpha  occ. eigenvalues --   -0.55401  -0.55324  -0.54825  -0.54498  -0.54155
 Alpha  occ. eigenvalues --   -0.53830  -0.53533  -0.53430  -0.53317  -0.53124
 Alpha  occ. eigenvalues --   -0.52859  -0.52505  -0.52446  -0.52281  -0.52123
 Alpha  occ. eigenvalues --   -0.51900  -0.51777  -0.51543  -0.51452  -0.51066
 Alpha  occ. eigenvalues --   -0.50665  -0.50345  -0.50065  -0.49849  -0.49816
 Alpha  occ. eigenvalues --   -0.49785  -0.49592  -0.49158  -0.48941  -0.48622
 Alpha  occ. eigenvalues --   -0.48579  -0.48558  -0.48365  -0.48224  -0.47981
 Alpha  occ. eigenvalues --   -0.47711  -0.47499  -0.47080  -0.46955  -0.46835
 Alpha  occ. eigenvalues --   -0.46766  -0.46618  -0.46266  -0.46161  -0.45779
 Alpha  occ. eigenvalues --   -0.45700  -0.45590  -0.45483  -0.45247  -0.45143
 Alpha  occ. eigenvalues --   -0.45047  -0.44666  -0.44508  -0.44374  -0.44097
 Alpha  occ. eigenvalues --   -0.43946  -0.43650  -0.43322  -0.43069  -0.42937
 Alpha  occ. eigenvalues --   -0.42917  -0.42709  -0.42654  -0.42397  -0.42272
 Alpha  occ. eigenvalues --   -0.42151  -0.42092  -0.41823  -0.41523  -0.41481
 Alpha  occ. eigenvalues --   -0.41110  -0.41022  -0.40907  -0.40100  -0.40028
 Alpha  occ. eigenvalues --   -0.40003  -0.39690  -0.39571  -0.39428  -0.39366
 Alpha  occ. eigenvalues --   -0.39190  -0.38850  -0.38320  -0.37975  -0.37661
 Alpha  occ. eigenvalues --   -0.37438  -0.37100  -0.36940  -0.36533  -0.36427
 Alpha  occ. eigenvalues --   -0.36116  -0.35847  -0.35439  -0.35185  -0.35116
 Alpha  occ. eigenvalues --   -0.34689  -0.33277  -0.33200  -0.31617  -0.31165
 Alpha  occ. eigenvalues --   -0.30795  -0.30712  -0.30240  -0.29507  -0.24476
 Alpha  occ. eigenvalues --   -0.21574
 Alpha virt. eigenvalues --   -0.09560  -0.01763   0.00335   0.02007   0.02264
 Alpha virt. eigenvalues --    0.03965   0.04129   0.04415   0.04844   0.06247
 Alpha virt. eigenvalues --    0.07438   0.08018   0.08596   0.08619   0.08906

 Mulliken charges:
               1
     1  Mg   0.841576
     2  C   -0.026908
     3  C   -0.082523
     4  C   -0.064255
     5  C   -0.097721
     6  N   -0.299624
     7  C   -0.045702
     8  C    0.009049
     9  C    0.010105
    10  C   -0.017148
    11  C    0.098332
    12  C    0.008417
    13  C   -0.002035
    14  C    0.229124
    15  O   -0.241115
    16  O   -0.341441
    17  N   -0.367884
    18  C    0.157287
    19  C   -0.175172
    20  C   -0.028447
    21  C    0.149905
    22  C    0.135932
    23  C   -0.006284
    24  O   -0.222540
    25  C    0.045098
    26  N   -0.305025
    27  C    0.016636
    28  C   -0.012883
    29  C   -0.022620
    30  C    0.066453
    31  C    0.045786
    32  C    0.033463
    33  C    0.020345
    34  N   -0.292148
    35  C    0.071033
    36  C   -0.202209
    37  C    0.028936
    38  C    0.098465
    39  C    0.132927
    40  C   -0.003513
    41  O   -0.127374
    42  C    0.015798
    43  C    0.210493
    44  O   -0.228775
    45  O   -0.357487
    46  C    0.192449
    47  C    0.248518
    48  C   -0.069897
    49  C   -0.195390
    50  C    0.083488
    51  C    0.071809
    52  C   -0.006969
    53  C    0.086159
    54  C   -0.146723
    55  C    0.036836
    56  C    0.078737
    57  C   -0.010052
    58  C    0.063352
    59  C   -0.141758
    60  C    0.062108
    61  C    0.038194
    62  C    0.004107
    63  C    0.046610
    64  C   -0.153492
    65  C    0.039946
    66  C    0.053109
    67  H   -0.025406
    68  H   -0.064879
    69  H   -0.019547
    70  H    0.018226
    71  H    0.013854
    72  H    0.005297
    73  H    0.003324
    74  H    0.035232
    75  H    0.034424
    76  H    0.019603
    77  H    0.050347
    78  H    0.029324
    79  H    0.031383
    80  H    0.011453
    81  H    0.041687
    82  H    0.045785
    83  H    0.034504
    84  H    0.025167
    85  H    0.007157
    86  H    0.004437
    87  H    0.021210
    88  H    0.016342
    89  H    0.018979
    90  H    0.001799
    91  H    0.007808
    92  H    0.014558
    93  H    0.022218
    94  H    0.026741
    95  H    0.013447
    96  H    0.039650
    97  H    0.036011
    98  H    0.033211
    99  H    0.036772
   100  H    0.022829
   101  H    0.046999
   102  H    0.016079
   103  H    0.018075
   104  H   -0.000564
   105  H    0.040181
   106  H    0.045451
   107  H    0.012364
   108  H   -0.000372
   109  H   -0.006613
   110  H   -0.004870
   111  H   -0.000170
   112  H   -0.006920
   113  H   -0.002461
   114  H    0.013596
   115  H   -0.004052
   116  H   -0.001773
   117  H    0.004917
   118  H    0.002556
   119  H   -0.013099
   120  H   -0.009570
   121  H   -0.003967
   122  H   -0.007877
   123  H   -0.000535
   124  H    0.003572
   125  H    0.003687
   126  H    0.004095
   127  H    0.013423
   128  H   -0.016620
   129  H   -0.016179
   130  H    0.003693
   131  H   -0.004643
   132  H   -0.012879
   133  H    0.009958
   134  H   -0.006614
   135  H    0.013071
   136  H    0.012765
   137  H    0.002586
   138  H    0.003494
   139  H   -0.000579
   140  H    0.001376
 Sum of Mulliken charges =  -0.00000

 Dipole moment (field-independent basis, Debye):
    X=              0.4084    Y=              3.5806    Z=              1.8286  Tot=              4.0412
 Quadrupole moment (field-independent basis, Debye-Ang):
   XX=           -365.1933   YY=           -447.9054   ZZ=           -407.7003
   XY=             18.5494   XZ=             14.5925   YZ=             38.0617

 Normal termination of Gaussian 16 at Thu May  5 02:41:23 2022.
