 Gaussian 16, Revision A.03,
 Gaussian 16:  ES64L-G16RevA.03 25-Dec-2016

 ---------------------------------
 #p PBE1PBE/Def2SVP td=(nstates=5)
 ---------------------------------

 -----------------------------------------------------
 step_551_chromophore_14 TDDFT with PBE1PBE functional
 -----------------------------------------------------
 Symbolic Z-matrix:
 Charge =  0 Multiplicity = 1

                         Standard orientation:
 ---------------------------------------------------------------------
 Center     Atomic      Atomic             Coordinates (Angstroms)
 Number     Number       Type             X           Y           Z
 ---------------------------------------------------------------------
      1         12           0        5.444383    0.842630   -0.107132
      2          6           0        4.888470   -2.526478    0.444004
      3          6           0        4.061495    0.534064   -3.233652
      4          6           0        5.360237    4.203449   -0.278686
      5          6           0        6.354856    1.129469    3.360113
      6          7           0        4.721303   -0.830376   -1.303060
      7          6           0        4.555769   -2.095783   -0.904891
      8          6           0        4.073221   -2.995267   -2.084688
      9          6           0        3.955755   -2.117531   -3.261016
     10          6           0        4.239566   -0.748259   -2.642012
     11          6           0        4.792439   -2.479688   -4.459684
     12          6           0        2.735679   -3.785000   -1.685637
     13          6           0        1.564623   -2.921476   -1.142876
     14          6           0        0.123439   -3.321489   -1.383624
     15          8           0       -0.208044   -4.167858   -2.223490
     16          8           0       -0.748588   -2.507186   -0.665268
     17          7           0        4.908538    2.192373   -1.587267
     18          6           0        4.321194    1.891043   -2.780466
     19          6           0        4.073714    3.066216   -3.527501
     20          6           0        4.570906    4.216342   -2.761595
     21          6           0        4.952110    3.558436   -1.478051
     22          6           0        3.541442    3.068694   -4.906209
     23          6           0        4.633094    5.665212   -3.178058
     24          8           0        4.313958    6.099209   -4.299508
     25          6           0        5.234536    6.683251   -2.242423
     26          7           0        5.781029    2.377573    1.288915
     27          6           0        5.738971    3.698749    0.983317
     28          6           0        6.263793    4.587110    2.080875
     29          6           0        6.396188    3.646640    3.262807
     30          6           0        6.182521    2.240024    2.608317
     31          6           0        7.597881    5.295574    1.640443
     32          6           0        5.438481    3.944376    4.456531
     33          6           0        6.128983    4.767477    5.586651
     34          7           0        5.720129   -0.449691    1.593798
     35          6           0        6.089327   -0.234145    2.909570
     36          6           0        5.960167   -1.498873    3.672022
     37          6           0        5.647671   -2.413342    2.689816
     38          6           0        5.439746   -1.721581    1.525847
     39          6           0        5.988188   -1.635554    5.184109
     40          6           0        5.290217   -3.814027    2.453871
     41          8           0        5.331443   -4.718092    3.235018
     42          6           0        4.896606   -3.934678    0.985305
     43          6           0        5.900184   -4.913098    0.404387
     44          8           0        5.742902   -6.028574   -0.124306
     45          8           0        7.203507   -4.436094    0.608044
     46          6           0        8.163526   -5.271302   -0.112825
     47          6           0       -2.172031   -2.823822   -0.816464
     48          6           0       -3.075245   -1.583190   -0.574288
     49          6           0       -3.783452   -1.039868   -1.575851
     50          6           0       -3.760751   -1.539893   -2.965573
     51          6           0       -4.702360    0.159751   -1.288115
     52          6           0       -6.256059   -0.036886   -1.178304
     53          6           0       -6.833087   -0.448206    0.174061
     54          6           0       -8.294479    0.066718    0.238562
     55          6           0       -8.600265    0.708933    1.571064
     56          6           0       -9.207124   -1.198269    0.099559
     57          6           0      -10.519419   -0.848261   -0.522379
     58          6           0      -11.823986   -1.459935    0.142964
     59          6           0      -12.521650   -0.318090    0.957758
     60          6           0      -12.478680   -0.536947    2.459230
     61          6           0      -13.996456   -0.244523    0.529327
     62          6           0      -14.631929    1.171259    0.567224
     63          6           0      -15.931017    1.250752    1.475033
     64          6           0      -17.114476    1.443738    0.499404
     65          6           0      -17.131740    2.834295   -0.226685
     66          6           0      -18.413289    1.189359    1.242754
     67          1           0        3.752412    0.436469   -4.276530
     68          1           0        5.437897    5.291456   -0.334505
     69          1           0        6.738691    1.237460    4.376817
     70          1           0        4.842981   -3.766794   -2.088342
     71          1           0        2.960828   -2.077231   -3.703704
     72          1           0        5.769758   -2.858342   -4.160262
     73          1           0        5.113441   -1.552573   -4.935432
     74          1           0        4.195189   -3.085297   -5.142579
     75          1           0        2.971442   -4.615446   -1.020772
     76          1           0        2.337780   -4.134901   -2.637636
     77          1           0        1.856533   -1.898104   -1.377551
     78          1           0        1.854454   -3.025859   -0.097096
     79          1           0        2.903345    3.941248   -5.045234
     80          1           0        2.907490    2.186407   -4.994835
     81          1           0        4.373427    3.125318   -5.609447
     82          1           0        6.158314    6.423480   -1.725934
     83          1           0        4.468030    6.880803   -1.492565
     84          1           0        5.305428    7.584449   -2.851491
     85          1           0        5.565065    5.389300    2.319392
     86          1           0        7.452154    3.541285    3.514490
     87          1           0        8.215779    5.718126    2.432654
     88          1           0        7.410484    6.131562    0.966410
     89          1           0        8.156643    4.546551    1.078217
     90          1           0        5.132959    2.996775    4.900995
     91          1           0        4.518685    4.410183    4.102479
     92          1           0        6.893943    5.330347    5.052965
     93          1           0        6.589268    4.022030    6.234516
     94          1           0        5.368117    5.393810    6.051828
     95          1           0        6.242064   -0.725776    5.726973
     96          1           0        6.575132   -2.498154    5.500166
     97          1           0        4.949102   -1.899156    5.381442
     98          1           0        3.918028   -4.413805    0.966488
     99          1           0        9.151490   -4.895731    0.153364
    100          1           0        7.887673   -5.158851   -1.160488
    101          1           0        8.077352   -6.323643    0.157946
    102          1           0       -2.380011   -3.618870   -0.101072
    103          1           0       -2.359779   -3.231745   -1.809195
    104          1           0       -3.453277   -1.381955    0.428195
    105          1           0       -4.145161   -2.557002   -2.889389
    106          1           0       -2.753912   -1.572580   -3.381207
    107          1           0       -4.392616   -0.939956   -3.620953
    108          1           0       -4.552015    0.890394   -2.082743
    109          1           0       -4.412403    0.640009   -0.353712
    110          1           0       -6.483558   -0.746031   -1.974364
    111          1           0       -6.652233    0.950178   -1.418627
    112          1           0       -6.225876   -0.201611    1.045460
    113          1           0       -6.782015   -1.530548    0.061541
    114          1           0       -8.530889    0.966970   -0.328523
    115          1           0       -8.563012    0.092151    2.469111
    116          1           0       -9.634927    1.047780    1.527296
    117          1           0       -7.862793    1.486174    1.773087
    118          1           0       -9.345878   -1.764913    1.020087
    119          1           0       -8.738366   -1.839036   -0.646789
    120          1           0      -10.486887   -1.215573   -1.547717
    121          1           0      -10.581425    0.240101   -0.539594
    122          1           0      -11.601590   -2.289741    0.814380
    123          1           0      -12.373902   -1.850922   -0.712517
    124          1           0      -12.057570    0.656784    0.804490
    125          1           0      -11.471918   -0.389819    2.850659
    126          1           0      -12.742859   -1.586390    2.590477
    127          1           0      -13.219700    0.143951    2.878517
    128          1           0      -14.570929   -0.927673    1.154460
    129          1           0      -14.142601   -0.623733   -0.481919
    130          1           0      -14.969925    1.334561   -0.456200
    131          1           0      -13.822517    1.868493    0.783111
    132          1           0      -15.889277    2.202501    2.004865
    133          1           0      -16.029144    0.429455    2.186023
    134          1           0      -16.977741    0.656357   -0.240394
    135          1           0      -17.718344    3.571212    0.321286
    136          1           0      -17.458088    2.744669   -1.262674
    137          1           0      -16.124930    3.244621   -0.311132
    138          1           0      -18.484001    1.587700    2.255699
    139          1           0      -18.561053    0.116557    1.364848
    140          1           0      -19.274297    1.575293    0.697145
 ---------------------------------------------------------------------

 SCF Done:  E(RPBE1PBE) =  -3005.37053999     A.U. after   15 cycles

 Excitation energies and oscillator strengths:

 Excited State   1:      Singlet-A      1.8060 eV  686.53 nm  f=0.3846  <S**2>=0.000
     245 -> 248       -0.15621
     246 -> 247        0.69821
     246 <- 247       -0.12169
 This state for optimization and/or second-order correction.
 Total Energy, E(TD-HF/TD-DFT) =  -3005.30417199
 Copying the excited state density for this state as the 1-particle RhoCI density.

 Excited State   2:      Singlet-A      2.2104 eV  560.92 nm  f=0.1329  <S**2>=0.000
     245 -> 247        0.65934
     246 -> 248        0.24036

 Excited State   3:      Singlet-A      2.8775 eV  430.88 nm  f=0.0092  <S**2>=0.000
     241 -> 247       -0.12391
     242 -> 247       -0.10168
     244 -> 247        0.68216

 Excited State   4:      Singlet-A      2.9255 eV  423.80 nm  f=0.0003  <S**2>=0.000
     242 -> 247        0.66684
     242 -> 249       -0.15354

 Excited State   5:      Singlet-A      2.9738 eV  416.93 nm  f=0.0026  <S**2>=0.000
     239 -> 247       -0.12448
     240 -> 247       -0.14844
     241 -> 247        0.64906
     244 -> 247        0.11720

 The electronic state is 1-A.
 Alpha  occ. eigenvalues --  -46.92838 -19.25453 -19.25448 -19.20965 -19.20627
 Alpha  occ. eigenvalues --  -19.19622 -19.18643 -14.42816 -14.42070 -14.39628
 Alpha  occ. eigenvalues --  -14.39258 -10.37303 -10.37166 -10.32235 -10.32155
 Alpha  occ. eigenvalues --  -10.30118 -10.29740 -10.29082 -10.29030 -10.28718
 Alpha  occ. eigenvalues --  -10.28650 -10.28493 -10.28413 -10.27738 -10.26981
 Alpha  occ. eigenvalues --  -10.26796 -10.26706 -10.26571 -10.26550 -10.26250
 Alpha  occ. eigenvalues --  -10.25928 -10.25692 -10.25673 -10.25596 -10.25095
 Alpha  occ. eigenvalues --  -10.24966 -10.24940 -10.24924 -10.24765 -10.24575
 Alpha  occ. eigenvalues --  -10.24505 -10.24403 -10.24318 -10.24049 -10.23633
 Alpha  occ. eigenvalues --  -10.23451 -10.23354 -10.23351 -10.23292 -10.23165
 Alpha  occ. eigenvalues --  -10.23035 -10.22989 -10.22746 -10.22705 -10.22550
 Alpha  occ. eigenvalues --  -10.22437 -10.22397 -10.22304 -10.22141 -10.22029
 Alpha  occ. eigenvalues --  -10.21970 -10.21712 -10.21702 -10.21657 -10.21479
 Alpha  occ. eigenvalues --  -10.21346  -3.14903  -1.87759  -1.87258  -1.87142
 Alpha  occ. eigenvalues --   -1.10643  -1.10033  -1.06601  -1.03250  -1.02282
 Alpha  occ. eigenvalues --   -1.01599  -1.00228  -0.98745  -0.98608  -0.97535
 Alpha  occ. eigenvalues --   -0.87725  -0.85090  -0.84980  -0.84147  -0.83834
 Alpha  occ. eigenvalues --   -0.83304  -0.83180  -0.82252  -0.81805  -0.81442
 Alpha  occ. eigenvalues --   -0.80819  -0.80067  -0.78798  -0.78398  -0.77888
 Alpha  occ. eigenvalues --   -0.76498  -0.76280  -0.75349  -0.74940  -0.74424
 Alpha  occ. eigenvalues --   -0.74133  -0.72845  -0.72135  -0.71617  -0.70628
 Alpha  occ. eigenvalues --   -0.70600  -0.69933  -0.69584  -0.69072  -0.68311
 Alpha  occ. eigenvalues --   -0.67876  -0.67606  -0.66442  -0.64907  -0.63537
 Alpha  occ. eigenvalues --   -0.63159  -0.62228  -0.61749  -0.60523  -0.60316
 Alpha  occ. eigenvalues --   -0.59998  -0.59575  -0.59036  -0.58617  -0.58395
 Alpha  occ. eigenvalues --   -0.57468  -0.57454  -0.57220  -0.57097  -0.54905
 Alpha  occ. eigenvalues --   -0.54538  -0.54097  -0.53733  -0.53374  -0.53152
 Alpha  occ. eigenvalues --   -0.52510  -0.51942  -0.50929  -0.50796  -0.50460
 Alpha  occ. eigenvalues --   -0.50012  -0.49786  -0.49241  -0.48881  -0.48735
 Alpha  occ. eigenvalues --   -0.48379  -0.48096  -0.47974  -0.47811  -0.47584
 Alpha  occ. eigenvalues --   -0.47380  -0.47070  -0.46920  -0.46771  -0.46742
 Alpha  occ. eigenvalues --   -0.46483  -0.46310  -0.45962  -0.45934  -0.45632
 Alpha  occ. eigenvalues --   -0.45168  -0.44953  -0.44676  -0.44476  -0.44371
 Alpha  occ. eigenvalues --   -0.44327  -0.44193  -0.43829  -0.43582  -0.43202
 Alpha  occ. eigenvalues --   -0.43157  -0.43137  -0.43024  -0.42853  -0.42612
 Alpha  occ. eigenvalues --   -0.42388  -0.42198  -0.41708  -0.41618  -0.41455
 Alpha  occ. eigenvalues --   -0.41413  -0.41343  -0.40978  -0.40752  -0.40500
 Alpha  occ. eigenvalues --   -0.40424  -0.40271  -0.40119  -0.39899  -0.39836
 Alpha  occ. eigenvalues --   -0.39810  -0.39415  -0.39260  -0.39008  -0.38847
 Alpha  occ. eigenvalues --   -0.38743  -0.38485  -0.38092  -0.37872  -0.37810
 Alpha  occ. eigenvalues --   -0.37593  -0.37434  -0.37414  -0.37294  -0.37138
 Alpha  occ. eigenvalues --   -0.36965  -0.36891  -0.36726  -0.36420  -0.36193
 Alpha  occ. eigenvalues --   -0.35965  -0.35820  -0.35771  -0.34980  -0.34825
 Alpha  occ. eigenvalues --   -0.34803  -0.34513  -0.34461  -0.34330  -0.34182
 Alpha  occ. eigenvalues --   -0.33931  -0.33622  -0.33340  -0.32821  -0.32529
 Alpha  occ. eigenvalues --   -0.32419  -0.31919  -0.31903  -0.31401  -0.31354
 Alpha  occ. eigenvalues --   -0.31041  -0.30676  -0.30602  -0.30053  -0.29952
 Alpha  occ. eigenvalues --   -0.29448  -0.28865  -0.28181  -0.26902  -0.26488
 Alpha  occ. eigenvalues --   -0.26062  -0.25592  -0.25539  -0.25219  -0.21407
 Alpha  occ. eigenvalues --   -0.19185
 Alpha virt. eigenvalues --   -0.11908  -0.05332  -0.03891  -0.02414  -0.00901
 Alpha virt. eigenvalues --   -0.00510  -0.00279   0.00121   0.00797   0.02525
 Alpha virt. eigenvalues --    0.03387   0.04059   0.04772   0.05353   0.05637

 Mulliken charges:
               1
     1  Mg   0.990045
     2  C   -0.030379
     3  C   -0.075609
     4  C   -0.062238
     5  C   -0.088239
     6  N   -0.401726
     7  C    0.027976
     8  C   -0.062659
     9  C   -0.068609
    10  C    0.015913
    11  C    0.042446
    12  C   -0.040872
    13  C   -0.082144
    14  C    0.291298
    15  O   -0.273921
    16  O   -0.370329
    17  N   -0.485729
    18  C    0.181563
    19  C   -0.203492
    20  C   -0.062605
    21  C    0.175439
    22  C    0.075774
    23  C    0.043149
    24  O   -0.258358
    25  C   -0.037035
    26  N   -0.412513
    27  C    0.056997
    28  C   -0.089491
    29  C   -0.100056
    30  C    0.100431
    31  C   -0.012628
    32  C   -0.025158
    33  C   -0.055622
    34  N   -0.419385
    35  C    0.095896
    36  C   -0.220897
    37  C   -0.019565
    38  C    0.152594
    39  C    0.078237
    40  C    0.099078
    41  O   -0.176507
    42  C   -0.094608
    43  C    0.292518
    44  O   -0.265211
    45  O   -0.382529
    46  C    0.135376
    47  C    0.208610
    48  C   -0.084837
    49  C   -0.227225
    50  C    0.013381
    51  C    0.008023
    52  C   -0.070677
    53  C    0.032402
    54  C   -0.239507
    55  C   -0.021818
    56  C    0.026985
    57  C   -0.072859
    58  C    0.013630
    59  C   -0.231620
    60  C   -0.001982
    61  C   -0.007369
    62  C   -0.062913
    63  C   -0.006409
    64  C   -0.251896
    65  C   -0.021338
    66  C   -0.007822
    67  H    0.005216
    68  H   -0.029072
    69  H    0.011744
    70  H    0.059224
    71  H    0.050567
    72  H    0.033474
    73  H    0.032201
    74  H    0.061932
    75  H    0.066365
    76  H    0.053468
    77  H    0.085136
    78  H    0.064975
    79  H    0.059917
    80  H    0.038712
    81  H    0.069982
    82  H    0.072401
    83  H    0.062940
    84  H    0.054294
    85  H    0.043882
    86  H    0.042471
    87  H    0.048928
    88  H    0.044313
    89  H    0.047894
    90  H    0.035643
    91  H    0.039496
    92  H    0.043918
    93  H    0.049952
    94  H    0.054367
    95  H    0.039448
    96  H    0.066434
    97  H    0.064318
    98  H    0.070391
    99  H    0.058984
   100  H    0.046056
   101  H    0.069190
   102  H    0.043984
   103  H    0.043250
   104  H    0.028985
   105  H    0.067750
   106  H    0.073557
   107  H    0.039544
   108  H    0.033236
   109  H    0.026033
   110  H    0.028579
   111  H    0.032841
   112  H    0.023063
   113  H    0.031469
   114  H    0.047179
   115  H    0.023567
   116  H    0.030099
   117  H    0.033902
   118  H    0.033539
   119  H    0.021372
   120  H    0.023813
   121  H    0.028636
   122  H    0.023445
   123  H    0.030648
   124  H    0.040266
   125  H    0.033896
   126  H    0.031790
   127  H    0.043788
   128  H    0.015989
   129  H    0.016458
   130  H    0.037519
   131  H    0.026804
   132  H    0.021947
   133  H    0.039372
   134  H    0.032962
   135  H    0.040462
   136  H    0.040689
   137  H    0.030186
   138  H    0.030946
   139  H    0.028156
   140  H    0.029742
 Sum of Mulliken charges =  -0.00000

 Dipole moment (field-independent basis, Debye):
    X=              0.3736    Y=              3.7692    Z=              1.7157  Tot=              4.1581
 Quadrupole moment (field-independent basis, Debye-Ang):
   XX=           -361.6623   YY=           -444.5367   ZZ=           -403.2918
   XY=             19.8976   XZ=             14.5270   YZ=             38.8368

 Normal termination of Gaussian 16 at Thu May  5 02:59:23 2022.
