 Gaussian 16, Revision A.03,
 Gaussian 16:  ES64L-G16RevA.03 25-Dec-2016

 --------------------------------
 #p wB97XD/Def2SVP td=(nstates=5)
 --------------------------------

 ----------------------------------------------------
 step_551_chromophore_14 TDDFT with wB97XD functional
 ----------------------------------------------------
 Symbolic Z-matrix:
 Charge =  0 Multiplicity = 1

                         Standard orientation:
 ---------------------------------------------------------------------
 Center     Atomic      Atomic             Coordinates (Angstroms)
 Number     Number       Type             X           Y           Z
 ---------------------------------------------------------------------
      1         12           0        5.444383    0.842630   -0.107132
      2          6           0        4.888470   -2.526478    0.444004
      3          6           0        4.061495    0.534064   -3.233652
      4          6           0        5.360237    4.203449   -0.278686
      5          6           0        6.354856    1.129469    3.360113
      6          7           0        4.721303   -0.830376   -1.303060
      7          6           0        4.555769   -2.095783   -0.904891
      8          6           0        4.073221   -2.995267   -2.084688
      9          6           0        3.955755   -2.117531   -3.261016
     10          6           0        4.239566   -0.748259   -2.642012
     11          6           0        4.792439   -2.479688   -4.459684
     12          6           0        2.735679   -3.785000   -1.685637
     13          6           0        1.564623   -2.921476   -1.142876
     14          6           0        0.123439   -3.321489   -1.383624
     15          8           0       -0.208044   -4.167858   -2.223490
     16          8           0       -0.748588   -2.507186   -0.665268
     17          7           0        4.908538    2.192373   -1.587267
     18          6           0        4.321194    1.891043   -2.780466
     19          6           0        4.073714    3.066216   -3.527501
     20          6           0        4.570906    4.216342   -2.761595
     21          6           0        4.952110    3.558436   -1.478051
     22          6           0        3.541442    3.068694   -4.906209
     23          6           0        4.633094    5.665212   -3.178058
     24          8           0        4.313958    6.099209   -4.299508
     25          6           0        5.234536    6.683251   -2.242423
     26          7           0        5.781029    2.377573    1.288915
     27          6           0        5.738971    3.698749    0.983317
     28          6           0        6.263793    4.587110    2.080875
     29          6           0        6.396188    3.646640    3.262807
     30          6           0        6.182521    2.240024    2.608317
     31          6           0        7.597881    5.295574    1.640443
     32          6           0        5.438481    3.944376    4.456531
     33          6           0        6.128983    4.767477    5.586651
     34          7           0        5.720129   -0.449691    1.593798
     35          6           0        6.089327   -0.234145    2.909570
     36          6           0        5.960167   -1.498873    3.672022
     37          6           0        5.647671   -2.413342    2.689816
     38          6           0        5.439746   -1.721581    1.525847
     39          6           0        5.988188   -1.635554    5.184109
     40          6           0        5.290217   -3.814027    2.453871
     41          8           0        5.331443   -4.718092    3.235018
     42          6           0        4.896606   -3.934678    0.985305
     43          6           0        5.900184   -4.913098    0.404387
     44          8           0        5.742902   -6.028574   -0.124306
     45          8           0        7.203507   -4.436094    0.608044
     46          6           0        8.163526   -5.271302   -0.112825
     47          6           0       -2.172031   -2.823822   -0.816464
     48          6           0       -3.075245   -1.583190   -0.574288
     49          6           0       -3.783452   -1.039868   -1.575851
     50          6           0       -3.760751   -1.539893   -2.965573
     51          6           0       -4.702360    0.159751   -1.288115
     52          6           0       -6.256059   -0.036886   -1.178304
     53          6           0       -6.833087   -0.448206    0.174061
     54          6           0       -8.294479    0.066718    0.238562
     55          6           0       -8.600265    0.708933    1.571064
     56          6           0       -9.207124   -1.198269    0.099559
     57          6           0      -10.519419   -0.848261   -0.522379
     58          6           0      -11.823986   -1.459935    0.142964
     59          6           0      -12.521650   -0.318090    0.957758
     60          6           0      -12.478680   -0.536947    2.459230
     61          6           0      -13.996456   -0.244523    0.529327
     62          6           0      -14.631929    1.171259    0.567224
     63          6           0      -15.931017    1.250752    1.475033
     64          6           0      -17.114476    1.443738    0.499404
     65          6           0      -17.131740    2.834295   -0.226685
     66          6           0      -18.413289    1.189359    1.242754
     67          1           0        3.752412    0.436469   -4.276530
     68          1           0        5.437897    5.291456   -0.334505
     69          1           0        6.738691    1.237460    4.376817
     70          1           0        4.842981   -3.766794   -2.088342
     71          1           0        2.960828   -2.077231   -3.703704
     72          1           0        5.769758   -2.858342   -4.160262
     73          1           0        5.113441   -1.552573   -4.935432
     74          1           0        4.195189   -3.085297   -5.142579
     75          1           0        2.971442   -4.615446   -1.020772
     76          1           0        2.337780   -4.134901   -2.637636
     77          1           0        1.856533   -1.898104   -1.377551
     78          1           0        1.854454   -3.025859   -0.097096
     79          1           0        2.903345    3.941248   -5.045234
     80          1           0        2.907490    2.186407   -4.994835
     81          1           0        4.373427    3.125318   -5.609447
     82          1           0        6.158314    6.423480   -1.725934
     83          1           0        4.468030    6.880803   -1.492565
     84          1           0        5.305428    7.584449   -2.851491
     85          1           0        5.565065    5.389300    2.319392
     86          1           0        7.452154    3.541285    3.514490
     87          1           0        8.215779    5.718126    2.432654
     88          1           0        7.410484    6.131562    0.966410
     89          1           0        8.156643    4.546551    1.078217
     90          1           0        5.132959    2.996775    4.900995
     91          1           0        4.518685    4.410183    4.102479
     92          1           0        6.893943    5.330347    5.052965
     93          1           0        6.589268    4.022030    6.234516
     94          1           0        5.368117    5.393810    6.051828
     95          1           0        6.242064   -0.725776    5.726973
     96          1           0        6.575132   -2.498154    5.500166
     97          1           0        4.949102   -1.899156    5.381442
     98          1           0        3.918028   -4.413805    0.966488
     99          1           0        9.151490   -4.895731    0.153364
    100          1           0        7.887673   -5.158851   -1.160488
    101          1           0        8.077352   -6.323643    0.157946
    102          1           0       -2.380011   -3.618870   -0.101072
    103          1           0       -2.359779   -3.231745   -1.809195
    104          1           0       -3.453277   -1.381955    0.428195
    105          1           0       -4.145161   -2.557002   -2.889389
    106          1           0       -2.753912   -1.572580   -3.381207
    107          1           0       -4.392616   -0.939956   -3.620953
    108          1           0       -4.552015    0.890394   -2.082743
    109          1           0       -4.412403    0.640009   -0.353712
    110          1           0       -6.483558   -0.746031   -1.974364
    111          1           0       -6.652233    0.950178   -1.418627
    112          1           0       -6.225876   -0.201611    1.045460
    113          1           0       -6.782015   -1.530548    0.061541
    114          1           0       -8.530889    0.966970   -0.328523
    115          1           0       -8.563012    0.092151    2.469111
    116          1           0       -9.634927    1.047780    1.527296
    117          1           0       -7.862793    1.486174    1.773087
    118          1           0       -9.345878   -1.764913    1.020087
    119          1           0       -8.738366   -1.839036   -0.646789
    120          1           0      -10.486887   -1.215573   -1.547717
    121          1           0      -10.581425    0.240101   -0.539594
    122          1           0      -11.601590   -2.289741    0.814380
    123          1           0      -12.373902   -1.850922   -0.712517
    124          1           0      -12.057570    0.656784    0.804490
    125          1           0      -11.471918   -0.389819    2.850659
    126          1           0      -12.742859   -1.586390    2.590477
    127          1           0      -13.219700    0.143951    2.878517
    128          1           0      -14.570929   -0.927673    1.154460
    129          1           0      -14.142601   -0.623733   -0.481919
    130          1           0      -14.969925    1.334561   -0.456200
    131          1           0      -13.822517    1.868493    0.783111
    132          1           0      -15.889277    2.202501    2.004865
    133          1           0      -16.029144    0.429455    2.186023
    134          1           0      -16.977741    0.656357   -0.240394
    135          1           0      -17.718344    3.571212    0.321286
    136          1           0      -17.458088    2.744669   -1.262674
    137          1           0      -16.124930    3.244621   -0.311132
    138          1           0      -18.484001    1.587700    2.255699
    139          1           0      -18.561053    0.116557    1.364848
    140          1           0      -19.274297    1.575293    0.697145
 ---------------------------------------------------------------------

 SCF Done:  E(RwB97XD) =  -3007.87887822     A.U. after   19 cycles

 Excitation energies and oscillator strengths:

 Excited State   1:      Singlet-A      1.5821 eV  783.65 nm  f=0.3968  <S**2>=0.000
     245 -> 248       -0.16875
     246 -> 247        0.68747
     245 <- 248       -0.11565
 This state for optimization and/or second-order correction.
 Total Energy, E(TD-HF/TD-DFT) =  -3007.82073581
 Copying the excited state density for this state as the 1-particle RhoCI density.

 Excited State   2:      Singlet-A      2.1350 eV  580.73 nm  f=0.1402  <S**2>=0.000
     245 -> 247        0.64903
     246 -> 248        0.26512

 Excited State   3:      Singlet-A      3.2807 eV  377.92 nm  f=0.0093  <S**2>=0.000
     241 -> 247       -0.22540
     244 -> 247        0.64969

 Excited State   4:      Singlet-A      3.4269 eV  361.80 nm  f=0.0093  <S**2>=0.000
     240 -> 247        0.13381
     241 -> 247        0.60453
     244 -> 247        0.19875
     246 -> 248       -0.17711

 Excited State   5:      Singlet-A      3.5588 eV  348.39 nm  f=0.0019  <S**2>=0.000
     242 -> 247        0.51669
     242 -> 248        0.16948
     242 -> 249       -0.35619
     242 -> 250        0.20182

 The electronic state is 1-A.
 Alpha  occ. eigenvalues --  -46.95777 -19.30107 -19.30039 -19.25732 -19.25308
 Alpha  occ. eigenvalues --  -19.24616 -19.23335 -14.47980 -14.47107 -14.44540
 Alpha  occ. eigenvalues --  -14.44312 -10.44203 -10.43992 -10.39222 -10.38898
 Alpha  occ. eigenvalues --  -10.36509 -10.35952 -10.35551 -10.35334 -10.34995
 Alpha  occ. eigenvalues --  -10.34995 -10.34977 -10.34940 -10.33917 -10.33422
 Alpha  occ. eigenvalues --  -10.33351 -10.33188 -10.33145 -10.32846 -10.32505
 Alpha  occ. eigenvalues --  -10.32137 -10.32121 -10.32028 -10.31818 -10.31393
 Alpha  occ. eigenvalues --  -10.31336 -10.31321 -10.31288 -10.31146 -10.30890
 Alpha  occ. eigenvalues --  -10.30850 -10.30820 -10.30758 -10.30419 -10.30031
 Alpha  occ. eigenvalues --  -10.29738 -10.29722 -10.29702 -10.29630 -10.29530
 Alpha  occ. eigenvalues --  -10.29467 -10.29409 -10.29110 -10.29055 -10.29015
 Alpha  occ. eigenvalues --  -10.28787 -10.28756 -10.28647 -10.28495 -10.28458
 Alpha  occ. eigenvalues --  -10.28331 -10.28144 -10.28107 -10.28067 -10.27830
 Alpha  occ. eigenvalues --  -10.27785  -3.21706  -1.95311  -1.94808  -1.94693
 Alpha  occ. eigenvalues --   -1.18137  -1.17443  -1.14219  -1.10638  -1.09650
 Alpha  occ. eigenvalues --   -1.09058  -1.07684  -1.06179  -1.05987  -1.04836
 Alpha  occ. eigenvalues --   -0.95488  -0.92736  -0.92600  -0.91812  -0.91407
 Alpha  occ. eigenvalues --   -0.90963  -0.90762  -0.89916  -0.89465  -0.89118
 Alpha  occ. eigenvalues --   -0.88429  -0.87680  -0.86457  -0.86043  -0.85526
 Alpha  occ. eigenvalues --   -0.84165  -0.83967  -0.83020  -0.82589  -0.82084
 Alpha  occ. eigenvalues --   -0.81807  -0.80520  -0.79739  -0.79247  -0.78305
 Alpha  occ. eigenvalues --   -0.78274  -0.77520  -0.77289  -0.76751  -0.75963
 Alpha  occ. eigenvalues --   -0.75515  -0.75173  -0.74007  -0.72514  -0.71119
 Alpha  occ. eigenvalues --   -0.70746  -0.69752  -0.69357  -0.68096  -0.67841
 Alpha  occ. eigenvalues --   -0.67535  -0.67029  -0.66535  -0.66237  -0.66067
 Alpha  occ. eigenvalues --   -0.65131  -0.64995  -0.64760  -0.64712  -0.62378
 Alpha  occ. eigenvalues --   -0.62005  -0.61543  -0.61179  -0.60795  -0.60586
 Alpha  occ. eigenvalues --   -0.60028  -0.59461  -0.58405  -0.58232  -0.57935
 Alpha  occ. eigenvalues --   -0.57384  -0.57243  -0.56753  -0.56347  -0.56109
 Alpha  occ. eigenvalues --   -0.55754  -0.55476  -0.55336  -0.55223  -0.55015
 Alpha  occ. eigenvalues --   -0.54765  -0.54420  -0.54322  -0.54161  -0.54062
 Alpha  occ. eigenvalues --   -0.53832  -0.53694  -0.53466  -0.53415  -0.52961
 Alpha  occ. eigenvalues --   -0.52535  -0.52259  -0.51972  -0.51790  -0.51742
 Alpha  occ. eigenvalues --   -0.51656  -0.51547  -0.51078  -0.50863  -0.50512
 Alpha  occ. eigenvalues --   -0.50471  -0.50434  -0.50302  -0.50133  -0.49878
 Alpha  occ. eigenvalues --   -0.49640  -0.49422  -0.49050  -0.48858  -0.48716
 Alpha  occ. eigenvalues --   -0.48674  -0.48530  -0.48206  -0.48017  -0.47725
 Alpha  occ. eigenvalues --   -0.47622  -0.47515  -0.47336  -0.47091  -0.47076
 Alpha  occ. eigenvalues --   -0.46997  -0.46582  -0.46424  -0.46229  -0.45970
 Alpha  occ. eigenvalues --   -0.45869  -0.45616  -0.45296  -0.44947  -0.44840
 Alpha  occ. eigenvalues --   -0.44757  -0.44663  -0.44550  -0.44321  -0.44184
 Alpha  occ. eigenvalues --   -0.44018  -0.44013  -0.43769  -0.43427  -0.43327
 Alpha  occ. eigenvalues --   -0.43116  -0.42878  -0.42830  -0.41983  -0.41895
 Alpha  occ. eigenvalues --   -0.41885  -0.41533  -0.41464  -0.41323  -0.41191
 Alpha  occ. eigenvalues --   -0.41005  -0.40675  -0.40230  -0.39825  -0.39528
 Alpha  occ. eigenvalues --   -0.39430  -0.38975  -0.38933  -0.38497  -0.38378
 Alpha  occ. eigenvalues --   -0.38113  -0.37674  -0.37431  -0.37110  -0.37024
 Alpha  occ. eigenvalues --   -0.36594  -0.35534  -0.35035  -0.33679  -0.33369
 Alpha  occ. eigenvalues --   -0.32900  -0.32695  -0.32258  -0.31677  -0.26388
 Alpha  occ. eigenvalues --   -0.23360
 Alpha virt. eigenvalues --   -0.07920   0.00156   0.02401   0.04088   0.05306
 Alpha virt. eigenvalues --    0.06220   0.06279   0.06764   0.07332   0.08898
 Alpha virt. eigenvalues --    0.09955   0.10962   0.11450   0.12073   0.12342

 Mulliken charges:
               1
     1  Mg   0.979769
     2  C   -0.039102
     3  C   -0.088983
     4  C   -0.071393
     5  C   -0.108782
     6  N   -0.369784
     7  C   -0.004605
     8  C   -0.034153
     9  C   -0.045700
    10  C    0.003661
    11  C    0.051058
    12  C   -0.027922
    13  C   -0.059022
    14  C    0.284454
    15  O   -0.271493
    16  O   -0.370138
    17  N   -0.451589
    18  C    0.170522
    19  C   -0.192584
    20  C   -0.065987
    21  C    0.171205
    22  C    0.087858
    23  C    0.039431
    24  O   -0.253478
    25  C   -0.019384
    26  N   -0.380423
    27  C    0.043992
    28  C   -0.066655
    29  C   -0.072792
    30  C    0.092545
    31  C   -0.000652
    32  C   -0.013181
    33  C   -0.036239
    34  N   -0.379958
    35  C    0.086761
    36  C   -0.217041
    37  C   -0.016108
    38  C    0.136163
    39  C    0.090434
    40  C    0.081221
    41  O   -0.165603
    42  C   -0.054446
    43  C    0.272491
    44  O   -0.259391
    45  O   -0.384963
    46  C    0.152485
    47  C    0.224872
    48  C   -0.095085
    49  C   -0.215407
    50  C    0.024933
    51  C    0.025897
    52  C   -0.051632
    53  C    0.044291
    54  C   -0.204280
    55  C   -0.008156
    56  C    0.038969
    57  C   -0.051362
    58  C    0.023130
    59  C   -0.197014
    60  C    0.016082
    61  C    0.006368
    62  C   -0.043793
    63  C    0.004430
    64  C   -0.214251
    65  C   -0.012550
    66  C    0.002825
    67  H   -0.001957
    68  H   -0.045322
    69  H    0.006585
    70  H    0.046395
    71  H    0.041303
    72  H    0.027654
    73  H    0.025011
    74  H    0.057987
    75  H    0.057911
    76  H    0.044263
    77  H    0.074313
    78  H    0.053772
    79  H    0.055516
    80  H    0.032268
    81  H    0.065937
    82  H    0.065455
    83  H    0.056672
    84  H    0.052359
    85  H    0.034577
    86  H    0.030365
    87  H    0.043615
    88  H    0.038059
    89  H    0.040157
    90  H    0.026159
    91  H    0.032783
    92  H    0.034687
    93  H    0.043720
    94  H    0.049875
    95  H    0.035390
    96  H    0.062913
    97  H    0.058628
    98  H    0.063624
    99  H    0.056433
   100  H    0.040486
   101  H    0.064304
   102  H    0.040277
   103  H    0.035741
   104  H    0.025756
   105  H    0.061185
   106  H    0.068455
   107  H    0.035521
   108  H    0.026037
   109  H    0.018030
   110  H    0.018713
   111  H    0.023646
   112  H    0.016287
   113  H    0.020787
   114  H    0.035685
   115  H    0.016769
   116  H    0.017538
   117  H    0.028226
   118  H    0.024179
   119  H    0.011138
   120  H    0.017217
   121  H    0.014868
   122  H    0.014816
   123  H    0.023562
   124  H    0.022193
   125  H    0.026025
   126  H    0.023819
   127  H    0.035361
   128  H    0.004433
   129  H    0.007828
   130  H    0.025546
   131  H    0.019472
   132  H    0.011856
   133  H    0.032053
   134  H    0.019155
   135  H    0.034936
   136  H    0.035915
   137  H    0.023337
   138  H    0.024688
   139  H    0.022242
   140  H    0.024041
 Sum of Mulliken charges =  -0.00000

 Dipole moment (field-independent basis, Debye):
    X=              0.4519    Y=              3.5896    Z=              1.8735  Tot=              4.0743
 Quadrupole moment (field-independent basis, Debye-Ang):
   XX=           -360.5046   YY=           -444.1816   ZZ=           -403.1924
   XY=             18.6720   XZ=             14.9089   YZ=             38.3891

 Normal termination of Gaussian 16 at Thu May  5 03:51:18 2022.
