 Gaussian 16, Revision A.03,
 Gaussian 16:  ES64L-G16RevA.03 25-Dec-2016

 --------------------
 #p ZINDO=(nstates=5)
 --------------------

 -----------------------------
 step_551_chromophore_14 ZINDO
 -----------------------------
 Symbolic Z-matrix:
 Charge =  0 Multiplicity = 1

                         Standard orientation:
 ---------------------------------------------------------------------
 Center     Atomic      Atomic             Coordinates (Angstroms)
 Number     Number       Type             X           Y           Z
 ---------------------------------------------------------------------
      1         12           0        5.444383    0.842630   -0.107132
      2          6           0        4.888470   -2.526478    0.444004
      3          6           0        4.061495    0.534064   -3.233652
      4          6           0        5.360237    4.203449   -0.278686
      5          6           0        6.354856    1.129469    3.360113
      6          7           0        4.721303   -0.830376   -1.303060
      7          6           0        4.555769   -2.095783   -0.904891
      8          6           0        4.073221   -2.995267   -2.084688
      9          6           0        3.955755   -2.117531   -3.261016
     10          6           0        4.239566   -0.748259   -2.642012
     11          6           0        4.792439   -2.479688   -4.459684
     12          6           0        2.735679   -3.785000   -1.685637
     13          6           0        1.564623   -2.921476   -1.142876
     14          6           0        0.123439   -3.321489   -1.383624
     15          8           0       -0.208044   -4.167858   -2.223490
     16          8           0       -0.748588   -2.507186   -0.665268
     17          7           0        4.908538    2.192373   -1.587267
     18          6           0        4.321194    1.891043   -2.780466
     19          6           0        4.073714    3.066216   -3.527501
     20          6           0        4.570906    4.216342   -2.761595
     21          6           0        4.952110    3.558436   -1.478051
     22          6           0        3.541442    3.068694   -4.906209
     23          6           0        4.633094    5.665212   -3.178058
     24          8           0        4.313958    6.099209   -4.299508
     25          6           0        5.234536    6.683251   -2.242423
     26          7           0        5.781029    2.377573    1.288915
     27          6           0        5.738971    3.698749    0.983317
     28          6           0        6.263793    4.587110    2.080875
     29          6           0        6.396188    3.646640    3.262807
     30          6           0        6.182521    2.240024    2.608317
     31          6           0        7.597881    5.295574    1.640443
     32          6           0        5.438481    3.944376    4.456531
     33          6           0        6.128983    4.767477    5.586651
     34          7           0        5.720129   -0.449691    1.593798
     35          6           0        6.089327   -0.234145    2.909570
     36          6           0        5.960167   -1.498873    3.672022
     37          6           0        5.647671   -2.413342    2.689816
     38          6           0        5.439746   -1.721581    1.525847
     39          6           0        5.988188   -1.635554    5.184109
     40          6           0        5.290217   -3.814027    2.453871
     41          8           0        5.331443   -4.718092    3.235018
     42          6           0        4.896606   -3.934678    0.985305
     43          6           0        5.900184   -4.913098    0.404387
     44          8           0        5.742902   -6.028574   -0.124306
     45          8           0        7.203507   -4.436094    0.608044
     46          6           0        8.163526   -5.271302   -0.112825
     47          6           0       -2.172031   -2.823822   -0.816464
     48          6           0       -3.075245   -1.583190   -0.574288
     49          6           0       -3.783452   -1.039868   -1.575851
     50          6           0       -3.760751   -1.539893   -2.965573
     51          6           0       -4.702360    0.159751   -1.288115
     52          6           0       -6.256059   -0.036886   -1.178304
     53          6           0       -6.833087   -0.448206    0.174061
     54          6           0       -8.294479    0.066718    0.238562
     55          6           0       -8.600265    0.708933    1.571064
     56          6           0       -9.207124   -1.198269    0.099559
     57          6           0      -10.519419   -0.848261   -0.522379
     58          6           0      -11.823986   -1.459935    0.142964
     59          6           0      -12.521650   -0.318090    0.957758
     60          6           0      -12.478680   -0.536947    2.459230
     61          6           0      -13.996456   -0.244523    0.529327
     62          6           0      -14.631929    1.171259    0.567224
     63          6           0      -15.931017    1.250752    1.475033
     64          6           0      -17.114476    1.443738    0.499404
     65          6           0      -17.131740    2.834295   -0.226685
     66          6           0      -18.413289    1.189359    1.242754
     67          1           0        3.752412    0.436469   -4.276530
     68          1           0        5.437897    5.291456   -0.334505
     69          1           0        6.738691    1.237460    4.376817
     70          1           0        4.842981   -3.766794   -2.088342
     71          1           0        2.960828   -2.077231   -3.703704
     72          1           0        5.769758   -2.858342   -4.160262
     73          1           0        5.113441   -1.552573   -4.935432
     74          1           0        4.195189   -3.085297   -5.142579
     75          1           0        2.971442   -4.615446   -1.020772
     76          1           0        2.337780   -4.134901   -2.637636
     77          1           0        1.856533   -1.898104   -1.377551
     78          1           0        1.854454   -3.025859   -0.097096
     79          1           0        2.903345    3.941248   -5.045234
     80          1           0        2.907490    2.186407   -4.994835
     81          1           0        4.373427    3.125318   -5.609447
     82          1           0        6.158314    6.423480   -1.725934
     83          1           0        4.468030    6.880803   -1.492565
     84          1           0        5.305428    7.584449   -2.851491
     85          1           0        5.565065    5.389300    2.319392
     86          1           0        7.452154    3.541285    3.514490
     87          1           0        8.215779    5.718126    2.432654
     88          1           0        7.410484    6.131562    0.966410
     89          1           0        8.156643    4.546551    1.078217
     90          1           0        5.132959    2.996775    4.900995
     91          1           0        4.518685    4.410183    4.102479
     92          1           0        6.893943    5.330347    5.052965
     93          1           0        6.589268    4.022030    6.234516
     94          1           0        5.368117    5.393810    6.051828
     95          1           0        6.242064   -0.725776    5.726973
     96          1           0        6.575132   -2.498154    5.500166
     97          1           0        4.949102   -1.899156    5.381442
     98          1           0        3.918028   -4.413805    0.966488
     99          1           0        9.151490   -4.895731    0.153364
    100          1           0        7.887673   -5.158851   -1.160488
    101          1           0        8.077352   -6.323643    0.157946
    102          1           0       -2.380011   -3.618870   -0.101072
    103          1           0       -2.359779   -3.231745   -1.809195
    104          1           0       -3.453277   -1.381955    0.428195
    105          1           0       -4.145161   -2.557002   -2.889389
    106          1           0       -2.753912   -1.572580   -3.381207
    107          1           0       -4.392616   -0.939956   -3.620953
    108          1           0       -4.552015    0.890394   -2.082743
    109          1           0       -4.412403    0.640009   -0.353712
    110          1           0       -6.483558   -0.746031   -1.974364
    111          1           0       -6.652233    0.950178   -1.418627
    112          1           0       -6.225876   -0.201611    1.045460
    113          1           0       -6.782015   -1.530548    0.061541
    114          1           0       -8.530889    0.966970   -0.328523
    115          1           0       -8.563012    0.092151    2.469111
    116          1           0       -9.634927    1.047780    1.527296
    117          1           0       -7.862793    1.486174    1.773087
    118          1           0       -9.345878   -1.764913    1.020087
    119          1           0       -8.738366   -1.839036   -0.646789
    120          1           0      -10.486887   -1.215573   -1.547717
    121          1           0      -10.581425    0.240101   -0.539594
    122          1           0      -11.601590   -2.289741    0.814380
    123          1           0      -12.373902   -1.850922   -0.712517
    124          1           0      -12.057570    0.656784    0.804490
    125          1           0      -11.471918   -0.389819    2.850659
    126          1           0      -12.742859   -1.586390    2.590477
    127          1           0      -13.219700    0.143951    2.878517
    128          1           0      -14.570929   -0.927673    1.154460
    129          1           0      -14.142601   -0.623733   -0.481919
    130          1           0      -14.969925    1.334561   -0.456200
    131          1           0      -13.822517    1.868493    0.783111
    132          1           0      -15.889277    2.202501    2.004865
    133          1           0      -16.029144    0.429455    2.186023
    134          1           0      -16.977741    0.656357   -0.240394
    135          1           0      -17.718344    3.571212    0.321286
    136          1           0      -17.458088    2.744669   -1.262674
    137          1           0      -16.124930    3.244621   -0.311132
    138          1           0      -18.484001    1.587700    2.255699
    139          1           0      -18.561053    0.116557    1.364848
    140          1           0      -19.274297    1.575293    0.697145
 ---------------------------------------------------------------------

 SCF Done:  E(RZINDO/S) =  -474.340115022     A.U. after   20 cycles

 Excitation energies and oscillator strengths:

 Excited State   1:      Singlet-A      1.1896 eV 1042.23 nm  f=0.6436  <S**2>=0.000
     175 ->178        -0.18148
     176 ->177         0.66514
 This state for optimization and/or second-order correction.
 Total Energy, E(CIS/TDA) =  -474.296397673
 Copying the excited state density for this state as the 1-particle RhoCI density.

 Excited State   2:      Singlet-A      1.8867 eV  657.17 nm  f=0.0945  <S**2>=0.000
     175 ->177         0.57548
     176 ->178         0.38377

 Excited State   3:      Singlet-A      2.9439 eV  421.15 nm  f=0.0062  <S**2>=0.000
     168 ->177         0.33210
     168 ->179        -0.36325
     168 ->180         0.20689
     168 ->183         0.15856
     168 ->186        -0.18637
     168 ->199         0.10943
     169 ->177        -0.10266
     171 ->177        -0.15040

 Excited State   4:      Singlet-A      2.9905 eV  414.60 nm  f=0.0271  <S**2>=0.000
     169 ->177         0.27643
     169 ->178         0.16640
     169 ->179         0.29205
     169 ->180         0.32782
     169 ->183         0.11268
     169 ->186         0.21937
     169 ->187        -0.17301

 Excited State   5:      Singlet-A      3.0257 eV  409.77 nm  f=1.0491  <S**2>=0.000
     175 ->177        -0.33867
     176 ->178         0.53670
     176 ->179         0.11244
     176 ->180         0.12823

 The electronic state is 1-A.
 Alpha  occ. eigenvalues --   -1.86447  -1.81742  -1.80493  -1.73942  -1.72596
 Alpha  occ. eigenvalues --   -1.70525  -1.67053  -1.62168  -1.61011  -1.57625
 Alpha  occ. eigenvalues --   -1.56130  -1.52726  -1.49419  -1.48084  -1.47452
 Alpha  occ. eigenvalues --   -1.43862  -1.43081  -1.41214  -1.39473  -1.39398
 Alpha  occ. eigenvalues --   -1.37047  -1.34456  -1.32467  -1.30598  -1.28935
 Alpha  occ. eigenvalues --   -1.27723  -1.27129  -1.22341  -1.20095  -1.18290
 Alpha  occ. eigenvalues --   -1.16416  -1.16168  -1.15856  -1.14203  -1.13655
 Alpha  occ. eigenvalues --   -1.12640  -1.09939  -1.09000  -1.05336  -1.04205
 Alpha  occ. eigenvalues --   -1.03804  -1.02576  -0.99343  -0.97303  -0.96021
 Alpha  occ. eigenvalues --   -0.95517  -0.94427  -0.93653  -0.92680  -0.91254
 Alpha  occ. eigenvalues --   -0.90414  -0.89422  -0.89319  -0.88523  -0.88096
 Alpha  occ. eigenvalues --   -0.85836  -0.83803  -0.83094  -0.82198  -0.80929
 Alpha  occ. eigenvalues --   -0.80069  -0.78801  -0.78575  -0.77896  -0.77411
 Alpha  occ. eigenvalues --   -0.76306  -0.75621  -0.74798  -0.74339  -0.73416
 Alpha  occ. eigenvalues --   -0.73117  -0.72965  -0.72812  -0.71601  -0.71038
 Alpha  occ. eigenvalues --   -0.70992  -0.70189  -0.69635  -0.69160  -0.68762
 Alpha  occ. eigenvalues --   -0.68051  -0.67087  -0.66724  -0.65861  -0.65412
 Alpha  occ. eigenvalues --   -0.65151  -0.64883  -0.64387  -0.64175  -0.64052
 Alpha  occ. eigenvalues --   -0.63664  -0.63305  -0.63082  -0.62575  -0.62033
 Alpha  occ. eigenvalues --   -0.61809  -0.61461  -0.60636  -0.60158  -0.59776
 Alpha  occ. eigenvalues --   -0.59528  -0.58949  -0.58664  -0.58235  -0.57726
 Alpha  occ. eigenvalues --   -0.57264  -0.57101  -0.56973  -0.56723  -0.56615
 Alpha  occ. eigenvalues --   -0.56108  -0.55631  -0.55317  -0.55084  -0.54817
 Alpha  occ. eigenvalues --   -0.54616  -0.53912  -0.53828  -0.53602  -0.53044
 Alpha  occ. eigenvalues --   -0.52635  -0.52455  -0.52046  -0.51830  -0.51474
 Alpha  occ. eigenvalues --   -0.51352  -0.51208  -0.50957  -0.50937  -0.50741
 Alpha  occ. eigenvalues --   -0.49998  -0.49630  -0.49173  -0.49141  -0.48869
 Alpha  occ. eigenvalues --   -0.48548  -0.48460  -0.48314  -0.48125  -0.47934
 Alpha  occ. eigenvalues --   -0.47782  -0.47679  -0.47602  -0.47190  -0.46953
 Alpha  occ. eigenvalues --   -0.46793  -0.46526  -0.46369  -0.45902  -0.45442
 Alpha  occ. eigenvalues --   -0.45280  -0.45192  -0.44528  -0.44323  -0.44278
 Alpha  occ. eigenvalues --   -0.44255  -0.43351  -0.43146  -0.43020  -0.42355
 Alpha  occ. eigenvalues --   -0.42325  -0.42076  -0.40433  -0.39537  -0.39190
 Alpha  occ. eigenvalues --   -0.38563  -0.38199  -0.35480  -0.35197  -0.34993
 Alpha  occ. eigenvalues --   -0.33840  -0.32875  -0.32769  -0.32025  -0.27059
 Alpha  occ. eigenvalues --   -0.22236
 Alpha virt. eigenvalues --   -0.09490  -0.02161  -0.00776   0.00713   0.00963
 Alpha virt. eigenvalues --    0.01692   0.02342   0.02558   0.04226   0.04371
 Alpha virt. eigenvalues --    0.05610   0.06266   0.06955   0.07174   0.07528

 Mulliken charges:
               1
     1  Mg   0.431167
     2  C   -0.085283
     3  C   -0.070820
     4  C   -0.095268
     5  C   -0.067336
     6  N   -0.279277
     7  C    0.135575
     8  C    0.015007
     9  C    0.029629
    10  C    0.091511
    11  C   -0.048656
    12  C   -0.035890
    13  C   -0.005711
    14  C    0.474835
    15  O   -0.510513
    16  O   -0.267563
    17  N   -0.314386
    18  C    0.098933
    19  C    0.036152
    20  C   -0.078536
    21  C    0.127499
    22  C   -0.037336
    23  C    0.331259
    24  O   -0.536045
    25  C   -0.033249
    26  N   -0.277501
    27  C    0.142338
    28  C    0.012236
    29  C   -0.003096
    30  C    0.122608
    31  C   -0.052472
    32  C   -0.031069
    33  C   -0.061826
    34  N   -0.316829
    35  C    0.086015
    36  C    0.038507
    37  C   -0.044625
    38  C    0.135223
    39  C   -0.035919
    40  C    0.339613
    41  O   -0.503160
    42  C    0.065724
    43  C    0.481838
    44  O   -0.518255
    45  O   -0.275327
    46  C    0.077859
    47  C    0.097369
    48  C   -0.119117
    49  C    0.025498
    50  C   -0.036059
    51  C   -0.030657
    52  C   -0.031794
    53  C   -0.032820
    54  C   -0.017860
    55  C   -0.060261
    56  C   -0.028823
    57  C   -0.045436
    58  C   -0.041819
    59  C   -0.011622
    60  C   -0.056944
    61  C   -0.040383
    62  C   -0.049889
    63  C   -0.035119
    64  C   -0.004102
    65  C   -0.055769
    66  C   -0.056117
    67  H    0.021855
    68  H    0.024192
    69  H    0.029734
    70  H    0.038265
    71  H    0.031582
    72  H    0.024683
    73  H    0.016537
    74  H    0.032768
    75  H    0.036485
    76  H    0.025479
    77  H    0.051085
    78  H    0.034634
    79  H    0.035121
    80  H    0.022466
    81  H    0.044873
    82  H    0.040358
    83  H    0.033894
    84  H    0.036149
    85  H    0.026178
    86  H    0.031365
    87  H    0.022549
    88  H    0.017357
    89  H    0.022982
    90  H    0.016006
    91  H    0.024926
    92  H    0.022632
    93  H    0.027228
    94  H    0.029032
    95  H    0.029231
    96  H    0.041003
    97  H    0.034647
    98  H    0.054940
    99  H    0.028856
   100  H    0.040343
   101  H    0.052486
   102  H    0.037354
   103  H    0.052295
   104  H    0.036549
   105  H    0.033180
   106  H    0.035486
   107  H    0.018386
   108  H    0.017655
   109  H    0.016104
   110  H    0.023112
   111  H    0.014575
   112  H    0.027798
   113  H    0.017648
   114  H    0.043514
   115  H    0.010792
   116  H    0.014441
   117  H    0.011591
   118  H    0.030591
   119  H    0.010191
   120  H    0.010491
   121  H    0.021088
   122  H    0.023161
   123  H    0.022625
   124  H    0.023859
   125  H    0.016691
   126  H    0.019281
   127  H    0.022590
   128  H    0.015021
   129  H    0.010288
   130  H    0.018687
   131  H    0.024151
   132  H    0.013307
   133  H    0.033075
   134  H    0.019632
   135  H    0.023232
   136  H    0.020168
   137  H    0.013473
   138  H    0.018945
   139  H    0.009829
   140  H    0.011370
 Sum of Mulliken charges =  -0.00000

 Dipole moment (field-independent basis, Debye):
    X=              0.4712    Y=              4.6946    Z=              3.7201  Tot=              6.0083
 N-N= 4.242901708386D+03 E-N= 0.000000000000D+00  KE=-9.159418324254D+03
 Leave Link  601 at Thu May  5 04:06:44 2022, MaxMem=  6710886400 cpu:               0.9 elap:               0.1
 (Enter /sw/apps/gaussian-16.0/g16/l9999.exe)
 1\1\GINC-BP1-COMPUTE215\SP\RZINDO CIS\STO-3G\C55H74Mg1N4O6\OF15641\05-
 May-2022\0\\#p ZINDO=(nstates=5)\\step_551_chromophore_14 ZINDO\\0,1\M
 g,0,45.747,44.528,44.195\C,0,42.372,44.031,43.624\C,0,46.37,41.315,43.
 16\C,0,49.018,45.316,44.089\C,0,45.015,48.009,44.724\N,0,44.499,42.834
 ,43.625\C,0,43.176,42.834,43.433\C,0,42.66,41.402,43.091\C,0,43.839,40
 .52,43.09\C,0,44.969,41.531,43.289\C,0,43.818,39.364,44.055\C,0,41.815
 ,41.414,41.728\C,0,42.51,42.053,40.495\C,0,42.223,41.556,39.093\O,0,41

 Normal termination of Gaussian 16 at Thu May  5 04:06:44 2022.
