 Gaussian 16, Revision A.03,
 Gaussian 16:  ES64L-G16RevA.03 25-Dec-2016

 ------------------------------
 #p blyp/Def2SVP td=(nstates=5)
 ------------------------------

 ---------------------------------------------------
 step_1751_chromophore_23 TDDFT with blyp functional
 ---------------------------------------------------
 Symbolic Z-matrix:
 Charge =  0 Multiplicity = 1

                         Standard orientation:
 ---------------------------------------------------------------------
 Center     Atomic      Atomic             Coordinates (Angstroms)
 Number     Number       Type             X           Y           Z
 ---------------------------------------------------------------------
      1         12           0       -4.750777    0.146068    0.353169
      2          6           0       -2.912986   -2.609066   -0.863094
      3          6           0       -2.644584    0.300002    3.030718
      4          6           0       -6.028060    3.225421    1.094771
      5          6           0       -6.164112    0.415402   -2.926375
      6          7           0       -2.895874   -0.969778    0.889477
      7          6           0       -2.492410   -2.141879    0.373914
      8          6           0       -1.436341   -2.822447    1.204242
      9          6           0       -1.585106   -2.057355    2.586619
     10          6           0       -2.394568   -0.771252    2.147855
     11          6           0       -2.008851   -2.914655    3.748156
     12          6           0        0.006102   -2.817300    0.611733
     13          6           0        0.709126   -4.136700    0.807935
     14          6           0        1.724416   -4.204807    1.952749
     15          8           0        1.447140   -4.403717    3.132826
     16          8           0        2.974235   -4.049712    1.413488
     17          7           0       -4.441870    1.523621    1.883486
     18          6           0       -3.525930    1.348604    2.903970
     19          6           0       -3.738037    2.404194    3.823475
     20          6           0       -4.787370    3.254071    3.326269
     21          6           0       -5.045871    2.737801    2.072125
     22          6           0       -2.899617    2.622049    5.070700
     23          6           0       -5.346315    4.486171    4.033800
     24          8           0       -4.914012    4.980997    5.045906
     25          6           0       -6.553599    5.289897    3.504353
     26          7           0       -5.842247    1.626689   -0.805129
     27          6           0       -6.342485    2.808730   -0.230362
     28          6           0       -7.164426    3.667543   -1.246362
     29          6           0       -7.241126    2.702585   -2.468670
     30          6           0       -6.394261    1.535226   -2.083665
     31          6           0       -8.568775    4.100280   -0.715004
     32          6           0       -6.710302    3.340872   -3.800155
     33          6           0       -7.239636    4.775569   -4.164397
     34          7           0       -4.637292   -0.851513   -1.638487
     35          6           0       -5.263885   -0.636157   -2.796053
     36          6           0       -4.920634   -1.802471   -3.748715
     37          6           0       -4.055056   -2.623161   -2.991334
     38          6           0       -3.890275   -2.010853   -1.718025
     39          6           0       -5.313218   -1.898379   -5.309132
     40          6           0       -3.229567   -3.877034   -2.976321
     41          8           0       -3.135710   -4.821059   -3.756601
     42          6           0       -2.425851   -3.863276   -1.688585
     43          6           0       -2.835954   -5.076266   -0.963937
     44          8           0       -3.994179   -5.306931   -0.606794
     45          8           0       -1.692819   -5.872144   -0.642299
     46          6           0       -1.945237   -7.085673    0.207481
     47          6           0        4.095208   -3.997883    2.377317
     48          6           0        5.281442   -3.337411    1.842481
     49          6           0        5.338006   -2.154132    1.228165
     50          6           0        4.251877   -1.129537    1.064899
     51          6           0        6.636689   -1.777605    0.523281
     52          6           0        7.404975   -0.787308    1.365906
     53          6           0        8.955278   -1.141955    1.331298
     54          6           0        9.843836   -0.068456    0.738426
     55          6           0       10.966406    0.335494    1.708409
     56          6           0       10.546172   -0.553402   -0.597377
     57          6           0       10.592707    0.664765   -1.591003
     58          6           0        9.502349    0.666974   -2.737634
     59          6           0        8.386454    1.675963   -2.389127
     60          6           0        6.991626    1.005671   -2.413566
     61          6           0        8.428880    2.875909   -3.273139
     62          6           0        7.584316    4.093434   -2.913825
     63          6           0        8.501218    5.023482   -2.021709
     64          6           0        7.874135    5.203682   -0.638023
     65          6           0        6.637307    6.211924   -0.724066
     66          6           0        8.906476    5.626405    0.387675
     67          1           0       -1.958515    0.274529    3.879200
     68          1           0       -6.627985    4.054019    1.476480
     69          1           0       -6.669253    0.370252   -3.893193
     70          1           0       -1.687023   -3.882929    1.256709
     71          1           0       -0.609951   -1.668513    2.877351
     72          1           0       -1.330588   -2.958321    4.601002
     73          1           0       -2.002329   -3.949500    3.407058
     74          1           0       -2.951128   -2.506610    4.112918
     75          1           0        0.598675   -2.118987    1.203711
     76          1           0        0.210848   -2.563248   -0.428573
     77          1           0        1.091143   -4.430831   -0.168820
     78          1           0        0.013804   -4.886888    1.184912
     79          1           0       -2.070455    3.327548    5.033678
     80          1           0       -2.613065    1.609737    5.357384
     81          1           0       -3.647905    3.034420    5.748909
     82          1           0       -7.443693    4.715249    3.247651
     83          1           0       -6.253495    5.844076    2.614306
     84          1           0       -6.932813    5.953048    4.280799
     85          1           0       -6.520099    4.502940   -1.520423
     86          1           0       -8.207171    2.224622   -2.632779
     87          1           0       -8.657155    5.113373   -1.108403
     88          1           0       -8.564584    4.214173    0.368681
     89          1           0       -9.334370    3.428941   -1.102824
     90          1           0       -7.035505    2.817473   -4.699944
     91          1           0       -5.638180    3.501637   -3.686895
     92          1           0       -8.152360    5.006182   -3.614835
     93          1           0       -7.430721    4.938061   -5.224599
     94          1           0       -6.396829    5.392837   -3.851494
     95          1           0       -6.382626   -2.072323   -5.429170
     96          1           0       -4.894288   -2.822029   -5.709230
     97          1           0       -4.888046   -1.146350   -5.973743
     98          1           0       -1.349374   -3.899848   -1.854230
     99          1           0       -1.157813   -7.823868    0.049956
    100          1           0       -2.906642   -7.552468   -0.009682
    101          1           0       -1.894109   -6.737732    1.239068
    102          1           0        4.416385   -5.039922    2.368313
    103          1           0        3.895071   -3.537419    3.345607
    104          1           0        6.128337   -4.022830    1.878656
    105          1           0        4.585448   -0.227975    1.578283
    106          1           0        3.385081   -1.450768    1.643889
    107          1           0        3.975611   -0.931714    0.030093
    108          1           0        6.312735   -1.181403   -0.328986
    109          1           0        7.168030   -2.651415    0.146392
    110          1           0        7.085952   -0.742074    2.408052
    111          1           0        7.123278    0.190882    0.976372
    112          1           0        9.102355   -1.996553    0.670950
    113          1           0        9.219795   -1.408587    2.354737
    114          1           0        9.248227    0.838501    0.636085
    115          1           0       10.623980    0.871537    2.593592
    116          1           0       11.461649    1.152408    1.183673
    117          1           0       11.764831   -0.380283    1.902517
    118          1           0        9.949434   -1.259783   -1.174303
    119          1           0       11.515520   -1.022637   -0.431034
    120          1           0       11.575751    0.572396   -2.050723
    121          1           0       10.589391    1.593670   -1.020656
    122          1           0        9.070393   -0.328182   -2.843620
    123          1           0        9.931418    0.931237   -3.704411
    124          1           0        8.627516    2.080082   -1.407077
    125          1           0        6.281840    1.660251   -2.919833
    126          1           0        6.552165    1.077858   -1.418803
    127          1           0        6.981579   -0.002882   -2.826142
    128          1           0        8.252630    2.550739   -4.298644
    129          1           0        9.470782    3.156611   -3.427901
    130          1           0        6.663191    3.870913   -2.376350
    131          1           0        7.198395    4.771430   -3.674353
    132          1           0        8.518370    6.005231   -2.496315
    133          1           0        9.518521    4.675700   -1.842301
    134          1           0        7.590091    4.190027   -0.354033
    135          1           0        6.228645    6.463426   -1.702492
    136          1           0        6.892757    7.147123   -0.226228
    137          1           0        5.777813    5.906993   -0.127077
    138          1           0        8.706982    5.139168    1.342178
    139          1           0        8.842733    6.652609    0.748035
    140          1           0        9.950615    5.497342    0.102847
 ---------------------------------------------------------------------

 SCF Done:  E(RB-LYP) =  -3007.32920939     A.U. after   21 cycles

 Excitation energies and oscillator strengths:

 Excited State   1:      Singlet-A      1.7950 eV  690.72 nm  f=0.2052  <S**2>=0.000
     244 -> 247        0.38430
     245 -> 248        0.14519
     246 -> 247        0.57880
     246 <- 247       -0.12635
 This state for optimization and/or second-order correction.
 Total Energy, E(TD-HF/TD-DFT) =  -3007.26324474
 Copying the excited state density for this state as the 1-particle RhoCI density.

 Excited State   2:      Singlet-A      1.8316 eV  676.93 nm  f=0.0996  <S**2>=0.000
     244 -> 247        0.58909
     245 -> 248       -0.10554
     246 -> 247       -0.37676

 Excited State   3:      Singlet-A      1.9929 eV  622.13 nm  f=0.0731  <S**2>=0.000
     245 -> 247        0.64665
     246 -> 248       -0.24185

 Excited State   4:      Singlet-A      2.1805 eV  568.61 nm  f=0.0021  <S**2>=0.000
     243 -> 247        0.70379

 Excited State   5:      Singlet-A      2.2741 eV  545.21 nm  f=0.0006  <S**2>=0.000
     242 -> 247        0.70664

 The electronic state is 1-A.
 Alpha  occ. eigenvalues --  -46.28834 -18.82268 -18.82169 -18.77366 -18.77067
 Alpha  occ. eigenvalues --  -18.76465 -18.75532 -14.03619 -14.03470 -14.00956
 Alpha  occ. eigenvalues --  -14.00716 -10.04425 -10.03931 -10.00617 -10.00034
 Alpha  occ. eigenvalues --   -9.98029  -9.97227  -9.96946  -9.96919  -9.96759
 Alpha  occ. eigenvalues --   -9.96515  -9.95925  -9.95721  -9.95225  -9.95126
 Alpha  occ. eigenvalues --   -9.94884  -9.94651  -9.94601  -9.94379  -9.94285
 Alpha  occ. eigenvalues --   -9.93968  -9.93750  -9.93347  -9.93346  -9.93152
 Alpha  occ. eigenvalues --   -9.93097  -9.93030  -9.92932  -9.92890  -9.92600
 Alpha  occ. eigenvalues --   -9.92594  -9.92474  -9.92466  -9.92290  -9.92268
 Alpha  occ. eigenvalues --   -9.92222  -9.91970  -9.91966  -9.91763  -9.91668
 Alpha  occ. eigenvalues --   -9.91598  -9.91550  -9.91547  -9.91508  -9.91419
 Alpha  occ. eigenvalues --   -9.91391  -9.91279  -9.91242  -9.91235  -9.91020
 Alpha  occ. eigenvalues --   -9.90981  -9.90864  -9.90775  -9.90770  -9.90755
 Alpha  occ. eigenvalues --   -9.90605  -2.93195  -1.73574  -1.73082  -1.72928
 Alpha  occ. eigenvalues --   -0.97364  -0.95957  -0.92468  -0.91729  -0.89904
 Alpha  occ. eigenvalues --   -0.89275  -0.86612  -0.85577  -0.85511  -0.84281
 Alpha  occ. eigenvalues --   -0.75616  -0.74165  -0.73671  -0.73200  -0.72580
 Alpha  occ. eigenvalues --   -0.72183  -0.71667  -0.71117  -0.70678  -0.69587
 Alpha  occ. eigenvalues --   -0.69200  -0.68658  -0.68249  -0.67735  -0.67189
 Alpha  occ. eigenvalues --   -0.66720  -0.65573  -0.65208  -0.64820  -0.64092
 Alpha  occ. eigenvalues --   -0.64004  -0.62696  -0.62220  -0.61744  -0.61203
 Alpha  occ. eigenvalues --   -0.60377  -0.60329  -0.59940  -0.59572  -0.58896
 Alpha  occ. eigenvalues --   -0.58265  -0.57268  -0.56979  -0.55687  -0.54471
 Alpha  occ. eigenvalues --   -0.54302  -0.54174  -0.52938  -0.52870  -0.51630
 Alpha  occ. eigenvalues --   -0.51247  -0.51073  -0.50547  -0.50271  -0.50104
 Alpha  occ. eigenvalues --   -0.50006  -0.49358  -0.48957  -0.48291  -0.46290
 Alpha  occ. eigenvalues --   -0.45949  -0.45807  -0.45573  -0.45171  -0.44850
 Alpha  occ. eigenvalues --   -0.44194  -0.44010  -0.43539  -0.43203  -0.42612
 Alpha  occ. eigenvalues --   -0.42446  -0.41940  -0.41929  -0.41255  -0.41125
 Alpha  occ. eigenvalues --   -0.40983  -0.40605  -0.40451  -0.40388  -0.39997
 Alpha  occ. eigenvalues --   -0.39706  -0.39394  -0.39292  -0.39071  -0.38949
 Alpha  occ. eigenvalues --   -0.38879  -0.38682  -0.38477  -0.38212  -0.38125
 Alpha  occ. eigenvalues --   -0.37990  -0.37782  -0.37780  -0.37400  -0.37372
 Alpha  occ. eigenvalues --   -0.37131  -0.37060  -0.36664  -0.36550  -0.36464
 Alpha  occ. eigenvalues --   -0.36338  -0.36032  -0.35871  -0.35780  -0.35550
 Alpha  occ. eigenvalues --   -0.35326  -0.35295  -0.35179  -0.35148  -0.34609
 Alpha  occ. eigenvalues --   -0.34547  -0.34401  -0.34236  -0.34015  -0.33823
 Alpha  occ. eigenvalues --   -0.33812  -0.33573  -0.33365  -0.33203  -0.32771
 Alpha  occ. eigenvalues --   -0.32732  -0.32517  -0.32478  -0.32365  -0.32329
 Alpha  occ. eigenvalues --   -0.32262  -0.31876  -0.31708  -0.31541  -0.31369
 Alpha  occ. eigenvalues --   -0.31240  -0.31047  -0.30989  -0.30945  -0.30745
 Alpha  occ. eigenvalues --   -0.30596  -0.30505  -0.30267  -0.30209  -0.30071
 Alpha  occ. eigenvalues --   -0.29823  -0.29682  -0.29504  -0.29144  -0.28832
 Alpha  occ. eigenvalues --   -0.28630  -0.28519  -0.28379  -0.27975  -0.27874
 Alpha  occ. eigenvalues --   -0.27782  -0.27644  -0.27269  -0.26673  -0.26430
 Alpha  occ. eigenvalues --   -0.26131  -0.26094  -0.25830  -0.25677  -0.25349
 Alpha  occ. eigenvalues --   -0.25139  -0.24743  -0.24281  -0.24195  -0.23954
 Alpha  occ. eigenvalues --   -0.23347  -0.22549  -0.22202  -0.21753  -0.20940
 Alpha  occ. eigenvalues --   -0.20036  -0.20013  -0.19555  -0.18279  -0.17356
 Alpha  occ. eigenvalues --   -0.15892
 Alpha virt. eigenvalues --   -0.11659  -0.06943  -0.06481  -0.05035  -0.04417
 Alpha virt. eigenvalues --   -0.03532  -0.02827  -0.02228  -0.01866  -0.00238
 Alpha virt. eigenvalues --    0.00795   0.00918   0.01840   0.01974   0.02420

 Mulliken charges:
               1
     1  Mg   0.695173
     2  C    0.012612
     3  C   -0.097152
     4  C   -0.050017
     5  C   -0.049669
     6  N   -0.197970
     7  C   -0.066647
     8  C   -0.010652
     9  C    0.002225
    10  C    0.000622
    11  C    0.164590
    12  C    0.123350
    13  C    0.144241
    14  C    0.051962
    15  O   -0.204741
    16  O   -0.275705
    17  N   -0.305854
    18  C    0.214594
    19  C   -0.168433
    20  C    0.068652
    21  C    0.083771
    22  C    0.169222
    23  C   -0.077853
    24  O   -0.145695
    25  C    0.121186
    26  N   -0.237593
    27  C    0.014638
    28  C    0.032377
    29  C    0.061201
    30  C    0.026953
    31  C    0.137373
    32  C    0.055439
    33  C    0.047607
    34  N   -0.209930
    35  C    0.045695
    36  C   -0.172433
    37  C    0.079297
    38  C    0.056566
    39  C    0.131683
    40  C   -0.010889
    41  O   -0.129793
    42  C    0.133103
    43  C    0.113441
    44  O   -0.185765
    45  O   -0.315281
    46  C    0.209263
    47  C    0.335416
    48  C   -0.151292
    49  C   -0.144398
    50  C    0.165920
    51  C    0.144363
    52  C    0.041598
    53  C    0.146758
    54  C   -0.073339
    55  C    0.105607
    56  C    0.097148
    57  C    0.040590
    58  C    0.140103
    59  C   -0.080285
    60  C    0.120939
    61  C    0.098902
    62  C    0.107405
    63  C    0.058377
    64  C   -0.065604
    65  C    0.091504
    66  C    0.100015
    67  H   -0.052154
    68  H   -0.108341
    69  H   -0.067480
    70  H   -0.009118
    71  H   -0.027897
    72  H   -0.009250
    73  H   -0.011699
    74  H   -0.011737
    75  H   -0.018581
    76  H   -0.012141
    77  H   -0.011841
    78  H   -0.014213
    79  H    0.016458
    80  H   -0.017022
    81  H    0.002913
    82  H    0.001164
    83  H    0.014615
    84  H   -0.013037
    85  H   -0.010324
    86  H   -0.023804
    87  H   -0.005178
    88  H    0.000203
    89  H    0.000692
    90  H   -0.010317
    91  H   -0.011732
    92  H   -0.009165
    93  H   -0.002185
    94  H   -0.006062
    95  H    0.002880
    96  H   -0.006149
    97  H    0.016159
    98  H   -0.008506
    99  H    0.020534
   100  H    0.031745
   101  H    0.018262
   102  H   -0.018733
   103  H    0.021610
   104  H   -0.040168
   105  H   -0.010004
   106  H   -0.023505
   107  H    0.014245
   108  H   -0.044980
   109  H   -0.017897
   110  H   -0.022784
   111  H   -0.024771
   112  H   -0.036913
   113  H   -0.035289
   114  H   -0.030256
   115  H   -0.021987
   116  H   -0.045609
   117  H   -0.010583
   118  H   -0.039541
   119  H   -0.023409
   120  H   -0.045332
   121  H   -0.013774
   122  H   -0.039179
   123  H   -0.033912
   124  H   -0.031257
   125  H   -0.030202
   126  H   -0.020007
   127  H    0.002482
   128  H   -0.056729
   129  H   -0.045889
   130  H   -0.031866
   131  H   -0.038197
   132  H   -0.034115
   133  H   -0.024592
   134  H   -0.033357
   135  H   -0.008819
   136  H   -0.021397
   137  H   -0.023306
   138  H   -0.026123
   139  H   -0.030460
   140  H   -0.015576
 Sum of Mulliken charges =  -0.00000

 Dipole moment (field-independent basis, Debye):
    X=              0.8539    Y=              2.0971    Z=             -2.1204  Tot=              3.1021
 Quadrupole moment (field-independent basis, Debye-Ang):
   XX=           -366.9808   YY=           -420.8359   ZZ=           -427.2152
   XY=            -21.1520   XZ=             15.9432   YZ=            -33.8034

 Normal termination of Gaussian 16 at Thu Apr 28 23:08:22 2022.
