 Gaussian 16, Revision A.03,
 Gaussian 16:  ES64L-G16RevA.03 25-Dec-2016

 -----------------------------------
 #p cam-b3lyp/Def2SVP td=(nstates=5)
 -----------------------------------

 --------------------------------------------------------
 step_1751_chromophore_23 TDDFT with cam-b3lyp functional
 --------------------------------------------------------
 Symbolic Z-matrix:
 Charge =  0 Multiplicity = 1

                         Standard orientation:
 ---------------------------------------------------------------------
 Center     Atomic      Atomic             Coordinates (Angstroms)
 Number     Number       Type             X           Y           Z
 ---------------------------------------------------------------------
      1         12           0       -4.750777    0.146068    0.353169
      2          6           0       -2.912986   -2.609066   -0.863094
      3          6           0       -2.644584    0.300002    3.030718
      4          6           0       -6.028060    3.225421    1.094771
      5          6           0       -6.164112    0.415402   -2.926375
      6          7           0       -2.895874   -0.969778    0.889477
      7          6           0       -2.492410   -2.141879    0.373914
      8          6           0       -1.436341   -2.822447    1.204242
      9          6           0       -1.585106   -2.057355    2.586619
     10          6           0       -2.394568   -0.771252    2.147855
     11          6           0       -2.008851   -2.914655    3.748156
     12          6           0        0.006102   -2.817300    0.611733
     13          6           0        0.709126   -4.136700    0.807935
     14          6           0        1.724416   -4.204807    1.952749
     15          8           0        1.447140   -4.403717    3.132826
     16          8           0        2.974235   -4.049712    1.413488
     17          7           0       -4.441870    1.523621    1.883486
     18          6           0       -3.525930    1.348604    2.903970
     19          6           0       -3.738037    2.404194    3.823475
     20          6           0       -4.787370    3.254071    3.326269
     21          6           0       -5.045871    2.737801    2.072125
     22          6           0       -2.899617    2.622049    5.070700
     23          6           0       -5.346315    4.486171    4.033800
     24          8           0       -4.914012    4.980997    5.045906
     25          6           0       -6.553599    5.289897    3.504353
     26          7           0       -5.842247    1.626689   -0.805129
     27          6           0       -6.342485    2.808730   -0.230362
     28          6           0       -7.164426    3.667543   -1.246362
     29          6           0       -7.241126    2.702585   -2.468670
     30          6           0       -6.394261    1.535226   -2.083665
     31          6           0       -8.568775    4.100280   -0.715004
     32          6           0       -6.710302    3.340872   -3.800155
     33          6           0       -7.239636    4.775569   -4.164397
     34          7           0       -4.637292   -0.851513   -1.638487
     35          6           0       -5.263885   -0.636157   -2.796053
     36          6           0       -4.920634   -1.802471   -3.748715
     37          6           0       -4.055056   -2.623161   -2.991334
     38          6           0       -3.890275   -2.010853   -1.718025
     39          6           0       -5.313218   -1.898379   -5.309132
     40          6           0       -3.229567   -3.877034   -2.976321
     41          8           0       -3.135710   -4.821059   -3.756601
     42          6           0       -2.425851   -3.863276   -1.688585
     43          6           0       -2.835954   -5.076266   -0.963937
     44          8           0       -3.994179   -5.306931   -0.606794
     45          8           0       -1.692819   -5.872144   -0.642299
     46          6           0       -1.945237   -7.085673    0.207481
     47          6           0        4.095208   -3.997883    2.377317
     48          6           0        5.281442   -3.337411    1.842481
     49          6           0        5.338006   -2.154132    1.228165
     50          6           0        4.251877   -1.129537    1.064899
     51          6           0        6.636689   -1.777605    0.523281
     52          6           0        7.404975   -0.787308    1.365906
     53          6           0        8.955278   -1.141955    1.331298
     54          6           0        9.843836   -0.068456    0.738426
     55          6           0       10.966406    0.335494    1.708409
     56          6           0       10.546172   -0.553402   -0.597377
     57          6           0       10.592707    0.664765   -1.591003
     58          6           0        9.502349    0.666974   -2.737634
     59          6           0        8.386454    1.675963   -2.389127
     60          6           0        6.991626    1.005671   -2.413566
     61          6           0        8.428880    2.875909   -3.273139
     62          6           0        7.584316    4.093434   -2.913825
     63          6           0        8.501218    5.023482   -2.021709
     64          6           0        7.874135    5.203682   -0.638023
     65          6           0        6.637307    6.211924   -0.724066
     66          6           0        8.906476    5.626405    0.387675
     67          1           0       -1.958515    0.274529    3.879200
     68          1           0       -6.627985    4.054019    1.476480
     69          1           0       -6.669253    0.370252   -3.893193
     70          1           0       -1.687023   -3.882929    1.256709
     71          1           0       -0.609951   -1.668513    2.877351
     72          1           0       -1.330588   -2.958321    4.601002
     73          1           0       -2.002329   -3.949500    3.407058
     74          1           0       -2.951128   -2.506610    4.112918
     75          1           0        0.598675   -2.118987    1.203711
     76          1           0        0.210848   -2.563248   -0.428573
     77          1           0        1.091143   -4.430831   -0.168820
     78          1           0        0.013804   -4.886888    1.184912
     79          1           0       -2.070455    3.327548    5.033678
     80          1           0       -2.613065    1.609737    5.357384
     81          1           0       -3.647905    3.034420    5.748909
     82          1           0       -7.443693    4.715249    3.247651
     83          1           0       -6.253495    5.844076    2.614306
     84          1           0       -6.932813    5.953048    4.280799
     85          1           0       -6.520099    4.502940   -1.520423
     86          1           0       -8.207171    2.224622   -2.632779
     87          1           0       -8.657155    5.113373   -1.108403
     88          1           0       -8.564584    4.214173    0.368681
     89          1           0       -9.334370    3.428941   -1.102824
     90          1           0       -7.035505    2.817473   -4.699944
     91          1           0       -5.638180    3.501637   -3.686895
     92          1           0       -8.152360    5.006182   -3.614835
     93          1           0       -7.430721    4.938061   -5.224599
     94          1           0       -6.396829    5.392837   -3.851494
     95          1           0       -6.382626   -2.072323   -5.429170
     96          1           0       -4.894288   -2.822029   -5.709230
     97          1           0       -4.888046   -1.146350   -5.973743
     98          1           0       -1.349374   -3.899848   -1.854230
     99          1           0       -1.157813   -7.823868    0.049956
    100          1           0       -2.906642   -7.552468   -0.009682
    101          1           0       -1.894109   -6.737732    1.239068
    102          1           0        4.416385   -5.039922    2.368313
    103          1           0        3.895071   -3.537419    3.345607
    104          1           0        6.128337   -4.022830    1.878656
    105          1           0        4.585448   -0.227975    1.578283
    106          1           0        3.385081   -1.450768    1.643889
    107          1           0        3.975611   -0.931714    0.030093
    108          1           0        6.312735   -1.181403   -0.328986
    109          1           0        7.168030   -2.651415    0.146392
    110          1           0        7.085952   -0.742074    2.408052
    111          1           0        7.123278    0.190882    0.976372
    112          1           0        9.102355   -1.996553    0.670950
    113          1           0        9.219795   -1.408587    2.354737
    114          1           0        9.248227    0.838501    0.636085
    115          1           0       10.623980    0.871537    2.593592
    116          1           0       11.461649    1.152408    1.183673
    117          1           0       11.764831   -0.380283    1.902517
    118          1           0        9.949434   -1.259783   -1.174303
    119          1           0       11.515520   -1.022637   -0.431034
    120          1           0       11.575751    0.572396   -2.050723
    121          1           0       10.589391    1.593670   -1.020656
    122          1           0        9.070393   -0.328182   -2.843620
    123          1           0        9.931418    0.931237   -3.704411
    124          1           0        8.627516    2.080082   -1.407077
    125          1           0        6.281840    1.660251   -2.919833
    126          1           0        6.552165    1.077858   -1.418803
    127          1           0        6.981579   -0.002882   -2.826142
    128          1           0        8.252630    2.550739   -4.298644
    129          1           0        9.470782    3.156611   -3.427901
    130          1           0        6.663191    3.870913   -2.376350
    131          1           0        7.198395    4.771430   -3.674353
    132          1           0        8.518370    6.005231   -2.496315
    133          1           0        9.518521    4.675700   -1.842301
    134          1           0        7.590091    4.190027   -0.354033
    135          1           0        6.228645    6.463426   -1.702492
    136          1           0        6.892757    7.147123   -0.226228
    137          1           0        5.777813    5.906993   -0.127077
    138          1           0        8.706982    5.139168    1.342178
    139          1           0        8.842733    6.652609    0.748035
    140          1           0        9.950615    5.497342    0.102847
 ---------------------------------------------------------------------

 SCF Done:  E(RCAM-B3LYP) =  -3007.11637240     A.U. after   17 cycles

 Excitation energies and oscillator strengths:

 Excited State   1:      Singlet-A      1.7139 eV  723.40 nm  f=0.3698  <S**2>=0.000
     245 -> 248        0.17961
     246 -> 247        0.68516
     245 <- 248        0.10724
 This state for optimization and/or second-order correction.
 Total Energy, E(TD-HF/TD-DFT) =  -3007.05338714
 Copying the excited state density for this state as the 1-particle RhoCI density.

 Excited State   2:      Singlet-A      2.2198 eV  558.54 nm  f=0.1080  <S**2>=0.000
     245 -> 247        0.63848
     246 -> 248       -0.28960

 Excited State   3:      Singlet-A      3.2459 eV  381.97 nm  f=0.0027  <S**2>=0.000
     242 -> 247        0.14431
     244 -> 247        0.67401

 Excited State   4:      Singlet-A      3.4766 eV  356.62 nm  f=0.2941  <S**2>=0.000
     240 -> 247        0.11245
     241 -> 247       -0.22380
     242 -> 247       -0.34030
     245 -> 247        0.17659
     246 -> 248        0.48548
     246 -> 250       -0.19351

 Excited State   5:      Singlet-A      3.5643 eV  347.85 nm  f=0.0117  <S**2>=0.000
     241 -> 247       -0.14265
     242 -> 247       -0.28434
     246 -> 249       -0.26274
     246 -> 250        0.54159

 The electronic state is 1-A.
 Alpha  occ. eigenvalues --  -46.90475 -19.25417 -19.25067 -19.20725 -19.20185
 Alpha  occ. eigenvalues --  -19.20079 -19.18442 -14.42589 -14.42244 -14.39507
 Alpha  occ. eigenvalues --  -14.38882 -10.40222 -10.39299 -10.36354 -10.34915
 Alpha  occ. eigenvalues --  -10.32244 -10.31680 -10.31293 -10.31288 -10.31151
 Alpha  occ. eigenvalues --  -10.30958 -10.30622 -10.30291 -10.29815 -10.29797
 Alpha  occ. eigenvalues --  -10.29212 -10.28836 -10.28823 -10.28373 -10.28326
 Alpha  occ. eigenvalues --  -10.28075 -10.27675 -10.27291 -10.27229 -10.27171
 Alpha  occ. eigenvalues --  -10.27143 -10.27015 -10.26975 -10.26846 -10.26801
 Alpha  occ. eigenvalues --  -10.26754 -10.26616 -10.26476 -10.26124 -10.25988
 Alpha  occ. eigenvalues --  -10.25904 -10.25813 -10.25658 -10.25398 -10.25326
 Alpha  occ. eigenvalues --  -10.25321 -10.25290 -10.25178 -10.25177 -10.25097
 Alpha  occ. eigenvalues --  -10.25049 -10.24915 -10.24884 -10.24849 -10.24737
 Alpha  occ. eigenvalues --  -10.24604 -10.24493 -10.24404 -10.24368 -10.24335
 Alpha  occ. eigenvalues --  -10.24165  -3.18718  -1.93578  -1.93167  -1.93023
 Alpha  occ. eigenvalues --   -1.15829  -1.14699  -1.10630  -1.10571  -1.07807
 Alpha  occ. eigenvalues --   -1.07362  -1.04396  -1.03321  -1.02861  -1.01781
 Alpha  occ. eigenvalues --   -0.93025  -0.91068  -0.90500  -0.90041  -0.89231
 Alpha  occ. eigenvalues --   -0.88868  -0.88233  -0.87673  -0.87246  -0.85942
 Alpha  occ. eigenvalues --   -0.85443  -0.85170  -0.84675  -0.84018  -0.83343
 Alpha  occ. eigenvalues --   -0.82776  -0.81616  -0.81088  -0.80669  -0.79906
 Alpha  occ. eigenvalues --   -0.79807  -0.78286  -0.77950  -0.77240  -0.76763
 Alpha  occ. eigenvalues --   -0.75712  -0.75664  -0.75215  -0.74796  -0.74074
 Alpha  occ. eigenvalues --   -0.73308  -0.72317  -0.71839  -0.70523  -0.69126
 Alpha  occ. eigenvalues --   -0.68918  -0.68847  -0.67320  -0.67246  -0.65769
 Alpha  occ. eigenvalues --   -0.65324  -0.65212  -0.64641  -0.64102  -0.64083
 Alpha  occ. eigenvalues --   -0.63855  -0.63291  -0.62820  -0.62236  -0.59917
 Alpha  occ. eigenvalues --   -0.59495  -0.59296  -0.58994  -0.58695  -0.58619
 Alpha  occ. eigenvalues --   -0.57670  -0.57432  -0.56768  -0.56198  -0.55833
 Alpha  occ. eigenvalues --   -0.55514  -0.55015  -0.54701  -0.54393  -0.54246
 Alpha  occ. eigenvalues --   -0.53795  -0.53316  -0.53196  -0.52947  -0.52789
 Alpha  occ. eigenvalues --   -0.52681  -0.52109  -0.51843  -0.51758  -0.51438
 Alpha  occ. eigenvalues --   -0.51373  -0.51325  -0.50952  -0.50790  -0.50499
 Alpha  occ. eigenvalues --   -0.50368  -0.50095  -0.49978  -0.49875  -0.49739
 Alpha  occ. eigenvalues --   -0.49609  -0.49520  -0.49291  -0.48760  -0.48565
 Alpha  occ. eigenvalues --   -0.48434  -0.48412  -0.48235  -0.47939  -0.47746
 Alpha  occ. eigenvalues --   -0.47604  -0.47279  -0.47175  -0.47129  -0.46774
 Alpha  occ. eigenvalues --   -0.46367  -0.46277  -0.46134  -0.45923  -0.45541
 Alpha  occ. eigenvalues --   -0.45459  -0.45365  -0.45106  -0.44764  -0.44609
 Alpha  occ. eigenvalues --   -0.44482  -0.44349  -0.44122  -0.43939  -0.43791
 Alpha  occ. eigenvalues --   -0.43743  -0.43560  -0.43328  -0.43011  -0.42890
 Alpha  occ. eigenvalues --   -0.42764  -0.42597  -0.42558  -0.42423  -0.42285
 Alpha  occ. eigenvalues --   -0.42062  -0.41967  -0.41715  -0.41523  -0.41429
 Alpha  occ. eigenvalues --   -0.41033  -0.40935  -0.40656  -0.40380  -0.40115
 Alpha  occ. eigenvalues --   -0.39622  -0.39578  -0.39281  -0.38836  -0.38803
 Alpha  occ. eigenvalues --   -0.38634  -0.38544  -0.38204  -0.37399  -0.37312
 Alpha  occ. eigenvalues --   -0.37237  -0.36853  -0.36830  -0.36670  -0.36506
 Alpha  occ. eigenvalues --   -0.36169  -0.35497  -0.35039  -0.34732  -0.34455
 Alpha  occ. eigenvalues --   -0.34366  -0.33971  -0.33763  -0.32132  -0.31052
 Alpha  occ. eigenvalues --   -0.30563  -0.30294  -0.29765  -0.28837  -0.24127
 Alpha  occ. eigenvalues --   -0.21181
 Alpha virt. eigenvalues --   -0.08741  -0.01745  -0.00079   0.00543   0.02345
 Alpha virt. eigenvalues --    0.04019   0.04784   0.05093   0.05458   0.06862
 Alpha virt. eigenvalues --    0.06956   0.07795   0.08485   0.08500   0.08789

 Mulliken charges:
               1
     1  Mg   0.821337
     2  C   -0.026317
     3  C   -0.101835
     4  C   -0.071021
     5  C   -0.068852
     6  N   -0.265838
     7  C   -0.020017
     8  C   -0.052297
     9  C   -0.052031
    10  C    0.014552
    11  C    0.104582
    12  C    0.067124
    13  C    0.078774
    14  C    0.134065
    15  O   -0.245682
    16  O   -0.338639
    17  N   -0.391711
    18  C    0.206836
    19  C   -0.170964
    20  C   -0.011530
    21  C    0.114115
    22  C    0.119148
    23  C    0.001148
    24  O   -0.187196
    25  C    0.038261
    26  N   -0.308334
    27  C    0.039616
    28  C   -0.026995
    29  C   -0.000836
    30  C    0.057347
    31  C    0.081852
    32  C    0.002162
    33  C   -0.011565
    34  N   -0.294905
    35  C    0.060718
    36  C   -0.161369
    37  C   -0.001599
    38  C    0.099645
    39  C    0.084572
    40  C    0.087991
    41  O   -0.164233
    42  C    0.055114
    43  C    0.206788
    44  O   -0.221373
    45  O   -0.381206
    46  C    0.172006
    47  C    0.296200
    48  C   -0.170930
    49  C   -0.162816
    50  C    0.108206
    51  C    0.082530
    52  C   -0.005447
    53  C    0.089736
    54  C   -0.131184
    55  C    0.050244
    56  C    0.045379
    57  C   -0.010962
    58  C    0.085690
    59  C   -0.129225
    60  C    0.062996
    61  C    0.041072
    62  C    0.050010
    63  C    0.006730
    64  C   -0.122402
    65  C    0.030426
    66  C    0.039758
    67  H   -0.015797
    68  H   -0.075470
    69  H   -0.032400
    70  H    0.019478
    71  H    0.006260
    72  H    0.017412
    73  H    0.011033
    74  H    0.013885
    75  H    0.010417
    76  H    0.019190
    77  H    0.024328
    78  H    0.013622
    79  H    0.041488
    80  H    0.004964
    81  H    0.030518
    82  H    0.026571
    83  H    0.039997
    84  H    0.022222
    85  H    0.024304
    86  H    0.011639
    87  H    0.017890
    88  H    0.023081
    89  H    0.024774
    90  H    0.017379
    91  H    0.017581
    92  H    0.012393
    93  H    0.022889
    94  H    0.016058
    95  H    0.029024
    96  H    0.022205
    97  H    0.042137
    98  H    0.036351
    99  H    0.044122
   100  H    0.057238
   101  H    0.037085
   102  H    0.012044
   103  H    0.051012
   104  H   -0.006282
   105  H    0.015268
   106  H   -0.001369
   107  H    0.038169
   108  H   -0.016858
   109  H    0.011547
   110  H    0.006145
   111  H   -0.001087
   112  H   -0.008729
   113  H   -0.004106
   114  H   -0.000908
   115  H    0.003813
   116  H   -0.020933
   117  H    0.013216
   118  H   -0.012458
   119  H    0.005808
   120  H   -0.014018
   121  H    0.008220
   122  H   -0.011046
   123  H   -0.003517
   124  H   -0.007039
   125  H   -0.003863
   126  H   -0.000660
   127  H    0.025005
   128  H   -0.025339
   129  H   -0.015207
   130  H   -0.004486
   131  H   -0.006593
   132  H   -0.004904
   133  H    0.001037
   134  H   -0.004709
   135  H    0.013832
   136  H    0.002981
   137  H    0.001996
   138  H   -0.000873
   139  H   -0.005310
   140  H    0.008916
 Sum of Mulliken charges =  -0.00000

 Dipole moment (field-independent basis, Debye):
    X=              0.7486    Y=              1.7136    Z=             -2.7238  Tot=              3.3039
 Quadrupole moment (field-independent basis, Debye-Ang):
   XX=           -364.7276   YY=           -418.1877   ZZ=           -425.8711
   XY=            -21.2968   XZ=             19.2870   YZ=            -33.9677

 Normal termination of Gaussian 16 at Thu Apr 28 21:54:18 2022.
