 Gaussian 16, Revision A.03,
 Gaussian 16:  ES64L-G16RevA.03 25-Dec-2016

 ---------------------------------
 #p PBE1PBE/Def2SVP td=(nstates=5)
 ---------------------------------

 ------------------------------------------------------
 step_1751_chromophore_23 TDDFT with PBE1PBE functional
 ------------------------------------------------------
 Symbolic Z-matrix:
 Charge =  0 Multiplicity = 1

                         Standard orientation:
 ---------------------------------------------------------------------
 Center     Atomic      Atomic             Coordinates (Angstroms)
 Number     Number       Type             X           Y           Z
 ---------------------------------------------------------------------
      1         12           0       -4.750777    0.146068    0.353169
      2          6           0       -2.912986   -2.609066   -0.863094
      3          6           0       -2.644584    0.300002    3.030718
      4          6           0       -6.028060    3.225421    1.094771
      5          6           0       -6.164112    0.415402   -2.926375
      6          7           0       -2.895874   -0.969778    0.889477
      7          6           0       -2.492410   -2.141879    0.373914
      8          6           0       -1.436341   -2.822447    1.204242
      9          6           0       -1.585106   -2.057355    2.586619
     10          6           0       -2.394568   -0.771252    2.147855
     11          6           0       -2.008851   -2.914655    3.748156
     12          6           0        0.006102   -2.817300    0.611733
     13          6           0        0.709126   -4.136700    0.807935
     14          6           0        1.724416   -4.204807    1.952749
     15          8           0        1.447140   -4.403717    3.132826
     16          8           0        2.974235   -4.049712    1.413488
     17          7           0       -4.441870    1.523621    1.883486
     18          6           0       -3.525930    1.348604    2.903970
     19          6           0       -3.738037    2.404194    3.823475
     20          6           0       -4.787370    3.254071    3.326269
     21          6           0       -5.045871    2.737801    2.072125
     22          6           0       -2.899617    2.622049    5.070700
     23          6           0       -5.346315    4.486171    4.033800
     24          8           0       -4.914012    4.980997    5.045906
     25          6           0       -6.553599    5.289897    3.504353
     26          7           0       -5.842247    1.626689   -0.805129
     27          6           0       -6.342485    2.808730   -0.230362
     28          6           0       -7.164426    3.667543   -1.246362
     29          6           0       -7.241126    2.702585   -2.468670
     30          6           0       -6.394261    1.535226   -2.083665
     31          6           0       -8.568775    4.100280   -0.715004
     32          6           0       -6.710302    3.340872   -3.800155
     33          6           0       -7.239636    4.775569   -4.164397
     34          7           0       -4.637292   -0.851513   -1.638487
     35          6           0       -5.263885   -0.636157   -2.796053
     36          6           0       -4.920634   -1.802471   -3.748715
     37          6           0       -4.055056   -2.623161   -2.991334
     38          6           0       -3.890275   -2.010853   -1.718025
     39          6           0       -5.313218   -1.898379   -5.309132
     40          6           0       -3.229567   -3.877034   -2.976321
     41          8           0       -3.135710   -4.821059   -3.756601
     42          6           0       -2.425851   -3.863276   -1.688585
     43          6           0       -2.835954   -5.076266   -0.963937
     44          8           0       -3.994179   -5.306931   -0.606794
     45          8           0       -1.692819   -5.872144   -0.642299
     46          6           0       -1.945237   -7.085673    0.207481
     47          6           0        4.095208   -3.997883    2.377317
     48          6           0        5.281442   -3.337411    1.842481
     49          6           0        5.338006   -2.154132    1.228165
     50          6           0        4.251877   -1.129537    1.064899
     51          6           0        6.636689   -1.777605    0.523281
     52          6           0        7.404975   -0.787308    1.365906
     53          6           0        8.955278   -1.141955    1.331298
     54          6           0        9.843836   -0.068456    0.738426
     55          6           0       10.966406    0.335494    1.708409
     56          6           0       10.546172   -0.553402   -0.597377
     57          6           0       10.592707    0.664765   -1.591003
     58          6           0        9.502349    0.666974   -2.737634
     59          6           0        8.386454    1.675963   -2.389127
     60          6           0        6.991626    1.005671   -2.413566
     61          6           0        8.428880    2.875909   -3.273139
     62          6           0        7.584316    4.093434   -2.913825
     63          6           0        8.501218    5.023482   -2.021709
     64          6           0        7.874135    5.203682   -0.638023
     65          6           0        6.637307    6.211924   -0.724066
     66          6           0        8.906476    5.626405    0.387675
     67          1           0       -1.958515    0.274529    3.879200
     68          1           0       -6.627985    4.054019    1.476480
     69          1           0       -6.669253    0.370252   -3.893193
     70          1           0       -1.687023   -3.882929    1.256709
     71          1           0       -0.609951   -1.668513    2.877351
     72          1           0       -1.330588   -2.958321    4.601002
     73          1           0       -2.002329   -3.949500    3.407058
     74          1           0       -2.951128   -2.506610    4.112918
     75          1           0        0.598675   -2.118987    1.203711
     76          1           0        0.210848   -2.563248   -0.428573
     77          1           0        1.091143   -4.430831   -0.168820
     78          1           0        0.013804   -4.886888    1.184912
     79          1           0       -2.070455    3.327548    5.033678
     80          1           0       -2.613065    1.609737    5.357384
     81          1           0       -3.647905    3.034420    5.748909
     82          1           0       -7.443693    4.715249    3.247651
     83          1           0       -6.253495    5.844076    2.614306
     84          1           0       -6.932813    5.953048    4.280799
     85          1           0       -6.520099    4.502940   -1.520423
     86          1           0       -8.207171    2.224622   -2.632779
     87          1           0       -8.657155    5.113373   -1.108403
     88          1           0       -8.564584    4.214173    0.368681
     89          1           0       -9.334370    3.428941   -1.102824
     90          1           0       -7.035505    2.817473   -4.699944
     91          1           0       -5.638180    3.501637   -3.686895
     92          1           0       -8.152360    5.006182   -3.614835
     93          1           0       -7.430721    4.938061   -5.224599
     94          1           0       -6.396829    5.392837   -3.851494
     95          1           0       -6.382626   -2.072323   -5.429170
     96          1           0       -4.894288   -2.822029   -5.709230
     97          1           0       -4.888046   -1.146350   -5.973743
     98          1           0       -1.349374   -3.899848   -1.854230
     99          1           0       -1.157813   -7.823868    0.049956
    100          1           0       -2.906642   -7.552468   -0.009682
    101          1           0       -1.894109   -6.737732    1.239068
    102          1           0        4.416385   -5.039922    2.368313
    103          1           0        3.895071   -3.537419    3.345607
    104          1           0        6.128337   -4.022830    1.878656
    105          1           0        4.585448   -0.227975    1.578283
    106          1           0        3.385081   -1.450768    1.643889
    107          1           0        3.975611   -0.931714    0.030093
    108          1           0        6.312735   -1.181403   -0.328986
    109          1           0        7.168030   -2.651415    0.146392
    110          1           0        7.085952   -0.742074    2.408052
    111          1           0        7.123278    0.190882    0.976372
    112          1           0        9.102355   -1.996553    0.670950
    113          1           0        9.219795   -1.408587    2.354737
    114          1           0        9.248227    0.838501    0.636085
    115          1           0       10.623980    0.871537    2.593592
    116          1           0       11.461649    1.152408    1.183673
    117          1           0       11.764831   -0.380283    1.902517
    118          1           0        9.949434   -1.259783   -1.174303
    119          1           0       11.515520   -1.022637   -0.431034
    120          1           0       11.575751    0.572396   -2.050723
    121          1           0       10.589391    1.593670   -1.020656
    122          1           0        9.070393   -0.328182   -2.843620
    123          1           0        9.931418    0.931237   -3.704411
    124          1           0        8.627516    2.080082   -1.407077
    125          1           0        6.281840    1.660251   -2.919833
    126          1           0        6.552165    1.077858   -1.418803
    127          1           0        6.981579   -0.002882   -2.826142
    128          1           0        8.252630    2.550739   -4.298644
    129          1           0        9.470782    3.156611   -3.427901
    130          1           0        6.663191    3.870913   -2.376350
    131          1           0        7.198395    4.771430   -3.674353
    132          1           0        8.518370    6.005231   -2.496315
    133          1           0        9.518521    4.675700   -1.842301
    134          1           0        7.590091    4.190027   -0.354033
    135          1           0        6.228645    6.463426   -1.702492
    136          1           0        6.892757    7.147123   -0.226228
    137          1           0        5.777813    5.906993   -0.127077
    138          1           0        8.706982    5.139168    1.342178
    139          1           0        8.842733    6.652609    0.748035
    140          1           0        9.950615    5.497342    0.102847
 ---------------------------------------------------------------------

 SCF Done:  E(RPBE1PBE) =  -3005.30489947     A.U. after   15 cycles

 Excitation energies and oscillator strengths:

 Excited State   1:      Singlet-A      1.8579 eV  667.33 nm  f=0.3582  <S**2>=0.000
     245 -> 248        0.17319
     246 -> 247        0.69230
     246 <- 247       -0.10950
 This state for optimization and/or second-order correction.
 Total Energy, E(TD-HF/TD-DFT) =  -3005.23662201
 Copying the excited state density for this state as the 1-particle RhoCI density.

 Excited State   2:      Singlet-A      2.2162 eV  559.46 nm  f=0.1029  <S**2>=0.000
     245 -> 247        0.64978
     246 -> 248       -0.26474

 Excited State   3:      Singlet-A      2.8414 eV  436.35 nm  f=0.0038  <S**2>=0.000
     244 -> 247        0.69436

 Excited State   4:      Singlet-A      3.1206 eV  397.31 nm  f=0.0006  <S**2>=0.000
     242 -> 247        0.68001

 Excited State   5:      Singlet-A      3.2109 eV  386.13 nm  f=0.0076  <S**2>=0.000
     239 -> 247        0.47914
     239 -> 249       -0.17364
     241 -> 247       -0.43332
     246 -> 248       -0.17602

 The electronic state is 1-A.
 Alpha  occ. eigenvalues --  -46.93893 -19.25985 -19.25749 -19.20815 -19.20346
 Alpha  occ. eigenvalues --  -19.20161 -19.18840 -14.42024 -14.41888 -14.39063
 Alpha  occ. eigenvalues --  -14.38698 -10.37136 -10.36323 -10.33313 -10.32257
 Alpha  occ. eigenvalues --  -10.29396 -10.29256 -10.29179 -10.28909 -10.28718
 Alpha  occ. eigenvalues --  -10.28647 -10.28073 -10.27801 -10.27679 -10.27316
 Alpha  occ. eigenvalues --  -10.26693 -10.26685 -10.26550 -10.26351 -10.26132
 Alpha  occ. eigenvalues --  -10.25872 -10.25534 -10.24982 -10.24889 -10.24798
 Alpha  occ. eigenvalues --  -10.24764 -10.24662 -10.24494 -10.24423 -10.24387
 Alpha  occ. eigenvalues --  -10.24381 -10.24265 -10.23955 -10.23787 -10.23583
 Alpha  occ. eigenvalues --  -10.23484 -10.23434 -10.23363 -10.22992 -10.22890
 Alpha  occ. eigenvalues --  -10.22870 -10.22815 -10.22768 -10.22749 -10.22690
 Alpha  occ. eigenvalues --  -10.22605 -10.22458 -10.22360 -10.22357 -10.22301
 Alpha  occ. eigenvalues --  -10.22068 -10.21994 -10.21987 -10.21911 -10.21741
 Alpha  occ. eigenvalues --  -10.21560  -3.15723  -1.88519  -1.88089  -1.87949
 Alpha  occ. eigenvalues --   -1.10617  -1.09283  -1.05566  -1.05091  -1.02653
 Alpha  occ. eigenvalues --   -1.02062  -0.98969  -0.97878  -0.97694  -0.96411
 Alpha  occ. eigenvalues --   -0.87226  -0.85203  -0.84590  -0.84231  -0.83521
 Alpha  occ. eigenvalues --   -0.82979  -0.82641  -0.81798  -0.81562  -0.80203
 Alpha  occ. eigenvalues --   -0.79972  -0.79389  -0.78869  -0.78261  -0.77602
 Alpha  occ. eigenvalues --   -0.76948  -0.75839  -0.75275  -0.74998  -0.74179
 Alpha  occ. eigenvalues --   -0.73962  -0.72590  -0.72148  -0.71625  -0.70994
 Alpha  occ. eigenvalues --   -0.69835  -0.69786  -0.69323  -0.69188  -0.68261
 Alpha  occ. eigenvalues --   -0.67630  -0.66695  -0.66313  -0.64807  -0.63536
 Alpha  occ. eigenvalues --   -0.63227  -0.63122  -0.61802  -0.61513  -0.60269
 Alpha  occ. eigenvalues --   -0.59739  -0.59466  -0.59186  -0.58697  -0.58353
 Alpha  occ. eigenvalues --   -0.58175  -0.57447  -0.57030  -0.56695  -0.54458
 Alpha  occ. eigenvalues --   -0.54039  -0.53665  -0.53619  -0.53244  -0.52974
 Alpha  occ. eigenvalues --   -0.52281  -0.51832  -0.51143  -0.50778  -0.50392
 Alpha  occ. eigenvalues --   -0.50153  -0.49569  -0.49065  -0.48879  -0.48687
 Alpha  occ. eigenvalues --   -0.48306  -0.47861  -0.47612  -0.47419  -0.47280
 Alpha  occ. eigenvalues --   -0.47212  -0.46758  -0.46566  -0.46298  -0.45963
 Alpha  occ. eigenvalues --   -0.45890  -0.45844  -0.45402  -0.45287  -0.45069
 Alpha  occ. eigenvalues --   -0.45032  -0.44678  -0.44531  -0.44383  -0.44305
 Alpha  occ. eigenvalues --   -0.44180  -0.44041  -0.43835  -0.43473  -0.43177
 Alpha  occ. eigenvalues --   -0.43139  -0.43010  -0.42845  -0.42553  -0.42429
 Alpha  occ. eigenvalues --   -0.42228  -0.41974  -0.41824  -0.41758  -0.41334
 Alpha  occ. eigenvalues --   -0.41134  -0.40982  -0.40780  -0.40636  -0.40350
 Alpha  occ. eigenvalues --   -0.40251  -0.40106  -0.39897  -0.39384  -0.39269
 Alpha  occ. eigenvalues --   -0.39104  -0.39026  -0.38849  -0.38745  -0.38523
 Alpha  occ. eigenvalues --   -0.38444  -0.38300  -0.38038  -0.37779  -0.37642
 Alpha  occ. eigenvalues --   -0.37589  -0.37543  -0.37311  -0.37274  -0.36997
 Alpha  occ. eigenvalues --   -0.36962  -0.36898  -0.36449  -0.36406  -0.36178
 Alpha  occ. eigenvalues --   -0.35920  -0.35778  -0.35445  -0.35244  -0.35072
 Alpha  occ. eigenvalues --   -0.34555  -0.34297  -0.34064  -0.33748  -0.33618
 Alpha  occ. eigenvalues --   -0.33512  -0.33427  -0.33005  -0.32349  -0.32283
 Alpha  occ. eigenvalues --   -0.32245  -0.31777  -0.31677  -0.31550  -0.31487
 Alpha  occ. eigenvalues --   -0.31062  -0.30421  -0.29700  -0.29648  -0.29539
 Alpha  occ. eigenvalues --   -0.29364  -0.29273  -0.28874  -0.26756  -0.26685
 Alpha  occ. eigenvalues --   -0.25961  -0.25501  -0.25037  -0.24511  -0.21043
 Alpha  occ. eigenvalues --   -0.18816
 Alpha virt. eigenvalues --   -0.11237  -0.05262  -0.04238  -0.02520  -0.01936
 Alpha virt. eigenvalues --   -0.00540   0.00273   0.00727   0.01031   0.02787
 Alpha virt. eigenvalues --    0.03650   0.03889   0.04698   0.04877   0.05194

 Mulliken charges:
               1
     1  Mg   0.955579
     2  C   -0.047065
     3  C   -0.097008
     4  C   -0.073637
     5  C   -0.064634
     6  N   -0.373085
     7  C    0.051066
     8  C   -0.122396
     9  C   -0.127257
    10  C    0.057772
    11  C    0.046491
    12  C    0.017175
    13  C   -0.001227
    14  C    0.201333
    15  O   -0.279343
    16  O   -0.365776
    17  N   -0.504672
    18  C    0.227774
    19  C   -0.195913
    20  C   -0.058558
    21  C    0.143453
    22  C    0.063182
    23  C    0.055944
    24  O   -0.221719
    25  C   -0.043364
    26  N   -0.401590
    27  C    0.079081
    28  C   -0.109372
    29  C   -0.077176
    30  C    0.093773
    31  C    0.022534
    32  C   -0.058883
    33  C   -0.082567
    34  N   -0.409121
    35  C    0.085173
    36  C   -0.167349
    37  C   -0.058668
    38  C    0.162504
    39  C    0.028559
    40  C    0.181259
    41  O   -0.211055
    42  C   -0.061703
    43  C    0.297845
    44  O   -0.253861
    45  O   -0.411003
    46  C    0.116524
    47  C    0.249025
    48  C   -0.175748
    49  C   -0.205903
    50  C    0.041279
    51  C    0.008138
    52  C   -0.060900
    53  C    0.037525
    54  C   -0.222634
    55  C   -0.008719
    56  C   -0.008068
    57  C   -0.076623
    58  C    0.036689
    59  C   -0.221438
    60  C    0.003674
    61  C   -0.019308
    62  C   -0.007463
    63  C   -0.049628
    64  C   -0.219502
    65  C   -0.028268
    66  C   -0.015801
    67  H    0.014450
    68  H   -0.036039
    69  H    0.001525
    70  H    0.062167
    71  H    0.043351
    72  H    0.044193
    73  H    0.038853
    74  H    0.041881
    75  H    0.045680
    76  H    0.050263
    77  H    0.056117
    78  H    0.050039
    79  H    0.069500
    80  H    0.033594
    81  H    0.059797
    82  H    0.053423
    83  H    0.067335
    84  H    0.051495
    85  H    0.062056
    86  H    0.048142
    87  H    0.045387
    88  H    0.050660
    89  H    0.051827
    90  H    0.049562
    91  H    0.050887
    92  H    0.041818
    93  H    0.050835
    94  H    0.043033
    95  H    0.054974
    96  H    0.049838
    97  H    0.067191
    98  H    0.072883
    99  H    0.065414
   100  H    0.078007
   101  H    0.057352
   102  H    0.039839
   103  H    0.075862
   104  H    0.022855
   105  H    0.043539
   106  H    0.030440
   107  H    0.064014
   108  H    0.024278
   109  H    0.041029
   110  H    0.038556
   111  H    0.030764
   112  H    0.024111
   113  H    0.028287
   114  H    0.038173
   115  H    0.032601
   116  H    0.009308
   117  H    0.040398
   118  H    0.020750
   119  H    0.036572
   120  H    0.020307
   121  H    0.039525
   122  H    0.020223
   123  H    0.027868
   124  H    0.036492
   125  H    0.024478
   126  H    0.027273
   127  H    0.050163
   128  H    0.009199
   129  H    0.019207
   130  H    0.027145
   131  H    0.025448
   132  H    0.029299
   133  H    0.032234
   134  H    0.033740
   135  H    0.039882
   136  H    0.030119
   137  H    0.029915
   138  H    0.026692
   139  H    0.021693
   140  H    0.034882
 Sum of Mulliken charges =  -0.00000

 Dipole moment (field-independent basis, Debye):
    X=              0.7363    Y=              2.1495    Z=             -2.3599  Tot=              3.2759
 Quadrupole moment (field-independent basis, Debye-Ang):
   XX=           -360.2800   YY=           -415.2891   ZZ=           -422.1405
   XY=            -23.6340   XZ=             18.6398   YZ=            -34.4495

 Normal termination of Gaussian 16 at Thu Apr 28 22:19:45 2022.
