 Gaussian 16, Revision A.03,
 Gaussian 16:  ES64L-G16RevA.03 25-Dec-2016

 --------------------------------
 #p wB97XD/Def2SVP td=(nstates=5)
 --------------------------------

 -----------------------------------------------------
 step_1751_chromophore_23 TDDFT with wB97XD functional
 -----------------------------------------------------
 Symbolic Z-matrix:
 Charge =  0 Multiplicity = 1

                         Standard orientation:
 ---------------------------------------------------------------------
 Center     Atomic      Atomic             Coordinates (Angstroms)
 Number     Number       Type             X           Y           Z
 ---------------------------------------------------------------------
      1         12           0       -4.750777    0.146068    0.353169
      2          6           0       -2.912986   -2.609066   -0.863094
      3          6           0       -2.644584    0.300002    3.030718
      4          6           0       -6.028060    3.225421    1.094771
      5          6           0       -6.164112    0.415402   -2.926375
      6          7           0       -2.895874   -0.969778    0.889477
      7          6           0       -2.492410   -2.141879    0.373914
      8          6           0       -1.436341   -2.822447    1.204242
      9          6           0       -1.585106   -2.057355    2.586619
     10          6           0       -2.394568   -0.771252    2.147855
     11          6           0       -2.008851   -2.914655    3.748156
     12          6           0        0.006102   -2.817300    0.611733
     13          6           0        0.709126   -4.136700    0.807935
     14          6           0        1.724416   -4.204807    1.952749
     15          8           0        1.447140   -4.403717    3.132826
     16          8           0        2.974235   -4.049712    1.413488
     17          7           0       -4.441870    1.523621    1.883486
     18          6           0       -3.525930    1.348604    2.903970
     19          6           0       -3.738037    2.404194    3.823475
     20          6           0       -4.787370    3.254071    3.326269
     21          6           0       -5.045871    2.737801    2.072125
     22          6           0       -2.899617    2.622049    5.070700
     23          6           0       -5.346315    4.486171    4.033800
     24          8           0       -4.914012    4.980997    5.045906
     25          6           0       -6.553599    5.289897    3.504353
     26          7           0       -5.842247    1.626689   -0.805129
     27          6           0       -6.342485    2.808730   -0.230362
     28          6           0       -7.164426    3.667543   -1.246362
     29          6           0       -7.241126    2.702585   -2.468670
     30          6           0       -6.394261    1.535226   -2.083665
     31          6           0       -8.568775    4.100280   -0.715004
     32          6           0       -6.710302    3.340872   -3.800155
     33          6           0       -7.239636    4.775569   -4.164397
     34          7           0       -4.637292   -0.851513   -1.638487
     35          6           0       -5.263885   -0.636157   -2.796053
     36          6           0       -4.920634   -1.802471   -3.748715
     37          6           0       -4.055056   -2.623161   -2.991334
     38          6           0       -3.890275   -2.010853   -1.718025
     39          6           0       -5.313218   -1.898379   -5.309132
     40          6           0       -3.229567   -3.877034   -2.976321
     41          8           0       -3.135710   -4.821059   -3.756601
     42          6           0       -2.425851   -3.863276   -1.688585
     43          6           0       -2.835954   -5.076266   -0.963937
     44          8           0       -3.994179   -5.306931   -0.606794
     45          8           0       -1.692819   -5.872144   -0.642299
     46          6           0       -1.945237   -7.085673    0.207481
     47          6           0        4.095208   -3.997883    2.377317
     48          6           0        5.281442   -3.337411    1.842481
     49          6           0        5.338006   -2.154132    1.228165
     50          6           0        4.251877   -1.129537    1.064899
     51          6           0        6.636689   -1.777605    0.523281
     52          6           0        7.404975   -0.787308    1.365906
     53          6           0        8.955278   -1.141955    1.331298
     54          6           0        9.843836   -0.068456    0.738426
     55          6           0       10.966406    0.335494    1.708409
     56          6           0       10.546172   -0.553402   -0.597377
     57          6           0       10.592707    0.664765   -1.591003
     58          6           0        9.502349    0.666974   -2.737634
     59          6           0        8.386454    1.675963   -2.389127
     60          6           0        6.991626    1.005671   -2.413566
     61          6           0        8.428880    2.875909   -3.273139
     62          6           0        7.584316    4.093434   -2.913825
     63          6           0        8.501218    5.023482   -2.021709
     64          6           0        7.874135    5.203682   -0.638023
     65          6           0        6.637307    6.211924   -0.724066
     66          6           0        8.906476    5.626405    0.387675
     67          1           0       -1.958515    0.274529    3.879200
     68          1           0       -6.627985    4.054019    1.476480
     69          1           0       -6.669253    0.370252   -3.893193
     70          1           0       -1.687023   -3.882929    1.256709
     71          1           0       -0.609951   -1.668513    2.877351
     72          1           0       -1.330588   -2.958321    4.601002
     73          1           0       -2.002329   -3.949500    3.407058
     74          1           0       -2.951128   -2.506610    4.112918
     75          1           0        0.598675   -2.118987    1.203711
     76          1           0        0.210848   -2.563248   -0.428573
     77          1           0        1.091143   -4.430831   -0.168820
     78          1           0        0.013804   -4.886888    1.184912
     79          1           0       -2.070455    3.327548    5.033678
     80          1           0       -2.613065    1.609737    5.357384
     81          1           0       -3.647905    3.034420    5.748909
     82          1           0       -7.443693    4.715249    3.247651
     83          1           0       -6.253495    5.844076    2.614306
     84          1           0       -6.932813    5.953048    4.280799
     85          1           0       -6.520099    4.502940   -1.520423
     86          1           0       -8.207171    2.224622   -2.632779
     87          1           0       -8.657155    5.113373   -1.108403
     88          1           0       -8.564584    4.214173    0.368681
     89          1           0       -9.334370    3.428941   -1.102824
     90          1           0       -7.035505    2.817473   -4.699944
     91          1           0       -5.638180    3.501637   -3.686895
     92          1           0       -8.152360    5.006182   -3.614835
     93          1           0       -7.430721    4.938061   -5.224599
     94          1           0       -6.396829    5.392837   -3.851494
     95          1           0       -6.382626   -2.072323   -5.429170
     96          1           0       -4.894288   -2.822029   -5.709230
     97          1           0       -4.888046   -1.146350   -5.973743
     98          1           0       -1.349374   -3.899848   -1.854230
     99          1           0       -1.157813   -7.823868    0.049956
    100          1           0       -2.906642   -7.552468   -0.009682
    101          1           0       -1.894109   -6.737732    1.239068
    102          1           0        4.416385   -5.039922    2.368313
    103          1           0        3.895071   -3.537419    3.345607
    104          1           0        6.128337   -4.022830    1.878656
    105          1           0        4.585448   -0.227975    1.578283
    106          1           0        3.385081   -1.450768    1.643889
    107          1           0        3.975611   -0.931714    0.030093
    108          1           0        6.312735   -1.181403   -0.328986
    109          1           0        7.168030   -2.651415    0.146392
    110          1           0        7.085952   -0.742074    2.408052
    111          1           0        7.123278    0.190882    0.976372
    112          1           0        9.102355   -1.996553    0.670950
    113          1           0        9.219795   -1.408587    2.354737
    114          1           0        9.248227    0.838501    0.636085
    115          1           0       10.623980    0.871537    2.593592
    116          1           0       11.461649    1.152408    1.183673
    117          1           0       11.764831   -0.380283    1.902517
    118          1           0        9.949434   -1.259783   -1.174303
    119          1           0       11.515520   -1.022637   -0.431034
    120          1           0       11.575751    0.572396   -2.050723
    121          1           0       10.589391    1.593670   -1.020656
    122          1           0        9.070393   -0.328182   -2.843620
    123          1           0        9.931418    0.931237   -3.704411
    124          1           0        8.627516    2.080082   -1.407077
    125          1           0        6.281840    1.660251   -2.919833
    126          1           0        6.552165    1.077858   -1.418803
    127          1           0        6.981579   -0.002882   -2.826142
    128          1           0        8.252630    2.550739   -4.298644
    129          1           0        9.470782    3.156611   -3.427901
    130          1           0        6.663191    3.870913   -2.376350
    131          1           0        7.198395    4.771430   -3.674353
    132          1           0        8.518370    6.005231   -2.496315
    133          1           0        9.518521    4.675700   -1.842301
    134          1           0        7.590091    4.190027   -0.354033
    135          1           0        6.228645    6.463426   -1.702492
    136          1           0        6.892757    7.147123   -0.226228
    137          1           0        5.777813    5.906993   -0.127077
    138          1           0        8.706982    5.139168    1.342178
    139          1           0        8.842733    6.652609    0.748035
    140          1           0        9.950615    5.497342    0.102847
 ---------------------------------------------------------------------

 SCF Done:  E(RwB97XD) =  -3007.81932714     A.U. after   17 cycles

 Excitation energies and oscillator strengths:

 Excited State   1:      Singlet-A      1.6627 eV  745.68 nm  f=0.3684  <S**2>=0.000
     245 -> 248        0.18523
     246 -> 247        0.68298
     245 <- 248        0.11639
 This state for optimization and/or second-order correction.
 Total Energy, E(TD-HF/TD-DFT) =  -3007.75822419
 Copying the excited state density for this state as the 1-particle RhoCI density.

 Excited State   2:      Singlet-A      2.1654 eV  572.56 nm  f=0.1054  <S**2>=0.000
     245 -> 247        0.63658
     246 -> 248       -0.29213

 Excited State   3:      Singlet-A      3.2883 eV  377.05 nm  f=0.0030  <S**2>=0.000
     241 -> 247       -0.10299
     242 -> 247        0.17244
     244 -> 247        0.65347
     244 -> 249        0.11138

 Excited State   4:      Singlet-A      3.4894 eV  355.32 nm  f=0.3040  <S**2>=0.000
     240 -> 247        0.12042
     241 -> 247        0.40007
     242 -> 247       -0.18329
     245 -> 247        0.17100
     246 -> 248        0.48167

 Excited State   5:      Singlet-A      3.6426 eV  340.38 nm  f=0.1004  <S**2>=0.000
     239 -> 247        0.51189
     239 -> 249       -0.39131
     246 -> 248        0.18630

 The electronic state is 1-A.
 Alpha  occ. eigenvalues --  -46.96813 -19.30688 -19.30320 -19.25710 -19.25311
 Alpha  occ. eigenvalues --  -19.25036 -19.23393 -14.47183 -14.46848 -14.44107
 Alpha  occ. eigenvalues --  -14.43448 -10.44135 -10.43137 -10.40449 -10.38835
 Alpha  occ. eigenvalues --  -10.36025 -10.35747 -10.35321 -10.35200 -10.35167
 Alpha  occ. eigenvalues --  -10.34940 -10.34718 -10.34568 -10.33894 -10.33787
 Alpha  occ. eigenvalues --  -10.33312 -10.33030 -10.32860 -10.32375 -10.32304
 Alpha  occ. eigenvalues --  -10.32167 -10.31708 -10.31283 -10.31177 -10.31173
 Alpha  occ. eigenvalues --  -10.31133 -10.31123 -10.31067 -10.30846 -10.30743
 Alpha  occ. eigenvalues --  -10.30717 -10.30645 -10.30413 -10.29946 -10.29844
 Alpha  occ. eigenvalues --  -10.29833 -10.29815 -10.29641 -10.29287 -10.29237
 Alpha  occ. eigenvalues --  -10.29235 -10.29145 -10.29119 -10.29103 -10.29031
 Alpha  occ. eigenvalues --  -10.28972 -10.28840 -10.28748 -10.28704 -10.28602
 Alpha  occ. eigenvalues --  -10.28444 -10.28420 -10.28321 -10.28293 -10.28175
 Alpha  occ. eigenvalues --  -10.27963  -3.22556  -1.96092  -1.95660  -1.95517
 Alpha  occ. eigenvalues --   -1.18018  -1.16880  -1.12880  -1.12787  -1.10015
 Alpha  occ. eigenvalues --   -1.09605  -1.06407  -1.05381  -1.04854  -1.03789
 Alpha  occ. eigenvalues --   -0.95059  -0.92877  -0.92255  -0.91890  -0.91094
 Alpha  occ. eigenvalues --   -0.90640  -0.90151  -0.89442  -0.89174  -0.87812
 Alpha  occ. eigenvalues --   -0.87356  -0.87151  -0.86567  -0.85946  -0.85230
 Alpha  occ. eigenvalues --   -0.84605  -0.83535  -0.82931  -0.82616  -0.81805
 Alpha  occ. eigenvalues --   -0.81630  -0.80215  -0.79877  -0.79160  -0.78713
 Alpha  occ. eigenvalues --   -0.77513  -0.77468  -0.77013  -0.76741  -0.75909
 Alpha  occ. eigenvalues --   -0.75230  -0.74313  -0.73809  -0.72436  -0.71124
 Alpha  occ. eigenvalues --   -0.70824  -0.70766  -0.69234  -0.69148  -0.67725
 Alpha  occ. eigenvalues --   -0.67267  -0.67083  -0.66653  -0.66096  -0.65905
 Alpha  occ. eigenvalues --   -0.65808  -0.65091  -0.64649  -0.64291  -0.61916
 Alpha  occ. eigenvalues --   -0.61459  -0.61191  -0.61007  -0.60678  -0.60617
 Alpha  occ. eigenvalues --   -0.59681  -0.59341  -0.58657  -0.58131  -0.57805
 Alpha  occ. eigenvalues --   -0.57489  -0.56973  -0.56544  -0.56324  -0.56172
 Alpha  occ. eigenvalues --   -0.55735  -0.55262  -0.55056  -0.54818  -0.54669
 Alpha  occ. eigenvalues --   -0.54615  -0.54037  -0.53784  -0.53664  -0.53364
 Alpha  occ. eigenvalues --   -0.53293  -0.53203  -0.52898  -0.52678  -0.52377
 Alpha  occ. eigenvalues --   -0.52276  -0.52023  -0.51939  -0.51746  -0.51652
 Alpha  occ. eigenvalues --   -0.51539  -0.51435  -0.51156  -0.50664  -0.50441
 Alpha  occ. eigenvalues --   -0.50339  -0.50290  -0.50142  -0.49827  -0.49664
 Alpha  occ. eigenvalues --   -0.49550  -0.49195  -0.49067  -0.49034  -0.48743
 Alpha  occ. eigenvalues --   -0.48291  -0.48185  -0.48029  -0.47855  -0.47460
 Alpha  occ. eigenvalues --   -0.47356  -0.47277  -0.47011  -0.46619  -0.46531
 Alpha  occ. eigenvalues --   -0.46434  -0.46257  -0.46048  -0.45845  -0.45673
 Alpha  occ. eigenvalues --   -0.45601  -0.45472  -0.45258  -0.44956  -0.44782
 Alpha  occ. eigenvalues --   -0.44735  -0.44558  -0.44531  -0.44327  -0.44129
 Alpha  occ. eigenvalues --   -0.43997  -0.43922  -0.43568  -0.43348  -0.43338
 Alpha  occ. eigenvalues --   -0.42898  -0.42843  -0.42514  -0.42320  -0.42006
 Alpha  occ. eigenvalues --   -0.41531  -0.41399  -0.41126  -0.40768  -0.40626
 Alpha  occ. eigenvalues --   -0.40494  -0.40456  -0.40068  -0.39329  -0.39244
 Alpha  occ. eigenvalues --   -0.39171  -0.38839  -0.38694  -0.38585  -0.38534
 Alpha  occ. eigenvalues --   -0.38032  -0.37370  -0.36999  -0.36604  -0.36420
 Alpha  occ. eigenvalues --   -0.36206  -0.36033  -0.35907  -0.34169  -0.33296
 Alpha  occ. eigenvalues --   -0.32666  -0.32332  -0.31774  -0.30935  -0.26053
 Alpha  occ. eigenvalues --   -0.22990
 Alpha virt. eigenvalues --   -0.07086   0.00170   0.01962   0.03734   0.04558
 Alpha virt. eigenvalues --    0.06103   0.07047   0.07406   0.07803   0.09471
 Alpha virt. eigenvalues --    0.10177   0.10691   0.11337   0.11606   0.11792

 Mulliken charges:
               1
     1  Mg   0.950465
     2  C   -0.045345
     3  C   -0.108142
     4  C   -0.076416
     5  C   -0.083073
     6  N   -0.335651
     7  C    0.018738
     8  C   -0.084237
     9  C   -0.099903
    10  C    0.034260
    11  C    0.057185
    12  C    0.024477
    13  C    0.023915
    14  C    0.187953
    15  O   -0.275447
    16  O   -0.364837
    17  N   -0.473110
    18  C    0.217161
    19  C   -0.189498
    20  C   -0.055913
    21  C    0.137774
    22  C    0.076791
    23  C    0.048803
    24  O   -0.218556
    25  C   -0.024993
    26  N   -0.376719
    27  C    0.066366
    28  C   -0.081846
    29  C   -0.055055
    30  C    0.087026
    31  C    0.034485
    32  C   -0.044245
    33  C   -0.066040
    34  N   -0.374876
    35  C    0.078803
    36  C   -0.169323
    37  C   -0.049655
    38  C    0.141414
    39  C    0.041464
    40  C    0.164818
    41  O   -0.199789
    42  C   -0.020246
    43  C    0.275114
    44  O   -0.249302
    45  O   -0.409184
    46  C    0.130939
    47  C    0.261234
    48  C   -0.188472
    49  C   -0.190459
    50  C    0.058294
    51  C    0.037657
    52  C   -0.047007
    53  C    0.052757
    54  C   -0.188263
    55  C    0.002701
    56  C    0.007451
    57  C   -0.054324
    58  C    0.047513
    59  C   -0.181152
    60  C    0.017579
    61  C    0.003701
    62  C    0.004383
    63  C   -0.032572
    64  C   -0.184202
    65  C   -0.018140
    66  C   -0.005581
    67  H    0.009435
    68  H   -0.058595
    69  H   -0.004994
    70  H    0.035448
    71  H    0.031816
    72  H    0.040316
    73  H    0.032114
    74  H    0.035114
    75  H    0.034419
    76  H    0.044442
    77  H    0.052614
    78  H    0.035159
    79  H    0.065173
    80  H    0.025569
    81  H    0.052929
    82  H    0.046454
    83  H    0.061011
    84  H    0.049177
    85  H    0.051014
    86  H    0.038339
    87  H    0.038881
    88  H    0.045249
    89  H    0.046549
    90  H    0.041831
    91  H    0.042759
    92  H    0.032890
    93  H    0.046418
    94  H    0.036752
    95  H    0.051268
    96  H    0.046076
    97  H    0.064243
    98  H    0.066700
    99  H    0.062781
   100  H    0.074831
   101  H    0.054039
   102  H    0.036327
   103  H    0.072602
   104  H    0.020556
   105  H    0.037973
   106  H    0.020364
   107  H    0.059867
   108  H    0.005432
   109  H    0.033908
   110  H    0.030080
   111  H    0.019072
   112  H    0.011541
   113  H    0.022093
   114  H    0.020963
   115  H    0.027471
   116  H    0.000420
   117  H    0.034842
   118  H    0.007878
   119  H    0.030170
   120  H    0.013456
   121  H    0.025875
   122  H    0.009888
   123  H    0.020889
   124  H    0.009736
   125  H    0.017685
   126  H    0.017783
   127  H    0.045623
   128  H   -0.000448
   129  H    0.007240
   130  H    0.015318
   131  H    0.019858
   132  H    0.020282
   133  H    0.020173
   134  H    0.019417
   135  H    0.034256
   136  H    0.023314
   137  H    0.024522
   138  H    0.021175
   139  H    0.014978
   140  H    0.029551
 Sum of Mulliken charges =  -0.00000

 Dipole moment (field-independent basis, Debye):
    X=              0.7311    Y=              1.6536    Z=             -2.8283  Tot=              3.3568
 Quadrupole moment (field-independent basis, Debye-Ang):
   XX=           -360.2264   YY=           -414.4285   ZZ=           -421.8118
   XY=            -21.7609   XZ=             20.3902   YZ=            -34.1508

 Normal termination of Gaussian 16 at Thu Apr 28 22:52:27 2022.
