 Gaussian 16, Revision A.03,
 Gaussian 16:  ES64L-G16RevA.03 25-Dec-2016

 --------------------
 #p ZINDO=(nstates=5)
 --------------------

 ------------------------------
 step_1751_chromophore_23 ZINDO
 ------------------------------
 Symbolic Z-matrix:
 Charge =  0 Multiplicity = 1

                         Standard orientation:
 ---------------------------------------------------------------------
 Center     Atomic      Atomic             Coordinates (Angstroms)
 Number     Number       Type             X           Y           Z
 ---------------------------------------------------------------------
      1         12           0       -4.750777    0.146068    0.353169
      2          6           0       -2.912986   -2.609066   -0.863094
      3          6           0       -2.644584    0.300002    3.030718
      4          6           0       -6.028060    3.225421    1.094771
      5          6           0       -6.164112    0.415402   -2.926375
      6          7           0       -2.895874   -0.969778    0.889477
      7          6           0       -2.492410   -2.141879    0.373914
      8          6           0       -1.436341   -2.822447    1.204242
      9          6           0       -1.585106   -2.057355    2.586619
     10          6           0       -2.394568   -0.771252    2.147855
     11          6           0       -2.008851   -2.914655    3.748156
     12          6           0        0.006102   -2.817300    0.611733
     13          6           0        0.709126   -4.136700    0.807935
     14          6           0        1.724416   -4.204807    1.952749
     15          8           0        1.447140   -4.403717    3.132826
     16          8           0        2.974235   -4.049712    1.413488
     17          7           0       -4.441870    1.523621    1.883486
     18          6           0       -3.525930    1.348604    2.903970
     19          6           0       -3.738037    2.404194    3.823475
     20          6           0       -4.787370    3.254071    3.326269
     21          6           0       -5.045871    2.737801    2.072125
     22          6           0       -2.899617    2.622049    5.070700
     23          6           0       -5.346315    4.486171    4.033800
     24          8           0       -4.914012    4.980997    5.045906
     25          6           0       -6.553599    5.289897    3.504353
     26          7           0       -5.842247    1.626689   -0.805129
     27          6           0       -6.342485    2.808730   -0.230362
     28          6           0       -7.164426    3.667543   -1.246362
     29          6           0       -7.241126    2.702585   -2.468670
     30          6           0       -6.394261    1.535226   -2.083665
     31          6           0       -8.568775    4.100280   -0.715004
     32          6           0       -6.710302    3.340872   -3.800155
     33          6           0       -7.239636    4.775569   -4.164397
     34          7           0       -4.637292   -0.851513   -1.638487
     35          6           0       -5.263885   -0.636157   -2.796053
     36          6           0       -4.920634   -1.802471   -3.748715
     37          6           0       -4.055056   -2.623161   -2.991334
     38          6           0       -3.890275   -2.010853   -1.718025
     39          6           0       -5.313218   -1.898379   -5.309132
     40          6           0       -3.229567   -3.877034   -2.976321
     41          8           0       -3.135710   -4.821059   -3.756601
     42          6           0       -2.425851   -3.863276   -1.688585
     43          6           0       -2.835954   -5.076266   -0.963937
     44          8           0       -3.994179   -5.306931   -0.606794
     45          8           0       -1.692819   -5.872144   -0.642299
     46          6           0       -1.945237   -7.085673    0.207481
     47          6           0        4.095208   -3.997883    2.377317
     48          6           0        5.281442   -3.337411    1.842481
     49          6           0        5.338006   -2.154132    1.228165
     50          6           0        4.251877   -1.129537    1.064899
     51          6           0        6.636689   -1.777605    0.523281
     52          6           0        7.404975   -0.787308    1.365906
     53          6           0        8.955278   -1.141955    1.331298
     54          6           0        9.843836   -0.068456    0.738426
     55          6           0       10.966406    0.335494    1.708409
     56          6           0       10.546172   -0.553402   -0.597377
     57          6           0       10.592707    0.664765   -1.591003
     58          6           0        9.502349    0.666974   -2.737634
     59          6           0        8.386454    1.675963   -2.389127
     60          6           0        6.991626    1.005671   -2.413566
     61          6           0        8.428880    2.875909   -3.273139
     62          6           0        7.584316    4.093434   -2.913825
     63          6           0        8.501218    5.023482   -2.021709
     64          6           0        7.874135    5.203682   -0.638023
     65          6           0        6.637307    6.211924   -0.724066
     66          6           0        8.906476    5.626405    0.387675
     67          1           0       -1.958515    0.274529    3.879200
     68          1           0       -6.627985    4.054019    1.476480
     69          1           0       -6.669253    0.370252   -3.893193
     70          1           0       -1.687023   -3.882929    1.256709
     71          1           0       -0.609951   -1.668513    2.877351
     72          1           0       -1.330588   -2.958321    4.601002
     73          1           0       -2.002329   -3.949500    3.407058
     74          1           0       -2.951128   -2.506610    4.112918
     75          1           0        0.598675   -2.118987    1.203711
     76          1           0        0.210848   -2.563248   -0.428573
     77          1           0        1.091143   -4.430831   -0.168820
     78          1           0        0.013804   -4.886888    1.184912
     79          1           0       -2.070455    3.327548    5.033678
     80          1           0       -2.613065    1.609737    5.357384
     81          1           0       -3.647905    3.034420    5.748909
     82          1           0       -7.443693    4.715249    3.247651
     83          1           0       -6.253495    5.844076    2.614306
     84          1           0       -6.932813    5.953048    4.280799
     85          1           0       -6.520099    4.502940   -1.520423
     86          1           0       -8.207171    2.224622   -2.632779
     87          1           0       -8.657155    5.113373   -1.108403
     88          1           0       -8.564584    4.214173    0.368681
     89          1           0       -9.334370    3.428941   -1.102824
     90          1           0       -7.035505    2.817473   -4.699944
     91          1           0       -5.638180    3.501637   -3.686895
     92          1           0       -8.152360    5.006182   -3.614835
     93          1           0       -7.430721    4.938061   -5.224599
     94          1           0       -6.396829    5.392837   -3.851494
     95          1           0       -6.382626   -2.072323   -5.429170
     96          1           0       -4.894288   -2.822029   -5.709230
     97          1           0       -4.888046   -1.146350   -5.973743
     98          1           0       -1.349374   -3.899848   -1.854230
     99          1           0       -1.157813   -7.823868    0.049956
    100          1           0       -2.906642   -7.552468   -0.009682
    101          1           0       -1.894109   -6.737732    1.239068
    102          1           0        4.416385   -5.039922    2.368313
    103          1           0        3.895071   -3.537419    3.345607
    104          1           0        6.128337   -4.022830    1.878656
    105          1           0        4.585448   -0.227975    1.578283
    106          1           0        3.385081   -1.450768    1.643889
    107          1           0        3.975611   -0.931714    0.030093
    108          1           0        6.312735   -1.181403   -0.328986
    109          1           0        7.168030   -2.651415    0.146392
    110          1           0        7.085952   -0.742074    2.408052
    111          1           0        7.123278    0.190882    0.976372
    112          1           0        9.102355   -1.996553    0.670950
    113          1           0        9.219795   -1.408587    2.354737
    114          1           0        9.248227    0.838501    0.636085
    115          1           0       10.623980    0.871537    2.593592
    116          1           0       11.461649    1.152408    1.183673
    117          1           0       11.764831   -0.380283    1.902517
    118          1           0        9.949434   -1.259783   -1.174303
    119          1           0       11.515520   -1.022637   -0.431034
    120          1           0       11.575751    0.572396   -2.050723
    121          1           0       10.589391    1.593670   -1.020656
    122          1           0        9.070393   -0.328182   -2.843620
    123          1           0        9.931418    0.931237   -3.704411
    124          1           0        8.627516    2.080082   -1.407077
    125          1           0        6.281840    1.660251   -2.919833
    126          1           0        6.552165    1.077858   -1.418803
    127          1           0        6.981579   -0.002882   -2.826142
    128          1           0        8.252630    2.550739   -4.298644
    129          1           0        9.470782    3.156611   -3.427901
    130          1           0        6.663191    3.870913   -2.376350
    131          1           0        7.198395    4.771430   -3.674353
    132          1           0        8.518370    6.005231   -2.496315
    133          1           0        9.518521    4.675700   -1.842301
    134          1           0        7.590091    4.190027   -0.354033
    135          1           0        6.228645    6.463426   -1.702492
    136          1           0        6.892757    7.147123   -0.226228
    137          1           0        5.777813    5.906993   -0.127077
    138          1           0        8.706982    5.139168    1.342178
    139          1           0        8.842733    6.652609    0.748035
    140          1           0        9.950615    5.497342    0.102847
 ---------------------------------------------------------------------

 SCF Done:  E(RZINDO/S) =  -474.066187416     A.U. after   19 cycles

 Excitation energies and oscillator strengths:

 Excited State   1:      Singlet-A      1.2666 eV  978.88 nm  f=0.5670  <S**2>=0.000
     175 ->178        -0.17878
     176 ->177         0.66583
 This state for optimization and/or second-order correction.
 Total Energy, E(CIS/TDA) =  -474.019641125
 Copying the excited state density for this state as the 1-particle RhoCI density.

 Excited State   2:      Singlet-A      1.9232 eV  644.67 nm  f=0.0348  <S**2>=0.000
     175 ->177         0.54312
     176 ->178         0.41797

 Excited State   3:      Singlet-A      2.7713 eV  447.38 nm  f=0.0178  <S**2>=0.000
     176 ->178         0.13240
     176 ->180         0.68231

 Excited State   4:      Singlet-A      2.9503 eV  420.24 nm  f=0.5247  <S**2>=0.000
     167 ->179         0.10354
     168 ->177        -0.14638
     168 ->179         0.18820
     175 ->177        -0.26902
     176 ->178         0.40211
     176 ->179         0.33242

 Excited State   5:      Singlet-A      2.9945 eV  414.04 nm  f=0.0022  <S**2>=0.000
     170 ->177         0.17812
     170 ->179         0.17280
     170 ->181        -0.35680
     170 ->182         0.21999
     170 ->183        -0.11354
     170 ->185        -0.24003
     170 ->188        -0.22168
     171 ->181        -0.13064
     174 ->177         0.11643

 The electronic state is 1-A.
 Alpha  occ. eigenvalues --   -1.82831  -1.80621  -1.78587  -1.73102  -1.71186
 Alpha  occ. eigenvalues --   -1.69764  -1.67461  -1.61902  -1.59374  -1.58445
 Alpha  occ. eigenvalues --   -1.56237  -1.52665  -1.50220  -1.48021  -1.46858
 Alpha  occ. eigenvalues --   -1.44795  -1.43132  -1.39205  -1.38013  -1.37668
 Alpha  occ. eigenvalues --   -1.35276  -1.32943  -1.31738  -1.29829  -1.27795
 Alpha  occ. eigenvalues --   -1.26937  -1.26274  -1.23770  -1.22016  -1.18458
 Alpha  occ. eigenvalues --   -1.17384  -1.16639  -1.15087  -1.14318  -1.13992
 Alpha  occ. eigenvalues --   -1.13317  -1.09790  -1.09518  -1.04895  -1.04466
 Alpha  occ. eigenvalues --   -1.03536  -1.01116  -0.99293  -0.98198  -0.97494
 Alpha  occ. eigenvalues --   -0.95677  -0.95415  -0.93434  -0.92522  -0.92368
 Alpha  occ. eigenvalues --   -0.90543  -0.90389  -0.89403  -0.88171  -0.86985
 Alpha  occ. eigenvalues --   -0.86688  -0.84665  -0.83195  -0.82258  -0.80671
 Alpha  occ. eigenvalues --   -0.79542  -0.79168  -0.78462  -0.77143  -0.77112
 Alpha  occ. eigenvalues --   -0.75877  -0.75713  -0.75180  -0.74994  -0.74695
 Alpha  occ. eigenvalues --   -0.73840  -0.73091  -0.72278  -0.71831  -0.70965
 Alpha  occ. eigenvalues --   -0.70050  -0.69610  -0.69072  -0.68918  -0.68726
 Alpha  occ. eigenvalues --   -0.68181  -0.66570  -0.65853  -0.65692  -0.65180
 Alpha  occ. eigenvalues --   -0.64941  -0.64499  -0.64137  -0.63808  -0.63626
 Alpha  occ. eigenvalues --   -0.63342  -0.63072  -0.62567  -0.62337  -0.61976
 Alpha  occ. eigenvalues --   -0.61321  -0.60971  -0.60794  -0.60414  -0.59803
 Alpha  occ. eigenvalues --   -0.59510  -0.59159  -0.58584  -0.58431  -0.57910
 Alpha  occ. eigenvalues --   -0.57165  -0.57107  -0.56821  -0.56639  -0.56236
 Alpha  occ. eigenvalues --   -0.56149  -0.56004  -0.55801  -0.55176  -0.54806
 Alpha  occ. eigenvalues --   -0.54737  -0.54197  -0.53973  -0.53595  -0.53312
 Alpha  occ. eigenvalues --   -0.52897  -0.52750  -0.52288  -0.52144  -0.51857
 Alpha  occ. eigenvalues --   -0.51336  -0.51057  -0.50866  -0.50558  -0.50412
 Alpha  occ. eigenvalues --   -0.50121  -0.49922  -0.49556  -0.49008  -0.48862
 Alpha  occ. eigenvalues --   -0.48742  -0.48338  -0.48173  -0.47901  -0.47697
 Alpha  occ. eigenvalues --   -0.47501  -0.47225  -0.47200  -0.46775  -0.46567
 Alpha  occ. eigenvalues --   -0.46515  -0.46087  -0.45760  -0.45703  -0.45375
 Alpha  occ. eigenvalues --   -0.44857  -0.44737  -0.44610  -0.44486  -0.43966
 Alpha  occ. eigenvalues --   -0.43783  -0.43101  -0.42955  -0.42665  -0.42389
 Alpha  occ. eigenvalues --   -0.42112  -0.41598  -0.41371  -0.39354  -0.39216
 Alpha  occ. eigenvalues --   -0.38791  -0.37527  -0.36751  -0.35630  -0.34168
 Alpha  occ. eigenvalues --   -0.33965  -0.32432  -0.32069  -0.31419  -0.26915
 Alpha  occ. eigenvalues --   -0.21924
 Alpha virt. eigenvalues --   -0.08617  -0.02306  -0.01029  -0.00127   0.01489
 Alpha virt. eigenvalues --    0.01702   0.01747   0.02483   0.04549   0.04908
 Alpha virt. eigenvalues --    0.05585   0.05901   0.06600   0.07764   0.08110

 Mulliken charges:
               1
     1  Mg   0.447620
     2  C   -0.050170
     3  C   -0.036826
     4  C   -0.105270
     5  C   -0.091493
     6  N   -0.260916
     7  C    0.153222
     8  C    0.004432
     9  C    0.002377
    10  C    0.073762
    11  C   -0.045877
    12  C   -0.019520
    13  C   -0.002167
    14  C    0.471080
    15  O   -0.524070
    16  O   -0.269982
    17  N   -0.334937
    18  C    0.076237
    19  C    0.014554
    20  C   -0.058049
    21  C    0.131693
    22  C   -0.051961
    23  C    0.324861
    24  O   -0.514589
    25  C   -0.030730
    26  N   -0.301649
    27  C    0.098937
    28  C    0.006049
    29  C    0.013219
    30  C    0.173394
    31  C   -0.053031
    32  C   -0.037800
    33  C   -0.068993
    34  N   -0.329126
    35  C    0.149248
    36  C    0.023441
    37  C   -0.024385
    38  C    0.112102
    39  C   -0.043062
    40  C    0.353748
    41  O   -0.502669
    42  C    0.060240
    43  C    0.492592
    44  O   -0.518346
    45  O   -0.293657
    46  C    0.074166
    47  C    0.099480
    48  C   -0.096456
    49  C    0.001837
    50  C   -0.037236
    51  C   -0.026889
    52  C   -0.032396
    53  C   -0.039995
    54  C   -0.006422
    55  C   -0.062867
    56  C   -0.038504
    57  C   -0.044523
    58  C   -0.034975
    59  C   -0.004746
    60  C   -0.062476
    61  C   -0.018720
    62  C   -0.039287
    63  C   -0.040962
    64  C   -0.004926
    65  C   -0.061637
    66  C   -0.059974
    67  H    0.031504
    68  H    0.024942
    69  H    0.015175
    70  H    0.037060
    71  H    0.022603
    72  H    0.024382
    73  H    0.025311
    74  H    0.026198
    75  H    0.023773
    76  H    0.030446
    77  H    0.037132
    78  H    0.039224
    79  H    0.043482
    80  H    0.021574
    81  H    0.036753
    82  H    0.022833
    83  H    0.035766
    84  H    0.032986
    85  H    0.041501
    86  H    0.039725
    87  H    0.017010
    88  H    0.030197
    89  H    0.032719
    90  H    0.026511
    91  H    0.030192
    92  H    0.021096
    93  H    0.023178
    94  H    0.018750
    95  H    0.036807
    96  H    0.024377
    97  H    0.040446
    98  H    0.057578
    99  H    0.036857
   100  H    0.055333
   101  H    0.038711
   102  H    0.038679
   103  H    0.065768
   104  H    0.025375
   105  H    0.027927
   106  H    0.016643
   107  H    0.035613
   108  H    0.013214
   109  H    0.030370
   110  H    0.019187
   111  H    0.020287
   112  H    0.020415
   113  H    0.020548
   114  H    0.028319
   115  H    0.017713
   116  H    0.000009
   117  H    0.028968
   118  H    0.016205
   119  H    0.029781
   120  H    0.006461
   121  H    0.025602
   122  H    0.020943
   123  H    0.021506
   124  H    0.021957
   125  H    0.014633
   126  H    0.014098
   127  H    0.030939
   128  H    0.002924
   129  H    0.008189
   130  H    0.020579
   131  H    0.020767
   132  H    0.014941
   133  H    0.024545
   134  H    0.020848
   135  H    0.024767
   136  H    0.016392
   137  H    0.012295
   138  H    0.009782
   139  H    0.013297
   140  H    0.021356
 Sum of Mulliken charges =  -0.00000

 Dipole moment (field-independent basis, Debye):
    X=              0.5998    Y=              1.6499    Z=             -5.8423  Tot=              6.1004
 N-N= 4.442225355990D+03 E-N= 0.000000000000D+00  KE=-9.557999053754D+03
 Leave Link  601 at Thu Apr 28 23:08:29 2022, MaxMem=  6710886400 cpu:               1.2 elap:               0.1
 (Enter /sw/apps/gaussian-16.0/g16/l9999.exe)
 1\1\GINC-BP1-COMPUTE137\SP\RZINDO CIS\STO-3G\C55H74Mg1N4O6\OF15641\28-
 Apr-2022\0\\#p ZINDO=(nstates=5)\\step_1751_chromophore_23 ZINDO\\0,1\
 Mg,0,-9.526,41.194,42.265\C,0,-8.908,37.866,41.27\C,0,-6.91,42.203,40.
 324\C,0,-10.602,44.417,42.609\C,0,-12.732,40.066,43.394\N,0,-8.186,40.
 115,40.846\C,0,-7.992,38.788,40.784\C,0,-6.757,38.405,40.012\C,0,-5.96
 5,39.78,39.988\C,0,-7.108,40.807,40.363\C,0,-4.637,39.764,40.695\C,0,-
 6.999,37.771,38.608\C,0,-6.068,36.617,38.334\C,0,-4.864,36.911,37.434\

 Normal termination of Gaussian 16 at Thu Apr 28 23:08:29 2022.
