 Gaussian 16, Revision A.03,
 Gaussian 16:  ES64L-G16RevA.03 25-Dec-2016

 ------------------------------
 #p blyp/Def2SVP td=(nstates=5)
 ------------------------------

 -------------------------------------------------
 step_751_chromophore_7 TDDFT with blyp functional
 -------------------------------------------------
 Symbolic Z-matrix:
 Charge =  0 Multiplicity = 1

                         Standard orientation:
 ---------------------------------------------------------------------
 Center     Atomic      Atomic             Coordinates (Angstroms)
 Number     Number       Type             X           Y           Z
 ---------------------------------------------------------------------
      1         12           0        6.276293    0.506058    0.283434
      2          6           0        4.012356   -2.053509    0.288869
      3          6           0        3.917665    2.453999   -1.460019
      4          6           0        8.577864    2.999412   -0.090806
      5          6           0        8.747881   -1.580784    1.509686
      6          7           0        4.215063    0.291587   -0.500741
      7          6           0        3.499031   -0.886160   -0.261291
      8          6           0        2.034402   -0.746241   -0.737153
      9          6           0        2.088756    0.623844   -1.474962
     10          6           0        3.433431    1.188952   -1.119320
     11          6           0        1.700454    0.602442   -2.991980
     12          6           0        1.049457   -1.109924    0.422263
     13          6           0       -0.302129   -0.304331    0.550517
     14          6           0       -1.575374   -1.213032    0.825059
     15          8           0       -1.515344   -2.171254    1.600907
     16          8           0       -2.683644   -0.845340    0.120174
     17          7           0        6.207803    2.541910   -0.460879
     18          6           0        5.172674    3.106833   -1.152171
     19          6           0        5.553805    4.495526   -1.379935
     20          6           0        6.922250    4.667956   -1.080970
     21          6           0        7.281666    3.380335   -0.486672
     22          6           0        4.510281    5.476892   -2.063589
     23          6           0        7.752961    5.879330   -1.205364
     24          8           0        8.881507    5.981483   -0.778022
     25          6           0        7.132484    7.077649   -1.810326
     26          7           0        8.399562    0.698932    0.664986
     27          6           0        9.094072    1.821621    0.337783
     28          6           0       10.522804    1.714600    0.870821
     29          6           0       10.578903    0.229519    1.273702
     30          6           0        9.156725   -0.289804    1.146784
     31          6           0       11.553856    2.234888   -0.186747
     32          6           0       11.194065   -0.095363    2.678883
     33          6           0       12.112557   -1.298052    2.919179
     34          7           0        6.456737   -1.444775    0.684527
     35          6           0        7.513265   -2.204102    1.188460
     36          6           0        7.089878   -3.603170    1.294012
     37          6           0        5.711187   -3.608431    0.938463
     38          6           0        5.384714   -2.245165    0.614278
     39          6           0        7.968781   -4.698852    1.728281
     40          6           0        4.560465   -4.436262    0.994030
     41          8           0        4.376377   -5.636455    1.204973
     42          6           0        3.423238   -3.405520    0.522772
     43          6           0        2.853510   -3.923283   -0.765964
     44          8           0        3.029203   -3.594379   -1.956690
     45          8           0        1.820262   -4.812991   -0.466682
     46          6           0        0.905773   -5.153299   -1.548899
     47          6           0       -3.816358   -1.775505    0.332327
     48          6           0       -4.936812   -1.383189   -0.616672
     49          6           0       -6.049939   -2.101151   -1.027363
     50          6           0       -6.338482   -3.593319   -0.728279
     51          6           0       -7.102956   -1.413819   -1.943943
     52          6           0       -8.491328   -1.148292   -1.300084
     53          6           0       -9.433325   -0.285357   -2.059912
     54          6           0      -10.776489   -1.020257   -2.494609
     55          6           0      -10.707646   -1.740762   -3.901175
     56          6           0      -12.008203   -0.045179   -2.407918
     57          6           0      -13.260899   -0.612093   -1.862709
     58          6           0      -14.231997    0.443847   -1.357078
     59          6           0      -14.443447    0.399690    0.150825
     60          6           0      -15.503162   -0.708107    0.512694
     61          6           0      -14.819545    1.710276    0.734566
     62          6           0      -13.671275    2.514041    1.370716
     63          6           0      -13.954813    3.516169    2.496504
     64          6           0      -14.040634    2.924862    3.948853
     65          6           0      -15.433242    3.205674    4.566532
     66          6           0      -12.944500    3.549572    4.883850
     67          1           0        3.255952    3.042974   -2.098603
     68          1           0        9.291336    3.774551   -0.377814
     69          1           0        9.436430   -2.222486    2.062534
     70          1           0        1.802515   -1.494515   -1.494252
     71          1           0        1.344371    1.280443   -1.023239
     72          1           0        1.803063    1.589711   -3.440789
     73          1           0        0.683626    0.231365   -3.122566
     74          1           0        2.474490    0.088647   -3.562066
     75          1           0        1.619034   -0.908532    1.329412
     76          1           0        0.820030   -2.173504    0.356520
     77          1           0       -0.378037    0.327289   -0.334951
     78          1           0       -0.164848    0.413415    1.358269
     79          1           0        4.607534    6.531167   -1.804700
     80          1           0        3.553485    5.276984   -1.581122
     81          1           0        4.480937    5.336486   -3.143697
     82          1           0        7.871930    7.856456   -1.991491
     83          1           0        6.393367    7.575896   -1.182891
     84          1           0        6.708400    6.804525   -2.777280
     85          1           0       10.508182    2.429505    1.693623
     86          1           0       11.182216   -0.282732    0.523168
     87          1           0       11.254943    2.304533   -1.232000
     88          1           0       12.492189    1.681193   -0.155768
     89          1           0       11.863775    3.244515    0.082024
     90          1           0       10.323033   -0.042303    3.332483
     91          1           0       11.826210    0.758049    2.924747
     92          1           0       11.879548   -2.081131    2.198472
     93          1           0       11.958709   -1.828117    3.859134
     94          1           0       13.141367   -0.956659    2.809607
     95          1           0        8.293157   -5.186408    0.808766
     96          1           0        7.515413   -5.448079    2.377096
     97          1           0        8.870994   -4.290808    2.185428
     98          1           0        2.562295   -3.314688    1.184340
     99          1           0        1.431383   -5.532069   -2.425160
    100          1           0        0.389645   -4.224857   -1.795317
    101          1           0        0.153152   -5.867886   -1.216231
    102          1           0       -4.181977   -1.683441    1.355069
    103          1           0       -3.566006   -2.788806    0.020379
    104          1           0       -4.799164   -0.347572   -0.927149
    105          1           0       -6.826696   -4.021208   -1.604019
    106          1           0       -7.139042   -3.691185    0.004600
    107          1           0       -5.423583   -4.035146   -0.332977
    108          1           0       -7.253786   -2.089855   -2.785424
    109          1           0       -6.736441   -0.460364   -2.323911
    110          1           0       -8.287962   -0.746963   -0.306982
    111          1           0       -8.890500   -2.150940   -1.148322
    112          1           0       -8.873885    0.096264   -2.914423
    113          1           0       -9.775768    0.571171   -1.478803
    114          1           0      -10.839295   -1.844189   -1.784651
    115          1           0      -11.486355   -2.502081   -3.947216
    116          1           0       -9.818142   -2.361038   -4.012817
    117          1           0      -10.698272   -1.048886   -4.742267
    118          1           0      -12.309461    0.259770   -3.410025
    119          1           0      -11.798088    0.846092   -1.815676
    120          1           0      -12.786338   -1.279352   -1.143409
    121          1           0      -13.683611   -1.244251   -2.643980
    122          1           0      -15.216429    0.339501   -1.813182
    123          1           0      -13.981188    1.467465   -1.632979
    124          1           0      -13.522425    0.005955    0.581731
    125          1           0      -16.235232   -0.431000    1.271371
    126          1           0      -15.060601   -1.672887    0.761220
    127          1           0      -16.112378   -0.925619   -0.364490
    128          1           0      -15.671995    1.612078    1.406969
    129          1           0      -15.107690    2.460150   -0.002223
    130          1           0      -13.225941    3.090662    0.559594
    131          1           0      -12.906872    1.774240    1.610325
    132          1           0      -14.943790    3.856649    2.188736
    133          1           0      -13.175909    4.278031    2.475720
    134          1           0      -14.040559    1.834932    3.951103
    135          1           0      -16.129883    2.821967    3.820820
    136          1           0      -15.536076    4.287046    4.653144
    137          1           0      -15.593275    2.536726    5.412652
    138          1           0      -12.580703    4.481108    4.449585
    139          1           0      -12.190928    2.785567    5.073954
    140          1           0      -13.392085    3.958017    5.789716
 ---------------------------------------------------------------------

 SCF Done:  E(RB-LYP) =  -3007.40165715     A.U. after   21 cycles

 Excitation energies and oscillator strengths:

 Excited State   1:      Singlet-A      1.7739 eV  698.93 nm  f=0.3010  <S**2>=0.000
     245 -> 248        0.16709
     246 -> 247        0.69109
     246 <- 247       -0.15861
 This state for optimization and/or second-order correction.
 Total Energy, E(TD-HF/TD-DFT) =  -3007.33646739
 Copying the excited state density for this state as the 1-particle RhoCI density.

 Excited State   2:      Singlet-A      1.9318 eV  641.82 nm  f=0.0181  <S**2>=0.000
     244 -> 247        0.64760
     245 -> 247        0.25673

 Excited State   3:      Singlet-A      1.9805 eV  626.01 nm  f=0.0594  <S**2>=0.000
     243 -> 247       -0.29816
     244 -> 247       -0.26913
     245 -> 247        0.54372
     246 -> 248       -0.17098

 Excited State   4:      Singlet-A      2.0373 eV  608.56 nm  f=0.0232  <S**2>=0.000
     243 -> 247        0.63699
     245 -> 247        0.27064
     246 -> 248       -0.10351

 Excited State   5:      Singlet-A      2.3469 eV  528.30 nm  f=0.0001  <S**2>=0.000
     242 -> 247        0.70706

 The electronic state is 1-A.
 Alpha  occ. eigenvalues --  -46.27155 -18.83503 -18.80599 -18.77251 -18.76445
 Alpha  occ. eigenvalues --  -18.75967 -18.75502 -14.03394 -14.02768 -14.01190
 Alpha  occ. eigenvalues --  -14.01034 -10.05058 -10.03630  -9.99880  -9.99466
 Alpha  occ. eigenvalues --   -9.98727  -9.96925  -9.96710  -9.96557  -9.96353
 Alpha  occ. eigenvalues --   -9.95944  -9.95904  -9.95588  -9.95488  -9.94940
 Alpha  occ. eigenvalues --   -9.94407  -9.94235  -9.94187  -9.94159  -9.94083
 Alpha  occ. eigenvalues --   -9.93956  -9.93649  -9.93536  -9.93427  -9.93384
 Alpha  occ. eigenvalues --   -9.93300  -9.93168  -9.93140  -9.93105  -9.92986
 Alpha  occ. eigenvalues --   -9.92819  -9.92791  -9.92624  -9.92591  -9.92470
 Alpha  occ. eigenvalues --   -9.92343  -9.92318  -9.92214  -9.92001  -9.91908
 Alpha  occ. eigenvalues --   -9.91689  -9.91576  -9.91573  -9.91425  -9.91348
 Alpha  occ. eigenvalues --   -9.91336  -9.91324  -9.91220  -9.91106  -9.90868
 Alpha  occ. eigenvalues --   -9.90824  -9.90787  -9.90732  -9.90708  -9.90689
 Alpha  occ. eigenvalues --   -9.90598  -2.91768  -1.72207  -1.71634  -1.71486
 Alpha  occ. eigenvalues --   -0.98440  -0.96150  -0.92342  -0.90757  -0.90037
 Alpha  occ. eigenvalues --   -0.87873  -0.86782  -0.86140  -0.85688  -0.85036
 Alpha  occ. eigenvalues --   -0.75859  -0.74010  -0.73137  -0.72315  -0.72134
 Alpha  occ. eigenvalues --   -0.71929  -0.71690  -0.70965  -0.70933  -0.70262
 Alpha  occ. eigenvalues --   -0.69996  -0.69357  -0.68474  -0.67456  -0.67372
 Alpha  occ. eigenvalues --   -0.66632  -0.65872  -0.65509  -0.65079  -0.64574
 Alpha  occ. eigenvalues --   -0.64338  -0.62949  -0.62348  -0.61781  -0.60782
 Alpha  occ. eigenvalues --   -0.60382  -0.60006  -0.59904  -0.59691  -0.59441
 Alpha  occ. eigenvalues --   -0.58297  -0.57902  -0.57190  -0.55902  -0.54635
 Alpha  occ. eigenvalues --   -0.54309  -0.53770  -0.52956  -0.52134  -0.51464
 Alpha  occ. eigenvalues --   -0.51295  -0.51103  -0.50517  -0.50459  -0.50187
 Alpha  occ. eigenvalues --   -0.49674  -0.49561  -0.48581  -0.47601  -0.46701
 Alpha  occ. eigenvalues --   -0.46606  -0.46144  -0.45937  -0.45252  -0.44360
 Alpha  occ. eigenvalues --   -0.44195  -0.43740  -0.43515  -0.42954  -0.42507
 Alpha  occ. eigenvalues --   -0.42179  -0.41785  -0.41656  -0.41448  -0.41032
 Alpha  occ. eigenvalues --   -0.40893  -0.40791  -0.40603  -0.40395  -0.40046
 Alpha  occ. eigenvalues --   -0.39961  -0.39899  -0.39780  -0.39687  -0.39404
 Alpha  occ. eigenvalues --   -0.39206  -0.38907  -0.38337  -0.38288  -0.38126
 Alpha  occ. eigenvalues --   -0.38094  -0.37892  -0.37804  -0.37620  -0.37230
 Alpha  occ. eigenvalues --   -0.36951  -0.36823  -0.36660  -0.36569  -0.36490
 Alpha  occ. eigenvalues --   -0.36307  -0.36142  -0.35953  -0.35826  -0.35737
 Alpha  occ. eigenvalues --   -0.35590  -0.35482  -0.35383  -0.34857  -0.34761
 Alpha  occ. eigenvalues --   -0.34646  -0.34497  -0.34255  -0.34022  -0.33898
 Alpha  occ. eigenvalues --   -0.33863  -0.33614  -0.33525  -0.33412  -0.33297
 Alpha  occ. eigenvalues --   -0.33106  -0.33054  -0.32765  -0.32601  -0.32421
 Alpha  occ. eigenvalues --   -0.32371  -0.31749  -0.31531  -0.31474  -0.31404
 Alpha  occ. eigenvalues --   -0.31157  -0.31104  -0.30910  -0.30772  -0.30594
 Alpha  occ. eigenvalues --   -0.30482  -0.30374  -0.30177  -0.29707  -0.29523
 Alpha  occ. eigenvalues --   -0.29326  -0.29228  -0.28872  -0.28817  -0.28564
 Alpha  occ. eigenvalues --   -0.28548  -0.28459  -0.28138  -0.28085  -0.28040
 Alpha  occ. eigenvalues --   -0.27984  -0.27554  -0.27321  -0.26873  -0.26414
 Alpha  occ. eigenvalues --   -0.26296  -0.25954  -0.25746  -0.25667  -0.25620
 Alpha  occ. eigenvalues --   -0.25564  -0.25135  -0.24555  -0.23760  -0.23580
 Alpha  occ. eigenvalues --   -0.23240  -0.22243  -0.22191  -0.21349  -0.21068
 Alpha  occ. eigenvalues --   -0.20678  -0.20361  -0.19061  -0.18776  -0.17313
 Alpha  occ. eigenvalues --   -0.15822
 Alpha virt. eigenvalues --   -0.11736  -0.06724  -0.06580  -0.04723  -0.03462
 Alpha virt. eigenvalues --   -0.02844  -0.02325  -0.02198  -0.01143   0.00535
 Alpha virt. eigenvalues --    0.01241   0.01885   0.02243   0.02381   0.02890

 Mulliken charges:
               1
     1  Mg   0.698961
     2  C    0.055809
     3  C   -0.073664
     4  C   -0.029720
     5  C   -0.086039
     6  N   -0.210973
     7  C   -0.061028
     8  C   -0.024024
     9  C    0.066471
    10  C    0.014118
    11  C    0.124124
    12  C    0.087658
    13  C    0.118463
    14  C    0.095899
    15  O   -0.206538
    16  O   -0.259493
    17  N   -0.247750
    18  C    0.101925
    19  C   -0.141446
    20  C    0.059691
    21  C    0.048025
    22  C    0.145938
    23  C   -0.091098
    24  O   -0.146582
    25  C    0.131499
    26  N   -0.199217
    27  C    0.022668
    28  C   -0.008411
    29  C    0.090024
    30  C    0.033355
    31  C    0.112132
    32  C    0.072426
    33  C    0.079511
    34  N   -0.302016
    35  C    0.103774
    36  C   -0.146944
    37  C    0.063936
    38  C    0.058000
    39  C    0.182644
    40  C   -0.002181
    41  O   -0.126183
    42  C    0.005245
    43  C    0.132211
    44  O   -0.209192
    45  O   -0.282076
    46  C    0.232387
    47  C    0.311173
    48  C   -0.146049
    49  C   -0.127537
    50  C    0.155837
    51  C    0.092539
    52  C    0.059951
    53  C    0.152483
    54  C   -0.080893
    55  C    0.091432
    56  C    0.077689
    57  C    0.090929
    58  C    0.138892
    59  C   -0.072198
    60  C    0.097810
    61  C    0.120903
    62  C    0.018507
    63  C    0.149745
    64  C   -0.105533
    65  C    0.091029
    66  C    0.120190
    67  H   -0.064948
    68  H   -0.045738
    69  H   -0.066323
    70  H   -0.009669
    71  H   -0.034839
    72  H   -0.018088
    73  H    0.006510
    74  H    0.001416
    75  H   -0.020983
    76  H    0.016137
    77  H   -0.014277
    78  H    0.003203
    79  H   -0.018366
    80  H   -0.010574
    81  H    0.020292
    82  H   -0.021602
    83  H    0.019557
    84  H    0.002498
    85  H   -0.007567
    86  H   -0.033824
    87  H    0.002431
    88  H   -0.020753
    89  H   -0.004391
    90  H   -0.021982
    91  H   -0.025430
    92  H   -0.010001
    93  H   -0.006610
    94  H   -0.000184
    95  H    0.009015
    96  H    0.015212
    97  H   -0.025183
    98  H    0.013020
    99  H    0.016794
   100  H   -0.006246
   101  H    0.013714
   102  H    0.022264
   103  H    0.015120
   104  H   -0.026102
   105  H   -0.008596
   106  H    0.001467
   107  H   -0.003809
   108  H   -0.023884
   109  H   -0.029958
   110  H   -0.031190
   111  H   -0.037951
   112  H   -0.036520
   113  H   -0.040428
   114  H   -0.032694
   115  H   -0.015344
   116  H   -0.030066
   117  H   -0.003216
   118  H   -0.036412
   119  H   -0.029845
   120  H   -0.038877
   121  H   -0.038108
   122  H   -0.043690
   123  H   -0.039207
   124  H   -0.032708
   125  H   -0.017588
   126  H   -0.016378
   127  H   -0.031897
   128  H   -0.037614
   129  H   -0.036777
   130  H   -0.042585
   131  H   -0.043503
   132  H   -0.038232
   133  H   -0.030541
   134  H   -0.037629
   135  H   -0.029717
   136  H   -0.006356
   137  H   -0.013307
   138  H   -0.024744
   139  H    0.002014
   140  H   -0.026832
 Sum of Mulliken charges =  -0.00000

 Dipole moment (field-independent basis, Debye):
    X=             -2.8035    Y=              2.9313    Z=             -0.9193  Tot=              4.1590
 Quadrupole moment (field-independent basis, Debye-Ang):
   XX=           -374.6746   YY=           -429.6442   ZZ=           -405.9907
   XY=              1.1772   XZ=             18.6719   YZ=              1.9097

 Normal termination of Gaussian 16 at Sat Apr 30 14:51:31 2022.
