 Gaussian 16, Revision A.03,
 Gaussian 16:  ES64L-G16RevA.03 25-Dec-2016

 -----------------------------------
 #p cam-b3lyp/Def2SVP td=(nstates=5)
 -----------------------------------

 ------------------------------------------------------
 step_751_chromophore_7 TDDFT with cam-b3lyp functional
 ------------------------------------------------------
 Symbolic Z-matrix:
 Charge =  0 Multiplicity = 1

                         Standard orientation:
 ---------------------------------------------------------------------
 Center     Atomic      Atomic             Coordinates (Angstroms)
 Number     Number       Type             X           Y           Z
 ---------------------------------------------------------------------
      1         12           0        6.276293    0.506058    0.283434
      2          6           0        4.012356   -2.053509    0.288869
      3          6           0        3.917665    2.453999   -1.460019
      4          6           0        8.577864    2.999412   -0.090806
      5          6           0        8.747881   -1.580784    1.509686
      6          7           0        4.215063    0.291587   -0.500741
      7          6           0        3.499031   -0.886160   -0.261291
      8          6           0        2.034402   -0.746241   -0.737153
      9          6           0        2.088756    0.623844   -1.474962
     10          6           0        3.433431    1.188952   -1.119320
     11          6           0        1.700454    0.602442   -2.991980
     12          6           0        1.049457   -1.109924    0.422263
     13          6           0       -0.302129   -0.304331    0.550517
     14          6           0       -1.575374   -1.213032    0.825059
     15          8           0       -1.515344   -2.171254    1.600907
     16          8           0       -2.683644   -0.845340    0.120174
     17          7           0        6.207803    2.541910   -0.460879
     18          6           0        5.172674    3.106833   -1.152171
     19          6           0        5.553805    4.495526   -1.379935
     20          6           0        6.922250    4.667956   -1.080970
     21          6           0        7.281666    3.380335   -0.486672
     22          6           0        4.510281    5.476892   -2.063589
     23          6           0        7.752961    5.879330   -1.205364
     24          8           0        8.881507    5.981483   -0.778022
     25          6           0        7.132484    7.077649   -1.810326
     26          7           0        8.399562    0.698932    0.664986
     27          6           0        9.094072    1.821621    0.337783
     28          6           0       10.522804    1.714600    0.870821
     29          6           0       10.578903    0.229519    1.273702
     30          6           0        9.156725   -0.289804    1.146784
     31          6           0       11.553856    2.234888   -0.186747
     32          6           0       11.194065   -0.095363    2.678883
     33          6           0       12.112557   -1.298052    2.919179
     34          7           0        6.456737   -1.444775    0.684527
     35          6           0        7.513265   -2.204102    1.188460
     36          6           0        7.089878   -3.603170    1.294012
     37          6           0        5.711187   -3.608431    0.938463
     38          6           0        5.384714   -2.245165    0.614278
     39          6           0        7.968781   -4.698852    1.728281
     40          6           0        4.560465   -4.436262    0.994030
     41          8           0        4.376377   -5.636455    1.204973
     42          6           0        3.423238   -3.405520    0.522772
     43          6           0        2.853510   -3.923283   -0.765964
     44          8           0        3.029203   -3.594379   -1.956690
     45          8           0        1.820262   -4.812991   -0.466682
     46          6           0        0.905773   -5.153299   -1.548899
     47          6           0       -3.816358   -1.775505    0.332327
     48          6           0       -4.936812   -1.383189   -0.616672
     49          6           0       -6.049939   -2.101151   -1.027363
     50          6           0       -6.338482   -3.593319   -0.728279
     51          6           0       -7.102956   -1.413819   -1.943943
     52          6           0       -8.491328   -1.148292   -1.300084
     53          6           0       -9.433325   -0.285357   -2.059912
     54          6           0      -10.776489   -1.020257   -2.494609
     55          6           0      -10.707646   -1.740762   -3.901175
     56          6           0      -12.008203   -0.045179   -2.407918
     57          6           0      -13.260899   -0.612093   -1.862709
     58          6           0      -14.231997    0.443847   -1.357078
     59          6           0      -14.443447    0.399690    0.150825
     60          6           0      -15.503162   -0.708107    0.512694
     61          6           0      -14.819545    1.710276    0.734566
     62          6           0      -13.671275    2.514041    1.370716
     63          6           0      -13.954813    3.516169    2.496504
     64          6           0      -14.040634    2.924862    3.948853
     65          6           0      -15.433242    3.205674    4.566532
     66          6           0      -12.944500    3.549572    4.883850
     67          1           0        3.255952    3.042974   -2.098603
     68          1           0        9.291336    3.774551   -0.377814
     69          1           0        9.436430   -2.222486    2.062534
     70          1           0        1.802515   -1.494515   -1.494252
     71          1           0        1.344371    1.280443   -1.023239
     72          1           0        1.803063    1.589711   -3.440789
     73          1           0        0.683626    0.231365   -3.122566
     74          1           0        2.474490    0.088647   -3.562066
     75          1           0        1.619034   -0.908532    1.329412
     76          1           0        0.820030   -2.173504    0.356520
     77          1           0       -0.378037    0.327289   -0.334951
     78          1           0       -0.164848    0.413415    1.358269
     79          1           0        4.607534    6.531167   -1.804700
     80          1           0        3.553485    5.276984   -1.581122
     81          1           0        4.480937    5.336486   -3.143697
     82          1           0        7.871930    7.856456   -1.991491
     83          1           0        6.393367    7.575896   -1.182891
     84          1           0        6.708400    6.804525   -2.777280
     85          1           0       10.508182    2.429505    1.693623
     86          1           0       11.182216   -0.282732    0.523168
     87          1           0       11.254943    2.304533   -1.232000
     88          1           0       12.492189    1.681193   -0.155768
     89          1           0       11.863775    3.244515    0.082024
     90          1           0       10.323033   -0.042303    3.332483
     91          1           0       11.826210    0.758049    2.924747
     92          1           0       11.879548   -2.081131    2.198472
     93          1           0       11.958709   -1.828117    3.859134
     94          1           0       13.141367   -0.956659    2.809607
     95          1           0        8.293157   -5.186408    0.808766
     96          1           0        7.515413   -5.448079    2.377096
     97          1           0        8.870994   -4.290808    2.185428
     98          1           0        2.562295   -3.314688    1.184340
     99          1           0        1.431383   -5.532069   -2.425160
    100          1           0        0.389645   -4.224857   -1.795317
    101          1           0        0.153152   -5.867886   -1.216231
    102          1           0       -4.181977   -1.683441    1.355069
    103          1           0       -3.566006   -2.788806    0.020379
    104          1           0       -4.799164   -0.347572   -0.927149
    105          1           0       -6.826696   -4.021208   -1.604019
    106          1           0       -7.139042   -3.691185    0.004600
    107          1           0       -5.423583   -4.035146   -0.332977
    108          1           0       -7.253786   -2.089855   -2.785424
    109          1           0       -6.736441   -0.460364   -2.323911
    110          1           0       -8.287962   -0.746963   -0.306982
    111          1           0       -8.890500   -2.150940   -1.148322
    112          1           0       -8.873885    0.096264   -2.914423
    113          1           0       -9.775768    0.571171   -1.478803
    114          1           0      -10.839295   -1.844189   -1.784651
    115          1           0      -11.486355   -2.502081   -3.947216
    116          1           0       -9.818142   -2.361038   -4.012817
    117          1           0      -10.698272   -1.048886   -4.742267
    118          1           0      -12.309461    0.259770   -3.410025
    119          1           0      -11.798088    0.846092   -1.815676
    120          1           0      -12.786338   -1.279352   -1.143409
    121          1           0      -13.683611   -1.244251   -2.643980
    122          1           0      -15.216429    0.339501   -1.813182
    123          1           0      -13.981188    1.467465   -1.632979
    124          1           0      -13.522425    0.005955    0.581731
    125          1           0      -16.235232   -0.431000    1.271371
    126          1           0      -15.060601   -1.672887    0.761220
    127          1           0      -16.112378   -0.925619   -0.364490
    128          1           0      -15.671995    1.612078    1.406969
    129          1           0      -15.107690    2.460150   -0.002223
    130          1           0      -13.225941    3.090662    0.559594
    131          1           0      -12.906872    1.774240    1.610325
    132          1           0      -14.943790    3.856649    2.188736
    133          1           0      -13.175909    4.278031    2.475720
    134          1           0      -14.040559    1.834932    3.951103
    135          1           0      -16.129883    2.821967    3.820820
    136          1           0      -15.536076    4.287046    4.653144
    137          1           0      -15.593275    2.536726    5.412652
    138          1           0      -12.580703    4.481108    4.449585
    139          1           0      -12.190928    2.785567    5.073954
    140          1           0      -13.392085    3.958017    5.789716
 ---------------------------------------------------------------------

 SCF Done:  E(RCAM-B3LYP) =  -3007.19182927     A.U. after   17 cycles

 Excitation energies and oscillator strengths:

 Excited State   1:      Singlet-A      1.6682 eV  743.21 nm  f=0.3978  <S**2>=0.000
     245 -> 248        0.17475
     246 -> 247        0.68739
     245 <- 248        0.10814
 This state for optimization and/or second-order correction.
 Total Energy, E(TD-HF/TD-DFT) =  -3007.13052311
 Copying the excited state density for this state as the 1-particle RhoCI density.

 Excited State   2:      Singlet-A      2.2039 eV  562.57 nm  f=0.1293  <S**2>=0.000
     245 -> 247        0.64775
     246 -> 248       -0.27189

 Excited State   3:      Singlet-A      3.4145 eV  363.11 nm  f=0.0215  <S**2>=0.000
     242 -> 247       -0.25772
     243 -> 247        0.61154
     246 -> 248       -0.17681

 Excited State   4:      Singlet-A      3.5020 eV  354.04 nm  f=0.1827  <S**2>=0.000
     241 -> 247        0.42016
     241 -> 249       -0.23324
     241 -> 250        0.13433
     242 -> 247       -0.12696
     243 -> 247       -0.16998
     245 -> 247       -0.14920
     246 -> 248       -0.40025

 Excited State   5:      Singlet-A      3.5387 eV  350.37 nm  f=0.1648  <S**2>=0.000
     239 -> 247        0.10410
     241 -> 247        0.36990
     241 -> 249       -0.22283
     241 -> 250        0.12018
     242 -> 247        0.26189
     243 -> 247        0.23967
     245 -> 247        0.12841
     246 -> 248        0.34927

 The electronic state is 1-A.
 Alpha  occ. eigenvalues --  -46.88714 -19.26410 -19.23469 -19.20234 -19.19586
 Alpha  occ. eigenvalues --  -19.19042 -19.18883 -14.42207 -14.41662 -14.39592
 Alpha  occ. eigenvalues --  -14.39581 -10.40417 -10.39219 -10.35263 -10.34734
 Alpha  occ. eigenvalues --  -10.32800 -10.31234 -10.31097 -10.30832 -10.30599
 Alpha  occ. eigenvalues --  -10.30423 -10.30067 -10.30013 -10.29987 -10.29275
 Alpha  occ. eigenvalues --  -10.29045 -10.28563 -10.28504 -10.28408 -10.28347
 Alpha  occ. eigenvalues --  -10.28196 -10.27589 -10.27543 -10.27431 -10.27383
 Alpha  occ. eigenvalues --  -10.27304 -10.27256 -10.27223 -10.27075 -10.26864
 Alpha  occ. eigenvalues --  -10.26826 -10.26684 -10.26623 -10.26578 -10.26266
 Alpha  occ. eigenvalues --  -10.26122 -10.26115 -10.25804 -10.25684 -10.25634
 Alpha  occ. eigenvalues --  -10.25482 -10.25462 -10.25355 -10.25306 -10.25228
 Alpha  occ. eigenvalues --  -10.25216 -10.25100 -10.24903 -10.24734 -10.24473
 Alpha  occ. eigenvalues --  -10.24458 -10.24442 -10.24320 -10.24303 -10.24299
 Alpha  occ. eigenvalues --  -10.24215  -3.17230  -1.92145  -1.91667  -1.91542
 Alpha  occ. eigenvalues --   -1.16870  -1.14640  -1.10944  -1.09040  -1.07911
 Alpha  occ. eigenvalues --   -1.05729  -1.04520  -1.03829  -1.03296  -1.02604
 Alpha  occ. eigenvalues --   -0.93012  -0.90879  -0.89963  -0.89073  -0.88863
 Alpha  occ. eigenvalues --   -0.88628  -0.88269  -0.87576  -0.87518  -0.86873
 Alpha  occ. eigenvalues --   -0.86762  -0.85687  -0.84826  -0.83616  -0.83517
 Alpha  occ. eigenvalues --   -0.82713  -0.81920  -0.81540  -0.81111  -0.80429
 Alpha  occ. eigenvalues --   -0.80124  -0.78720  -0.78022  -0.77300  -0.76160
 Alpha  occ. eigenvalues --   -0.75732  -0.75286  -0.75234  -0.74987  -0.74701
 Alpha  occ. eigenvalues --   -0.73342  -0.72936  -0.72140  -0.70734  -0.69187
 Alpha  occ. eigenvalues --   -0.68993  -0.68307  -0.67619  -0.66490  -0.65554
 Alpha  occ. eigenvalues --   -0.65356  -0.65203  -0.64647  -0.64421  -0.64246
 Alpha  occ. eigenvalues --   -0.63665  -0.63437  -0.62477  -0.61221  -0.60350
 Alpha  occ. eigenvalues --   -0.60197  -0.59709  -0.59484  -0.58564  -0.57701
 Alpha  occ. eigenvalues --   -0.57514  -0.57260  -0.56748  -0.56120  -0.55707
 Alpha  occ. eigenvalues --   -0.55233  -0.54960  -0.54524  -0.54443  -0.53994
 Alpha  occ. eigenvalues --   -0.53784  -0.53636  -0.53420  -0.53334  -0.53022
 Alpha  occ. eigenvalues --   -0.52781  -0.52629  -0.52483  -0.52350  -0.52107
 Alpha  occ. eigenvalues --   -0.51674  -0.51525  -0.51093  -0.50586  -0.50498
 Alpha  occ. eigenvalues --   -0.50395  -0.50345  -0.50140  -0.49815  -0.49614
 Alpha  occ. eigenvalues --   -0.49453  -0.49280  -0.49041  -0.49018  -0.48783
 Alpha  occ. eigenvalues --   -0.48523  -0.48445  -0.48158  -0.48146  -0.47928
 Alpha  occ. eigenvalues --   -0.47759  -0.47456  -0.47380  -0.46868  -0.46699
 Alpha  occ. eigenvalues --   -0.46654  -0.46422  -0.46221  -0.46020  -0.45667
 Alpha  occ. eigenvalues --   -0.45628  -0.45388  -0.45173  -0.45089  -0.44982
 Alpha  occ. eigenvalues --   -0.44825  -0.44694  -0.44473  -0.44334  -0.44051
 Alpha  occ. eigenvalues --   -0.43956  -0.43500  -0.43299  -0.43141  -0.42987
 Alpha  occ. eigenvalues --   -0.42839  -0.42494  -0.42378  -0.42286  -0.42010
 Alpha  occ. eigenvalues --   -0.41808  -0.41729  -0.41577  -0.41078  -0.40827
 Alpha  occ. eigenvalues --   -0.40632  -0.40432  -0.40283  -0.39930  -0.39897
 Alpha  occ. eigenvalues --   -0.39621  -0.39542  -0.39100  -0.39013  -0.38991
 Alpha  occ. eigenvalues --   -0.38850  -0.38339  -0.38144  -0.37853  -0.37702
 Alpha  occ. eigenvalues --   -0.37612  -0.36735  -0.36420  -0.36376  -0.36331
 Alpha  occ. eigenvalues --   -0.36228  -0.35631  -0.35221  -0.35043  -0.34482
 Alpha  occ. eigenvalues --   -0.34141  -0.33814  -0.32865  -0.31525  -0.31326
 Alpha  occ. eigenvalues --   -0.30914  -0.30365  -0.30001  -0.29903  -0.24105
 Alpha  occ. eigenvalues --   -0.21097
 Alpha virt. eigenvalues --   -0.08950  -0.01498  -0.00189   0.02103   0.02689
 Alpha virt. eigenvalues --    0.04337   0.04877   0.05254   0.05982   0.06752
 Alpha virt. eigenvalues --    0.07979   0.08476   0.08726   0.09048   0.09165

 Mulliken charges:
               1
     1  Mg   0.831465
     2  C    0.021955
     3  C   -0.090340
     4  C   -0.047496
     5  C   -0.089225
     6  N   -0.284772
     7  C   -0.016996
     8  C   -0.066320
     9  C    0.003215
    10  C    0.040384
    11  C    0.071600
    12  C    0.034724
    13  C    0.055721
    14  C    0.174074
    15  O   -0.247811
    16  O   -0.324735
    17  N   -0.332966
    18  C    0.113070
    19  C   -0.148188
    20  C   -0.011935
    21  C    0.078694
    22  C    0.090044
    23  C   -0.009682
    24  O   -0.187145
    25  C    0.043927
    26  N   -0.273243
    27  C    0.048905
    28  C   -0.063088
    29  C    0.028166
    30  C    0.055235
    31  C    0.051148
    32  C    0.012047
    33  C    0.018593
    34  N   -0.392999
    35  C    0.104584
    36  C   -0.145077
    37  C   -0.007654
    38  C    0.098505
    39  C    0.131181
    40  C    0.089205
    41  O   -0.165760
    42  C   -0.073990
    43  C    0.222144
    44  O   -0.245466
    45  O   -0.344653
    46  C    0.193656
    47  C    0.279993
    48  C   -0.164533
    49  C   -0.152966
    50  C    0.096349
    51  C    0.041196
    52  C    0.005851
    53  C    0.093305
    54  C   -0.138394
    55  C    0.039530
    56  C    0.027491
    57  C    0.038250
    58  C    0.080317
    59  C   -0.131930
    60  C    0.042687
    61  C    0.064864
    62  C   -0.026345
    63  C    0.092113
    64  C   -0.165397
    65  C    0.034622
    66  C    0.057812
    67  H   -0.030649
    68  H   -0.005686
    69  H   -0.032104
    70  H    0.025515
    71  H   -0.000225
    72  H    0.005912
    73  H    0.029769
    74  H    0.026587
    75  H    0.011976
    76  H    0.041397
    77  H    0.017485
    78  H    0.035470
    79  H    0.010079
    80  H    0.017529
    81  H    0.046637
    82  H    0.015609
    83  H    0.047522
    84  H    0.030648
    85  H    0.027035
    86  H    0.001987
    87  H    0.028130
    88  H    0.005192
    89  H    0.020086
    90  H    0.007571
    91  H    0.003396
    92  H    0.009778
    93  H    0.018459
    94  H    0.023160
    95  H    0.036179
    96  H    0.041860
    97  H   -0.001062
    98  H    0.057843
    99  H    0.041149
   100  H    0.013019
   101  H    0.037373
   102  H    0.050257
   103  H    0.040106
   104  H    0.008629
   105  H    0.015841
   106  H    0.025650
   107  H    0.019449
   108  H    0.001726
   109  H   -0.000404
   110  H   -0.000956
   111  H   -0.012311
   112  H   -0.007762
   113  H   -0.008035
   114  H   -0.001895
   115  H    0.008234
   116  H   -0.006997
   117  H    0.019372
   118  H   -0.008497
   119  H   -0.003295
   120  H   -0.012061
   121  H   -0.009246
   122  H   -0.012706
   123  H   -0.009787
   124  H   -0.001140
   125  H    0.006929
   126  H    0.007971
   127  H   -0.007976
   128  H   -0.011278
   129  H   -0.007731
   130  H   -0.014695
   131  H   -0.016848
   132  H   -0.009760
   133  H   -0.000817
   134  H   -0.006324
   135  H   -0.007745
   136  H    0.016234
   137  H    0.012130
   138  H   -0.000944
   139  H    0.025383
   140  H   -0.000838
 Sum of Mulliken charges =  -0.00000

 Dipole moment (field-independent basis, Debye):
    X=             -2.8565    Y=              3.7201    Z=             -1.2110  Tot=              4.8441
 Quadrupole moment (field-independent basis, Debye-Ang):
   XX=           -373.3798   YY=           -425.6969   ZZ=           -405.6961
   XY=              5.2604   XZ=             18.4084   YZ=              0.3783

 Normal termination of Gaussian 16 at Sat Apr 30 14:01:11 2022.
