 Gaussian 16, Revision A.03,
 Gaussian 16:  ES64L-G16RevA.03 25-Dec-2016

 ---------------------------------
 #p PBE1PBE/Def2SVP td=(nstates=5)
 ---------------------------------

 ----------------------------------------------------
 step_751_chromophore_7 TDDFT with PBE1PBE functional
 ----------------------------------------------------
 Symbolic Z-matrix:
 Charge =  0 Multiplicity = 1

                         Standard orientation:
 ---------------------------------------------------------------------
 Center     Atomic      Atomic             Coordinates (Angstroms)
 Number     Number       Type             X           Y           Z
 ---------------------------------------------------------------------
      1         12           0        6.276293    0.506058    0.283434
      2          6           0        4.012356   -2.053509    0.288869
      3          6           0        3.917665    2.453999   -1.460019
      4          6           0        8.577864    2.999412   -0.090806
      5          6           0        8.747881   -1.580784    1.509686
      6          7           0        4.215063    0.291587   -0.500741
      7          6           0        3.499031   -0.886160   -0.261291
      8          6           0        2.034402   -0.746241   -0.737153
      9          6           0        2.088756    0.623844   -1.474962
     10          6           0        3.433431    1.188952   -1.119320
     11          6           0        1.700454    0.602442   -2.991980
     12          6           0        1.049457   -1.109924    0.422263
     13          6           0       -0.302129   -0.304331    0.550517
     14          6           0       -1.575374   -1.213032    0.825059
     15          8           0       -1.515344   -2.171254    1.600907
     16          8           0       -2.683644   -0.845340    0.120174
     17          7           0        6.207803    2.541910   -0.460879
     18          6           0        5.172674    3.106833   -1.152171
     19          6           0        5.553805    4.495526   -1.379935
     20          6           0        6.922250    4.667956   -1.080970
     21          6           0        7.281666    3.380335   -0.486672
     22          6           0        4.510281    5.476892   -2.063589
     23          6           0        7.752961    5.879330   -1.205364
     24          8           0        8.881507    5.981483   -0.778022
     25          6           0        7.132484    7.077649   -1.810326
     26          7           0        8.399562    0.698932    0.664986
     27          6           0        9.094072    1.821621    0.337783
     28          6           0       10.522804    1.714600    0.870821
     29          6           0       10.578903    0.229519    1.273702
     30          6           0        9.156725   -0.289804    1.146784
     31          6           0       11.553856    2.234888   -0.186747
     32          6           0       11.194065   -0.095363    2.678883
     33          6           0       12.112557   -1.298052    2.919179
     34          7           0        6.456737   -1.444775    0.684527
     35          6           0        7.513265   -2.204102    1.188460
     36          6           0        7.089878   -3.603170    1.294012
     37          6           0        5.711187   -3.608431    0.938463
     38          6           0        5.384714   -2.245165    0.614278
     39          6           0        7.968781   -4.698852    1.728281
     40          6           0        4.560465   -4.436262    0.994030
     41          8           0        4.376377   -5.636455    1.204973
     42          6           0        3.423238   -3.405520    0.522772
     43          6           0        2.853510   -3.923283   -0.765964
     44          8           0        3.029203   -3.594379   -1.956690
     45          8           0        1.820262   -4.812991   -0.466682
     46          6           0        0.905773   -5.153299   -1.548899
     47          6           0       -3.816358   -1.775505    0.332327
     48          6           0       -4.936812   -1.383189   -0.616672
     49          6           0       -6.049939   -2.101151   -1.027363
     50          6           0       -6.338482   -3.593319   -0.728279
     51          6           0       -7.102956   -1.413819   -1.943943
     52          6           0       -8.491328   -1.148292   -1.300084
     53          6           0       -9.433325   -0.285357   -2.059912
     54          6           0      -10.776489   -1.020257   -2.494609
     55          6           0      -10.707646   -1.740762   -3.901175
     56          6           0      -12.008203   -0.045179   -2.407918
     57          6           0      -13.260899   -0.612093   -1.862709
     58          6           0      -14.231997    0.443847   -1.357078
     59          6           0      -14.443447    0.399690    0.150825
     60          6           0      -15.503162   -0.708107    0.512694
     61          6           0      -14.819545    1.710276    0.734566
     62          6           0      -13.671275    2.514041    1.370716
     63          6           0      -13.954813    3.516169    2.496504
     64          6           0      -14.040634    2.924862    3.948853
     65          6           0      -15.433242    3.205674    4.566532
     66          6           0      -12.944500    3.549572    4.883850
     67          1           0        3.255952    3.042974   -2.098603
     68          1           0        9.291336    3.774551   -0.377814
     69          1           0        9.436430   -2.222486    2.062534
     70          1           0        1.802515   -1.494515   -1.494252
     71          1           0        1.344371    1.280443   -1.023239
     72          1           0        1.803063    1.589711   -3.440789
     73          1           0        0.683626    0.231365   -3.122566
     74          1           0        2.474490    0.088647   -3.562066
     75          1           0        1.619034   -0.908532    1.329412
     76          1           0        0.820030   -2.173504    0.356520
     77          1           0       -0.378037    0.327289   -0.334951
     78          1           0       -0.164848    0.413415    1.358269
     79          1           0        4.607534    6.531167   -1.804700
     80          1           0        3.553485    5.276984   -1.581122
     81          1           0        4.480937    5.336486   -3.143697
     82          1           0        7.871930    7.856456   -1.991491
     83          1           0        6.393367    7.575896   -1.182891
     84          1           0        6.708400    6.804525   -2.777280
     85          1           0       10.508182    2.429505    1.693623
     86          1           0       11.182216   -0.282732    0.523168
     87          1           0       11.254943    2.304533   -1.232000
     88          1           0       12.492189    1.681193   -0.155768
     89          1           0       11.863775    3.244515    0.082024
     90          1           0       10.323033   -0.042303    3.332483
     91          1           0       11.826210    0.758049    2.924747
     92          1           0       11.879548   -2.081131    2.198472
     93          1           0       11.958709   -1.828117    3.859134
     94          1           0       13.141367   -0.956659    2.809607
     95          1           0        8.293157   -5.186408    0.808766
     96          1           0        7.515413   -5.448079    2.377096
     97          1           0        8.870994   -4.290808    2.185428
     98          1           0        2.562295   -3.314688    1.184340
     99          1           0        1.431383   -5.532069   -2.425160
    100          1           0        0.389645   -4.224857   -1.795317
    101          1           0        0.153152   -5.867886   -1.216231
    102          1           0       -4.181977   -1.683441    1.355069
    103          1           0       -3.566006   -2.788806    0.020379
    104          1           0       -4.799164   -0.347572   -0.927149
    105          1           0       -6.826696   -4.021208   -1.604019
    106          1           0       -7.139042   -3.691185    0.004600
    107          1           0       -5.423583   -4.035146   -0.332977
    108          1           0       -7.253786   -2.089855   -2.785424
    109          1           0       -6.736441   -0.460364   -2.323911
    110          1           0       -8.287962   -0.746963   -0.306982
    111          1           0       -8.890500   -2.150940   -1.148322
    112          1           0       -8.873885    0.096264   -2.914423
    113          1           0       -9.775768    0.571171   -1.478803
    114          1           0      -10.839295   -1.844189   -1.784651
    115          1           0      -11.486355   -2.502081   -3.947216
    116          1           0       -9.818142   -2.361038   -4.012817
    117          1           0      -10.698272   -1.048886   -4.742267
    118          1           0      -12.309461    0.259770   -3.410025
    119          1           0      -11.798088    0.846092   -1.815676
    120          1           0      -12.786338   -1.279352   -1.143409
    121          1           0      -13.683611   -1.244251   -2.643980
    122          1           0      -15.216429    0.339501   -1.813182
    123          1           0      -13.981188    1.467465   -1.632979
    124          1           0      -13.522425    0.005955    0.581731
    125          1           0      -16.235232   -0.431000    1.271371
    126          1           0      -15.060601   -1.672887    0.761220
    127          1           0      -16.112378   -0.925619   -0.364490
    128          1           0      -15.671995    1.612078    1.406969
    129          1           0      -15.107690    2.460150   -0.002223
    130          1           0      -13.225941    3.090662    0.559594
    131          1           0      -12.906872    1.774240    1.610325
    132          1           0      -14.943790    3.856649    2.188736
    133          1           0      -13.175909    4.278031    2.475720
    134          1           0      -14.040559    1.834932    3.951103
    135          1           0      -16.129883    2.821967    3.820820
    136          1           0      -15.536076    4.287046    4.653144
    137          1           0      -15.593275    2.536726    5.412652
    138          1           0      -12.580703    4.481108    4.449585
    139          1           0      -12.190928    2.785567    5.073954
    140          1           0      -13.392085    3.958017    5.789716
 ---------------------------------------------------------------------

 SCF Done:  E(RPBE1PBE) =  -3005.38106855     A.U. after   15 cycles

 Excitation energies and oscillator strengths:

 Excited State   1:      Singlet-A      1.8221 eV  680.44 nm  f=0.3790  <S**2>=0.000
     245 -> 248        0.16816
     246 -> 247        0.69569
     246 <- 247       -0.11666
 This state for optimization and/or second-order correction.
 Total Energy, E(TD-HF/TD-DFT) =  -3005.31410659
 Copying the excited state density for this state as the 1-particle RhoCI density.

 Excited State   2:      Singlet-A      2.2020 eV  563.06 nm  f=0.1249  <S**2>=0.000
     245 -> 247        0.65942
     246 -> 248       -0.24452

 Excited State   3:      Singlet-A      3.0238 eV  410.03 nm  f=0.0003  <S**2>=0.000
     242 -> 247        0.57472
     242 -> 249       -0.16426
     243 -> 247        0.33491

 Excited State   4:      Singlet-A      3.0557 eV  405.75 nm  f=0.0003  <S**2>=0.000
     241 -> 247        0.28389
     242 -> 247       -0.27803
     243 -> 247        0.54867

 Excited State   5:      Singlet-A      3.1426 eV  394.52 nm  f=0.0006  <S**2>=0.000
     240 -> 247        0.33046
     241 -> 247        0.51743
     242 -> 247        0.16455
     243 -> 247       -0.26669

 The electronic state is 1-A.
 Alpha  occ. eigenvalues --  -46.92116 -19.27138 -19.24127 -19.20577 -19.19832
 Alpha  occ. eigenvalues --  -19.19372 -19.18996 -14.41790 -14.41126 -14.39296
 Alpha  occ. eigenvalues --  -14.39193 -10.37529 -10.36265 -10.32441 -10.31732
 Alpha  occ. eigenvalues --  -10.30233 -10.29044 -10.28720 -10.28404 -10.28055
 Alpha  occ. eigenvalues --  -10.28031 -10.27946 -10.27684 -10.27599 -10.27023
 Alpha  occ. eigenvalues --  -10.26663 -10.26285 -10.26138 -10.26046 -10.26015
 Alpha  occ. eigenvalues --  -10.25986 -10.25431 -10.25356 -10.25320 -10.25095
 Alpha  occ. eigenvalues --  -10.25034 -10.24921 -10.24769 -10.24605 -10.24410
 Alpha  occ. eigenvalues --  -10.24377 -10.24277 -10.24266 -10.24049 -10.23928
 Alpha  occ. eigenvalues --  -10.23703 -10.23583 -10.23303 -10.23254 -10.23181
 Alpha  occ. eigenvalues --  -10.23157 -10.23048 -10.23030 -10.22763 -10.22689
 Alpha  occ. eigenvalues --  -10.22664 -10.22624 -10.22458 -10.22301 -10.22023
 Alpha  occ. eigenvalues --  -10.21971 -10.21853 -10.21834 -10.21759 -10.21720
 Alpha  occ. eigenvalues --  -10.21696  -3.14213  -1.87069  -1.86569  -1.86447
 Alpha  occ. eigenvalues --   -1.11736  -1.09387  -1.05588  -1.03853  -1.02818
 Alpha  occ. eigenvalues --   -1.00536  -0.99146  -0.98456  -0.97985  -0.97275
 Alpha  occ. eigenvalues --   -0.87413  -0.84983  -0.84085  -0.83308  -0.83187
 Alpha  occ. eigenvalues --   -0.82754  -0.82571  -0.81933  -0.81638  -0.81114
 Alpha  occ. eigenvalues --   -0.81035  -0.79879  -0.79067  -0.77947  -0.77779
 Alpha  occ. eigenvalues --   -0.76927  -0.76147  -0.75717  -0.75352  -0.74756
 Alpha  occ. eigenvalues --   -0.74301  -0.73023  -0.72276  -0.71597  -0.70327
 Alpha  occ. eigenvalues --   -0.70065  -0.69641  -0.69318  -0.69120  -0.68893
 Alpha  occ. eigenvalues --   -0.67694  -0.67383  -0.66529  -0.65111  -0.63570
 Alpha  occ. eigenvalues --   -0.63497  -0.62613  -0.62028  -0.60756  -0.60058
 Alpha  occ. eigenvalues --   -0.59839  -0.59660  -0.59032  -0.58852  -0.58364
 Alpha  occ. eigenvalues --   -0.57934  -0.57821  -0.56641  -0.55818  -0.54892
 Alpha  occ. eigenvalues --   -0.54643  -0.54236  -0.54087  -0.53274  -0.52266
 Alpha  occ. eigenvalues --   -0.51933  -0.51670  -0.51162  -0.50723  -0.50233
 Alpha  occ. eigenvalues --   -0.49778  -0.49339  -0.49109  -0.48998  -0.48544
 Alpha  occ. eigenvalues --   -0.48325  -0.48102  -0.47946  -0.47876  -0.47558
 Alpha  occ. eigenvalues --   -0.47169  -0.47071  -0.46991  -0.46827  -0.46707
 Alpha  occ. eigenvalues --   -0.46223  -0.46088  -0.45690  -0.45178  -0.45116
 Alpha  occ. eigenvalues --   -0.44909  -0.44889  -0.44693  -0.44420  -0.44223
 Alpha  occ. eigenvalues --   -0.44039  -0.43900  -0.43700  -0.43579  -0.43419
 Alpha  occ. eigenvalues --   -0.43122  -0.43067  -0.42793  -0.42748  -0.42468
 Alpha  occ. eigenvalues --   -0.42401  -0.42101  -0.41922  -0.41592  -0.41350
 Alpha  occ. eigenvalues --   -0.41319  -0.41117  -0.40986  -0.40763  -0.40459
 Alpha  occ. eigenvalues --   -0.40253  -0.40115  -0.39893  -0.39840  -0.39734
 Alpha  occ. eigenvalues --   -0.39565  -0.39471  -0.39274  -0.39150  -0.38866
 Alpha  occ. eigenvalues --   -0.38740  -0.38290  -0.38069  -0.37934  -0.37776
 Alpha  occ. eigenvalues --   -0.37502  -0.37334  -0.37130  -0.37086  -0.36819
 Alpha  occ. eigenvalues --   -0.36666  -0.36542  -0.36459  -0.35886  -0.35611
 Alpha  occ. eigenvalues --   -0.35453  -0.35235  -0.35220  -0.34804  -0.34668
 Alpha  occ. eigenvalues --   -0.34504  -0.34318  -0.34056  -0.33971  -0.33848
 Alpha  occ. eigenvalues --   -0.33666  -0.33151  -0.32928  -0.32873  -0.32717
 Alpha  occ. eigenvalues --   -0.32455  -0.31788  -0.31540  -0.31250  -0.31167
 Alpha  occ. eigenvalues --   -0.31071  -0.30535  -0.30153  -0.29934  -0.29434
 Alpha  occ. eigenvalues --   -0.29215  -0.28793  -0.28300  -0.27147  -0.26193
 Alpha  occ. eigenvalues --   -0.25895  -0.25883  -0.25578  -0.25238  -0.21035
 Alpha  occ. eigenvalues --   -0.18754
 Alpha virt. eigenvalues --   -0.11388  -0.05039  -0.04385  -0.02241  -0.00279
 Alpha virt. eigenvalues --   -0.00094   0.00359   0.00724   0.01680   0.03421
 Alpha virt. eigenvalues --    0.03849   0.04998   0.05187   0.05271   0.05798

 Mulliken charges:
               1
     1  Mg   0.978685
     2  C    0.013202
     3  C   -0.087283
     4  C   -0.037420
     5  C   -0.087015
     6  N   -0.390982
     7  C    0.041889
     8  C   -0.117227
     9  C   -0.080941
    10  C    0.085727
    11  C    0.010316
    12  C   -0.022370
    13  C   -0.018261
    14  C    0.235537
    15  O   -0.276954
    16  O   -0.356807
    17  N   -0.446411
    18  C    0.138498
    19  C   -0.168022
    20  C   -0.066878
    21  C    0.116520
    22  C    0.028931
    23  C    0.040164
    24  O   -0.227316
    25  C   -0.030660
    26  N   -0.385685
    27  C    0.090564
    28  C   -0.142593
    29  C   -0.052398
    30  C    0.099276
    31  C   -0.005698
    32  C   -0.053162
    33  C   -0.052858
    34  N   -0.522459
    35  C    0.132728
    36  C   -0.171954
    37  C   -0.036975
    38  C    0.151329
    39  C    0.079548
    40  C    0.167647
    41  O   -0.211516
    42  C   -0.178283
    43  C    0.307885
    44  O   -0.278236
    45  O   -0.375557
    46  C    0.137581
    47  C    0.238382
    48  C   -0.172570
    49  C   -0.197513
    50  C    0.032907
    51  C   -0.024846
    52  C   -0.056236
    53  C    0.038912
    54  C   -0.224719
    55  C   -0.020036
    56  C   -0.025972
    57  C   -0.024206
    58  C    0.023858
    59  C   -0.222132
    60  C   -0.011601
    61  C    0.010812
    62  C   -0.086324
    63  C    0.032890
    64  C   -0.253064
    65  C   -0.033666
    66  C   -0.002018
    67  H    0.002181
    68  H    0.025679
    69  H    0.004380
    70  H    0.066529
    71  H    0.039618
    72  H    0.033956
    73  H    0.057133
    74  H    0.054624
    75  H    0.046151
    76  H    0.076176
    77  H    0.050837
    78  H    0.067851
    79  H    0.037308
    80  H    0.044481
    81  H    0.073471
    82  H    0.043795
    83  H    0.073424
    84  H    0.058334
    85  H    0.064159
    86  H    0.041547
    87  H    0.055139
    88  H    0.033681
    89  H    0.047366
    90  H    0.040910
    91  H    0.038055
    92  H    0.035956
    93  H    0.046254
    94  H    0.050726
    95  H    0.065070
    96  H    0.068463
    97  H    0.026923
    98  H    0.093624
    99  H    0.063099
   100  H    0.036211
   101  H    0.059372
   102  H    0.077177
   103  H    0.066347
   104  H    0.038443
   105  H    0.042416
   106  H    0.053530
   107  H    0.047009
   108  H    0.036307
   109  H    0.031265
   110  H    0.032798
   111  H    0.020777
   112  H    0.024821
   113  H    0.025220
   114  H    0.035063
   115  H    0.036367
   116  H    0.021921
   117  H    0.046025
   118  H    0.025451
   119  H    0.028851
   120  H    0.020385
   121  H    0.024153
   122  H    0.020270
   123  H    0.021943
   124  H    0.036833
   125  H    0.033146
   126  H    0.035074
   127  H    0.019124
   128  H    0.021776
   129  H    0.025370
   130  H    0.018638
   131  H    0.016312
   132  H    0.023359
   133  H    0.030749
   134  H    0.030817
   135  H    0.022750
   136  H    0.044276
   137  H    0.040884
   138  H    0.025577
   139  H    0.052533
   140  H    0.026795
 Sum of Mulliken charges =  -0.00000

 Dipole moment (field-independent basis, Debye):
    X=             -2.8574    Y=              3.5098    Z=             -1.1744  Tot=              4.6757
 Quadrupole moment (field-independent basis, Debye-Ang):
   XX=           -366.9101   YY=           -423.2599   ZZ=           -403.0850
   XY=              3.9132   XZ=             19.9810   YZ=              0.0893

 Normal termination of Gaussian 16 at Sat Apr 30 14:16:06 2022.
