 Gaussian 16, Revision A.03,
 Gaussian 16:  ES64L-G16RevA.03 25-Dec-2016

 --------------------------------
 #p wB97XD/Def2SVP td=(nstates=5)
 --------------------------------

 ---------------------------------------------------
 step_751_chromophore_7 TDDFT with wB97XD functional
 ---------------------------------------------------
 Symbolic Z-matrix:
 Charge =  0 Multiplicity = 1

                         Standard orientation:
 ---------------------------------------------------------------------
 Center     Atomic      Atomic             Coordinates (Angstroms)
 Number     Number       Type             X           Y           Z
 ---------------------------------------------------------------------
      1         12           0        6.276293    0.506058    0.283434
      2          6           0        4.012356   -2.053509    0.288869
      3          6           0        3.917665    2.453999   -1.460019
      4          6           0        8.577864    2.999412   -0.090806
      5          6           0        8.747881   -1.580784    1.509686
      6          7           0        4.215063    0.291587   -0.500741
      7          6           0        3.499031   -0.886160   -0.261291
      8          6           0        2.034402   -0.746241   -0.737153
      9          6           0        2.088756    0.623844   -1.474962
     10          6           0        3.433431    1.188952   -1.119320
     11          6           0        1.700454    0.602442   -2.991980
     12          6           0        1.049457   -1.109924    0.422263
     13          6           0       -0.302129   -0.304331    0.550517
     14          6           0       -1.575374   -1.213032    0.825059
     15          8           0       -1.515344   -2.171254    1.600907
     16          8           0       -2.683644   -0.845340    0.120174
     17          7           0        6.207803    2.541910   -0.460879
     18          6           0        5.172674    3.106833   -1.152171
     19          6           0        5.553805    4.495526   -1.379935
     20          6           0        6.922250    4.667956   -1.080970
     21          6           0        7.281666    3.380335   -0.486672
     22          6           0        4.510281    5.476892   -2.063589
     23          6           0        7.752961    5.879330   -1.205364
     24          8           0        8.881507    5.981483   -0.778022
     25          6           0        7.132484    7.077649   -1.810326
     26          7           0        8.399562    0.698932    0.664986
     27          6           0        9.094072    1.821621    0.337783
     28          6           0       10.522804    1.714600    0.870821
     29          6           0       10.578903    0.229519    1.273702
     30          6           0        9.156725   -0.289804    1.146784
     31          6           0       11.553856    2.234888   -0.186747
     32          6           0       11.194065   -0.095363    2.678883
     33          6           0       12.112557   -1.298052    2.919179
     34          7           0        6.456737   -1.444775    0.684527
     35          6           0        7.513265   -2.204102    1.188460
     36          6           0        7.089878   -3.603170    1.294012
     37          6           0        5.711187   -3.608431    0.938463
     38          6           0        5.384714   -2.245165    0.614278
     39          6           0        7.968781   -4.698852    1.728281
     40          6           0        4.560465   -4.436262    0.994030
     41          8           0        4.376377   -5.636455    1.204973
     42          6           0        3.423238   -3.405520    0.522772
     43          6           0        2.853510   -3.923283   -0.765964
     44          8           0        3.029203   -3.594379   -1.956690
     45          8           0        1.820262   -4.812991   -0.466682
     46          6           0        0.905773   -5.153299   -1.548899
     47          6           0       -3.816358   -1.775505    0.332327
     48          6           0       -4.936812   -1.383189   -0.616672
     49          6           0       -6.049939   -2.101151   -1.027363
     50          6           0       -6.338482   -3.593319   -0.728279
     51          6           0       -7.102956   -1.413819   -1.943943
     52          6           0       -8.491328   -1.148292   -1.300084
     53          6           0       -9.433325   -0.285357   -2.059912
     54          6           0      -10.776489   -1.020257   -2.494609
     55          6           0      -10.707646   -1.740762   -3.901175
     56          6           0      -12.008203   -0.045179   -2.407918
     57          6           0      -13.260899   -0.612093   -1.862709
     58          6           0      -14.231997    0.443847   -1.357078
     59          6           0      -14.443447    0.399690    0.150825
     60          6           0      -15.503162   -0.708107    0.512694
     61          6           0      -14.819545    1.710276    0.734566
     62          6           0      -13.671275    2.514041    1.370716
     63          6           0      -13.954813    3.516169    2.496504
     64          6           0      -14.040634    2.924862    3.948853
     65          6           0      -15.433242    3.205674    4.566532
     66          6           0      -12.944500    3.549572    4.883850
     67          1           0        3.255952    3.042974   -2.098603
     68          1           0        9.291336    3.774551   -0.377814
     69          1           0        9.436430   -2.222486    2.062534
     70          1           0        1.802515   -1.494515   -1.494252
     71          1           0        1.344371    1.280443   -1.023239
     72          1           0        1.803063    1.589711   -3.440789
     73          1           0        0.683626    0.231365   -3.122566
     74          1           0        2.474490    0.088647   -3.562066
     75          1           0        1.619034   -0.908532    1.329412
     76          1           0        0.820030   -2.173504    0.356520
     77          1           0       -0.378037    0.327289   -0.334951
     78          1           0       -0.164848    0.413415    1.358269
     79          1           0        4.607534    6.531167   -1.804700
     80          1           0        3.553485    5.276984   -1.581122
     81          1           0        4.480937    5.336486   -3.143697
     82          1           0        7.871930    7.856456   -1.991491
     83          1           0        6.393367    7.575896   -1.182891
     84          1           0        6.708400    6.804525   -2.777280
     85          1           0       10.508182    2.429505    1.693623
     86          1           0       11.182216   -0.282732    0.523168
     87          1           0       11.254943    2.304533   -1.232000
     88          1           0       12.492189    1.681193   -0.155768
     89          1           0       11.863775    3.244515    0.082024
     90          1           0       10.323033   -0.042303    3.332483
     91          1           0       11.826210    0.758049    2.924747
     92          1           0       11.879548   -2.081131    2.198472
     93          1           0       11.958709   -1.828117    3.859134
     94          1           0       13.141367   -0.956659    2.809607
     95          1           0        8.293157   -5.186408    0.808766
     96          1           0        7.515413   -5.448079    2.377096
     97          1           0        8.870994   -4.290808    2.185428
     98          1           0        2.562295   -3.314688    1.184340
     99          1           0        1.431383   -5.532069   -2.425160
    100          1           0        0.389645   -4.224857   -1.795317
    101          1           0        0.153152   -5.867886   -1.216231
    102          1           0       -4.181977   -1.683441    1.355069
    103          1           0       -3.566006   -2.788806    0.020379
    104          1           0       -4.799164   -0.347572   -0.927149
    105          1           0       -6.826696   -4.021208   -1.604019
    106          1           0       -7.139042   -3.691185    0.004600
    107          1           0       -5.423583   -4.035146   -0.332977
    108          1           0       -7.253786   -2.089855   -2.785424
    109          1           0       -6.736441   -0.460364   -2.323911
    110          1           0       -8.287962   -0.746963   -0.306982
    111          1           0       -8.890500   -2.150940   -1.148322
    112          1           0       -8.873885    0.096264   -2.914423
    113          1           0       -9.775768    0.571171   -1.478803
    114          1           0      -10.839295   -1.844189   -1.784651
    115          1           0      -11.486355   -2.502081   -3.947216
    116          1           0       -9.818142   -2.361038   -4.012817
    117          1           0      -10.698272   -1.048886   -4.742267
    118          1           0      -12.309461    0.259770   -3.410025
    119          1           0      -11.798088    0.846092   -1.815676
    120          1           0      -12.786338   -1.279352   -1.143409
    121          1           0      -13.683611   -1.244251   -2.643980
    122          1           0      -15.216429    0.339501   -1.813182
    123          1           0      -13.981188    1.467465   -1.632979
    124          1           0      -13.522425    0.005955    0.581731
    125          1           0      -16.235232   -0.431000    1.271371
    126          1           0      -15.060601   -1.672887    0.761220
    127          1           0      -16.112378   -0.925619   -0.364490
    128          1           0      -15.671995    1.612078    1.406969
    129          1           0      -15.107690    2.460150   -0.002223
    130          1           0      -13.225941    3.090662    0.559594
    131          1           0      -12.906872    1.774240    1.610325
    132          1           0      -14.943790    3.856649    2.188736
    133          1           0      -13.175909    4.278031    2.475720
    134          1           0      -14.040559    1.834932    3.951103
    135          1           0      -16.129883    2.821967    3.820820
    136          1           0      -15.536076    4.287046    4.653144
    137          1           0      -15.593275    2.536726    5.412652
    138          1           0      -12.580703    4.481108    4.449585
    139          1           0      -12.190928    2.785567    5.073954
    140          1           0      -13.392085    3.958017    5.789716
 ---------------------------------------------------------------------

 SCF Done:  E(RwB97XD) =  -3007.88669876     A.U. after   20 cycles

 Excitation energies and oscillator strengths:

 Excited State   1:      Singlet-A      1.6084 eV  770.87 nm  f=0.3963  <S**2>=0.000
     245 -> 248        0.18048
     246 -> 247        0.68500
     245 <- 248        0.11735
 This state for optimization and/or second-order correction.
 Total Energy, E(TD-HF/TD-DFT) =  -3007.82759207
 Copying the excited state density for this state as the 1-particle RhoCI density.

 Excited State   2:      Singlet-A      2.1486 eV  577.06 nm  f=0.1252  <S**2>=0.000
     245 -> 247        0.64549
     246 -> 248       -0.27533

 Excited State   3:      Singlet-A      3.4312 eV  361.34 nm  f=0.0318  <S**2>=0.000
     242 -> 247       -0.28210
     243 -> 247        0.58600
     246 -> 248       -0.20003

 Excited State   4:      Singlet-A      3.5238 eV  351.85 nm  f=0.3034  <S**2>=0.000
     241 -> 247       -0.26517
     241 -> 249        0.15991
     242 -> 247        0.16653
     243 -> 247        0.27055
     245 -> 247        0.18558
     246 -> 248        0.49002

 Excited State   5:      Singlet-A      3.5737 eV  346.94 nm  f=0.0709  <S**2>=0.000
     241 -> 247        0.47178
     241 -> 249       -0.30629
     241 -> 250        0.16905
     242 -> 247        0.19864
     243 -> 247        0.16796
     246 -> 248        0.20940

 The electronic state is 1-A.
 Alpha  occ. eigenvalues --  -46.95047 -19.31687 -19.28683 -19.25213 -19.24519
 Alpha  occ. eigenvalues --  -19.24108 -19.23918 -14.46805 -14.46268 -14.44198
 Alpha  occ. eigenvalues --  -14.44183 -10.44276 -10.43070 -10.39286 -10.38686
 Alpha  occ. eigenvalues --  -10.36714 -10.35277 -10.35125 -10.34570 -10.34552
 Alpha  occ. eigenvalues --  -10.34513 -10.34080 -10.34049 -10.34037 -10.33271
 Alpha  occ. eigenvalues --  -10.33249 -10.32686 -10.32475 -10.32453 -10.32394
 Alpha  occ. eigenvalues --  -10.32248 -10.31668 -10.31588 -10.31535 -10.31387
 Alpha  occ. eigenvalues --  -10.31363 -10.31279 -10.31208 -10.31139 -10.30937
 Alpha  occ. eigenvalues --  -10.30722 -10.30656 -10.30649 -10.30454 -10.30200
 Alpha  occ. eigenvalues --  -10.30084 -10.29974 -10.29625 -10.29573 -10.29566
 Alpha  occ. eigenvalues --  -10.29520 -10.29354 -10.29348 -10.29326 -10.29151
 Alpha  occ. eigenvalues --  -10.29064 -10.29032 -10.28820 -10.28669 -10.28397
 Alpha  occ. eigenvalues --  -10.28340 -10.28266 -10.28220 -10.28137 -10.28126
 Alpha  occ. eigenvalues --  -10.28124  -3.21005  -1.94612  -1.94110  -1.93983
 Alpha  occ. eigenvalues --   -1.19093  -1.16781  -1.13169  -1.11283  -1.10139
 Alpha  occ. eigenvalues --   -1.07904  -1.06522  -1.05834  -1.05343  -1.04658
 Alpha  occ. eigenvalues --   -0.94985  -0.92640  -0.91766  -0.90929  -0.90797
 Alpha  occ. eigenvalues --   -0.90421  -0.90131  -0.89514  -0.89302  -0.88840
 Alpha  occ. eigenvalues --   -0.88707  -0.87532  -0.86717  -0.85551  -0.85404
 Alpha  occ. eigenvalues --   -0.84573  -0.83830  -0.83424  -0.83040  -0.82388
 Alpha  occ. eigenvalues --   -0.81964  -0.80679  -0.79942  -0.79211  -0.78013
 Alpha  occ. eigenvalues --   -0.77676  -0.77224  -0.77017  -0.76799  -0.76545
 Alpha  occ. eigenvalues --   -0.75282  -0.74921  -0.74097  -0.72694  -0.71103
 Alpha  occ. eigenvalues --   -0.71009  -0.70215  -0.69646  -0.68370  -0.67516
 Alpha  occ. eigenvalues --   -0.67307  -0.67172  -0.66525  -0.66413  -0.66050
 Alpha  occ. eigenvalues --   -0.65484  -0.65404  -0.64293  -0.63217  -0.62361
 Alpha  occ. eigenvalues --   -0.62139  -0.61670  -0.61484  -0.60579  -0.59648
 Alpha  occ. eigenvalues --   -0.59423  -0.59190  -0.58639  -0.58110  -0.57650
 Alpha  occ. eigenvalues --   -0.57231  -0.56816  -0.56452  -0.56404  -0.55930
 Alpha  occ. eigenvalues --   -0.55709  -0.55517  -0.55310  -0.55263  -0.54964
 Alpha  occ. eigenvalues --   -0.54706  -0.54510  -0.54395  -0.54209  -0.54044
 Alpha  occ. eigenvalues --   -0.53575  -0.53443  -0.53044  -0.52476  -0.52426
 Alpha  occ. eigenvalues --   -0.52298  -0.52278  -0.52069  -0.51721  -0.51563
 Alpha  occ. eigenvalues --   -0.51375  -0.51189  -0.51011  -0.50896  -0.50701
 Alpha  occ. eigenvalues --   -0.50417  -0.50348  -0.50123  -0.50057  -0.49859
 Alpha  occ. eigenvalues --   -0.49666  -0.49386  -0.49199  -0.48821  -0.48606
 Alpha  occ. eigenvalues --   -0.48567  -0.48351  -0.48139  -0.47932  -0.47586
 Alpha  occ. eigenvalues --   -0.47494  -0.47315  -0.47067  -0.47015  -0.46895
 Alpha  occ. eigenvalues --   -0.46730  -0.46652  -0.46396  -0.46258  -0.45971
 Alpha  occ. eigenvalues --   -0.45891  -0.45424  -0.45253  -0.45072  -0.44921
 Alpha  occ. eigenvalues --   -0.44691  -0.44416  -0.44286  -0.44252  -0.43953
 Alpha  occ. eigenvalues --   -0.43712  -0.43661  -0.43506  -0.42955  -0.42690
 Alpha  occ. eigenvalues --   -0.42559  -0.42315  -0.42180  -0.41784  -0.41772
 Alpha  occ. eigenvalues --   -0.41544  -0.41401  -0.41025  -0.40907  -0.40865
 Alpha  occ. eigenvalues --   -0.40700  -0.40180  -0.39966  -0.39913  -0.39641
 Alpha  occ. eigenvalues --   -0.39486  -0.38698  -0.38530  -0.38206  -0.38161
 Alpha  occ. eigenvalues --   -0.38078  -0.37474  -0.37210  -0.36871  -0.36425
 Alpha  occ. eigenvalues --   -0.36124  -0.35762  -0.35106  -0.33737  -0.33296
 Alpha  occ. eigenvalues --   -0.32906  -0.32548  -0.32179  -0.31958  -0.26035
 Alpha  occ. eigenvalues --   -0.22898
 Alpha virt. eigenvalues --   -0.07320   0.00411   0.01865   0.04195   0.05825
 Alpha virt. eigenvalues --    0.06568   0.07095   0.07481   0.08409   0.09627
 Alpha virt. eigenvalues --    0.10513   0.11760   0.11968   0.12041   0.12606

 Mulliken charges:
               1
     1  Mg   0.969275
     2  C    0.009286
     3  C   -0.102887
     4  C   -0.053444
     5  C   -0.096780
     6  N   -0.357725
     7  C    0.019851
     8  C   -0.100393
     9  C   -0.053600
    10  C    0.071085
    11  C    0.023012
    12  C   -0.004453
    13  C   -0.001830
    14  C    0.229047
    15  O   -0.276000
    16  O   -0.356297
    17  N   -0.413612
    18  C    0.131592
    19  C   -0.163775
    20  C   -0.057183
    21  C    0.105673
    22  C    0.043513
    23  C    0.037590
    24  O   -0.220395
    25  C   -0.019058
    26  N   -0.348171
    27  C    0.077306
    28  C   -0.117094
    29  C   -0.026617
    30  C    0.083961
    31  C    0.001918
    32  C   -0.035407
    33  C   -0.038028
    34  N   -0.484666
    35  C    0.120060
    36  C   -0.163756
    37  C   -0.042326
    38  C    0.133100
    39  C    0.089266
    40  C    0.156191
    41  O   -0.202162
    42  C   -0.141834
    43  C    0.284554
    44  O   -0.272588
    45  O   -0.374520
    46  C    0.154134
    47  C    0.252776
    48  C   -0.182135
    49  C   -0.185318
    50  C    0.046937
    51  C   -0.002390
    52  C   -0.037943
    53  C    0.051161
    54  C   -0.194251
    55  C   -0.007815
    56  C   -0.008131
    57  C   -0.006187
    58  C    0.039953
    59  C   -0.189937
    60  C   -0.000638
    61  C    0.026031
    62  C   -0.067508
    63  C    0.049827
    64  C   -0.229134
    65  C   -0.016407
    66  C    0.009662
    67  H   -0.006117
    68  H    0.018708
    69  H   -0.008518
    70  H    0.051655
    71  H    0.026649
    72  H    0.027650
    73  H    0.052250
    74  H    0.048738
    75  H    0.036953
    76  H    0.062605
    77  H    0.042082
    78  H    0.062802
    79  H    0.032103
    80  H    0.039362
    81  H    0.070033
    82  H    0.042686
    83  H    0.068866
    84  H    0.051859
    85  H    0.054295
    86  H    0.029600
    87  H    0.049877
    88  H    0.028268
    89  H    0.042032
    90  H    0.031494
    91  H    0.028951
    92  H    0.028573
    93  H    0.041352
    94  H    0.045920
    95  H    0.059781
    96  H    0.065199
    97  H    0.020951
    98  H    0.086974
    99  H    0.059016
   100  H    0.030115
   101  H    0.056357
   102  H    0.072938
   103  H    0.059240
   104  H    0.035411
   105  H    0.037072
   106  H    0.047717
   107  H    0.041548
   108  H    0.025230
   109  H    0.023435
   110  H    0.024624
   111  H    0.008245
   112  H    0.015861
   113  H    0.017731
   114  H    0.020446
   115  H    0.030298
   116  H    0.014875
   117  H    0.040149
   118  H    0.015863
   119  H    0.016181
   120  H    0.007730
   121  H    0.016822
   122  H    0.011524
   123  H    0.011540
   124  H    0.021572
   125  H    0.027780
   126  H    0.030066
   127  H    0.011610
   128  H    0.009713
   129  H    0.015887
   130  H    0.010170
   131  H    0.005112
   132  H    0.012540
   133  H    0.023252
   134  H    0.020535
   135  H    0.013245
   136  H    0.037641
   137  H    0.035623
   138  H    0.018742
   139  H    0.047801
   140  H    0.020743
 Sum of Mulliken charges =  -0.00000

 Dipole moment (field-independent basis, Debye):
    X=             -2.9104    Y=              3.8171    Z=             -1.2657  Tot=              4.9641
 Quadrupole moment (field-independent basis, Debye-Ang):
   XX=           -368.0118   YY=           -421.2765   ZZ=           -402.6043
   XY=              5.9441   XZ=             19.0852   YZ=             -0.1846

 Normal termination of Gaussian 16 at Sat Apr 30 14:40:06 2022.
