 Gaussian 16, Revision A.03,
 Gaussian 16:  ES64L-G16RevA.03 25-Dec-2016

 --------------------
 #p ZINDO=(nstates=5)
 --------------------

 ----------------------------
 step_751_chromophore_7 ZINDO
 ----------------------------
 Symbolic Z-matrix:
 Charge =  0 Multiplicity = 1

                         Standard orientation:
 ---------------------------------------------------------------------
 Center     Atomic      Atomic             Coordinates (Angstroms)
 Number     Number       Type             X           Y           Z
 ---------------------------------------------------------------------
      1         12           0        6.276293    0.506058    0.283434
      2          6           0        4.012356   -2.053509    0.288869
      3          6           0        3.917665    2.453999   -1.460019
      4          6           0        8.577864    2.999412   -0.090806
      5          6           0        8.747881   -1.580784    1.509686
      6          7           0        4.215063    0.291587   -0.500741
      7          6           0        3.499031   -0.886160   -0.261291
      8          6           0        2.034402   -0.746241   -0.737153
      9          6           0        2.088756    0.623844   -1.474962
     10          6           0        3.433431    1.188952   -1.119320
     11          6           0        1.700454    0.602442   -2.991980
     12          6           0        1.049457   -1.109924    0.422263
     13          6           0       -0.302129   -0.304331    0.550517
     14          6           0       -1.575374   -1.213032    0.825059
     15          8           0       -1.515344   -2.171254    1.600907
     16          8           0       -2.683644   -0.845340    0.120174
     17          7           0        6.207803    2.541910   -0.460879
     18          6           0        5.172674    3.106833   -1.152171
     19          6           0        5.553805    4.495526   -1.379935
     20          6           0        6.922250    4.667956   -1.080970
     21          6           0        7.281666    3.380335   -0.486672
     22          6           0        4.510281    5.476892   -2.063589
     23          6           0        7.752961    5.879330   -1.205364
     24          8           0        8.881507    5.981483   -0.778022
     25          6           0        7.132484    7.077649   -1.810326
     26          7           0        8.399562    0.698932    0.664986
     27          6           0        9.094072    1.821621    0.337783
     28          6           0       10.522804    1.714600    0.870821
     29          6           0       10.578903    0.229519    1.273702
     30          6           0        9.156725   -0.289804    1.146784
     31          6           0       11.553856    2.234888   -0.186747
     32          6           0       11.194065   -0.095363    2.678883
     33          6           0       12.112557   -1.298052    2.919179
     34          7           0        6.456737   -1.444775    0.684527
     35          6           0        7.513265   -2.204102    1.188460
     36          6           0        7.089878   -3.603170    1.294012
     37          6           0        5.711187   -3.608431    0.938463
     38          6           0        5.384714   -2.245165    0.614278
     39          6           0        7.968781   -4.698852    1.728281
     40          6           0        4.560465   -4.436262    0.994030
     41          8           0        4.376377   -5.636455    1.204973
     42          6           0        3.423238   -3.405520    0.522772
     43          6           0        2.853510   -3.923283   -0.765964
     44          8           0        3.029203   -3.594379   -1.956690
     45          8           0        1.820262   -4.812991   -0.466682
     46          6           0        0.905773   -5.153299   -1.548899
     47          6           0       -3.816358   -1.775505    0.332327
     48          6           0       -4.936812   -1.383189   -0.616672
     49          6           0       -6.049939   -2.101151   -1.027363
     50          6           0       -6.338482   -3.593319   -0.728279
     51          6           0       -7.102956   -1.413819   -1.943943
     52          6           0       -8.491328   -1.148292   -1.300084
     53          6           0       -9.433325   -0.285357   -2.059912
     54          6           0      -10.776489   -1.020257   -2.494609
     55          6           0      -10.707646   -1.740762   -3.901175
     56          6           0      -12.008203   -0.045179   -2.407918
     57          6           0      -13.260899   -0.612093   -1.862709
     58          6           0      -14.231997    0.443847   -1.357078
     59          6           0      -14.443447    0.399690    0.150825
     60          6           0      -15.503162   -0.708107    0.512694
     61          6           0      -14.819545    1.710276    0.734566
     62          6           0      -13.671275    2.514041    1.370716
     63          6           0      -13.954813    3.516169    2.496504
     64          6           0      -14.040634    2.924862    3.948853
     65          6           0      -15.433242    3.205674    4.566532
     66          6           0      -12.944500    3.549572    4.883850
     67          1           0        3.255952    3.042974   -2.098603
     68          1           0        9.291336    3.774551   -0.377814
     69          1           0        9.436430   -2.222486    2.062534
     70          1           0        1.802515   -1.494515   -1.494252
     71          1           0        1.344371    1.280443   -1.023239
     72          1           0        1.803063    1.589711   -3.440789
     73          1           0        0.683626    0.231365   -3.122566
     74          1           0        2.474490    0.088647   -3.562066
     75          1           0        1.619034   -0.908532    1.329412
     76          1           0        0.820030   -2.173504    0.356520
     77          1           0       -0.378037    0.327289   -0.334951
     78          1           0       -0.164848    0.413415    1.358269
     79          1           0        4.607534    6.531167   -1.804700
     80          1           0        3.553485    5.276984   -1.581122
     81          1           0        4.480937    5.336486   -3.143697
     82          1           0        7.871930    7.856456   -1.991491
     83          1           0        6.393367    7.575896   -1.182891
     84          1           0        6.708400    6.804525   -2.777280
     85          1           0       10.508182    2.429505    1.693623
     86          1           0       11.182216   -0.282732    0.523168
     87          1           0       11.254943    2.304533   -1.232000
     88          1           0       12.492189    1.681193   -0.155768
     89          1           0       11.863775    3.244515    0.082024
     90          1           0       10.323033   -0.042303    3.332483
     91          1           0       11.826210    0.758049    2.924747
     92          1           0       11.879548   -2.081131    2.198472
     93          1           0       11.958709   -1.828117    3.859134
     94          1           0       13.141367   -0.956659    2.809607
     95          1           0        8.293157   -5.186408    0.808766
     96          1           0        7.515413   -5.448079    2.377096
     97          1           0        8.870994   -4.290808    2.185428
     98          1           0        2.562295   -3.314688    1.184340
     99          1           0        1.431383   -5.532069   -2.425160
    100          1           0        0.389645   -4.224857   -1.795317
    101          1           0        0.153152   -5.867886   -1.216231
    102          1           0       -4.181977   -1.683441    1.355069
    103          1           0       -3.566006   -2.788806    0.020379
    104          1           0       -4.799164   -0.347572   -0.927149
    105          1           0       -6.826696   -4.021208   -1.604019
    106          1           0       -7.139042   -3.691185    0.004600
    107          1           0       -5.423583   -4.035146   -0.332977
    108          1           0       -7.253786   -2.089855   -2.785424
    109          1           0       -6.736441   -0.460364   -2.323911
    110          1           0       -8.287962   -0.746963   -0.306982
    111          1           0       -8.890500   -2.150940   -1.148322
    112          1           0       -8.873885    0.096264   -2.914423
    113          1           0       -9.775768    0.571171   -1.478803
    114          1           0      -10.839295   -1.844189   -1.784651
    115          1           0      -11.486355   -2.502081   -3.947216
    116          1           0       -9.818142   -2.361038   -4.012817
    117          1           0      -10.698272   -1.048886   -4.742267
    118          1           0      -12.309461    0.259770   -3.410025
    119          1           0      -11.798088    0.846092   -1.815676
    120          1           0      -12.786338   -1.279352   -1.143409
    121          1           0      -13.683611   -1.244251   -2.643980
    122          1           0      -15.216429    0.339501   -1.813182
    123          1           0      -13.981188    1.467465   -1.632979
    124          1           0      -13.522425    0.005955    0.581731
    125          1           0      -16.235232   -0.431000    1.271371
    126          1           0      -15.060601   -1.672887    0.761220
    127          1           0      -16.112378   -0.925619   -0.364490
    128          1           0      -15.671995    1.612078    1.406969
    129          1           0      -15.107690    2.460150   -0.002223
    130          1           0      -13.225941    3.090662    0.559594
    131          1           0      -12.906872    1.774240    1.610325
    132          1           0      -14.943790    3.856649    2.188736
    133          1           0      -13.175909    4.278031    2.475720
    134          1           0      -14.040559    1.834932    3.951103
    135          1           0      -16.129883    2.821967    3.820820
    136          1           0      -15.536076    4.287046    4.653144
    137          1           0      -15.593275    2.536726    5.412652
    138          1           0      -12.580703    4.481108    4.449585
    139          1           0      -12.190928    2.785567    5.073954
    140          1           0      -13.392085    3.958017    5.789716
 ---------------------------------------------------------------------

 SCF Done:  E(RZINDO/S) =  -474.312818549     A.U. after   19 cycles

 Excitation energies and oscillator strengths:

 Excited State   1:      Singlet-A      1.2182 eV 1017.78 nm  f=0.6439  <S**2>=0.000
     175 ->178        -0.18550
     176 ->177         0.66318
 This state for optimization and/or second-order correction.
 Total Energy, E(CIS/TDA) =  -474.268051097
 Copying the excited state density for this state as the 1-particle RhoCI density.

 Excited State   2:      Singlet-A      1.9321 eV  641.72 nm  f=0.0546  <S**2>=0.000
     175 ->177         0.55395
     176 ->178         0.40709

 Excited State   3:      Singlet-A      2.8714 eV  431.79 nm  f=0.1815  <S**2>=0.000
     175 ->177        -0.19259
     176 ->178         0.37013
     176 ->179         0.52097

 Excited State   4:      Singlet-A      2.9320 eV  422.87 nm  f=0.0429  <S**2>=0.000
     168 ->177         0.28034
     168 ->179         0.32046
     168 ->180         0.34776
     168 ->186         0.17621
     168 ->187         0.14764
     170 ->179         0.10631
     170 ->180         0.10773
     176 ->178        -0.12807

 Excited State   5:      Singlet-A      3.0249 eV  409.88 nm  f=0.8037  <S**2>=0.000
     175 ->177         0.31188
     176 ->178        -0.37091
     176 ->179         0.41641

 The electronic state is 1-A.
 Alpha  occ. eigenvalues --   -1.84083  -1.81791  -1.80088  -1.72255  -1.71289
 Alpha  occ. eigenvalues --   -1.71018  -1.66668  -1.61014  -1.60505  -1.57434
 Alpha  occ. eigenvalues --   -1.55547  -1.50799  -1.48969  -1.48124  -1.46513
 Alpha  occ. eigenvalues --   -1.43607  -1.41323  -1.40328  -1.39769  -1.38111
 Alpha  occ. eigenvalues --   -1.36023  -1.34485  -1.33617  -1.31331  -1.27973
 Alpha  occ. eigenvalues --   -1.27126  -1.26085  -1.22325  -1.20952  -1.19014
 Alpha  occ. eigenvalues --   -1.17421  -1.15227  -1.15205  -1.14633  -1.13561
 Alpha  occ. eigenvalues --   -1.13214  -1.11769  -1.10742  -1.04536  -1.03416
 Alpha  occ. eigenvalues --   -1.02491  -1.02218  -0.98738  -0.97112  -0.96162
 Alpha  occ. eigenvalues --   -0.94878  -0.93797  -0.93238  -0.93047  -0.92070
 Alpha  occ. eigenvalues --   -0.91195  -0.90501  -0.89147  -0.87694  -0.87222
 Alpha  occ. eigenvalues --   -0.86471  -0.84516  -0.83504  -0.82208  -0.80847
 Alpha  occ. eigenvalues --   -0.79940  -0.78511  -0.78082  -0.76699  -0.76650
 Alpha  occ. eigenvalues --   -0.75725  -0.75245  -0.74888  -0.74071  -0.73383
 Alpha  occ. eigenvalues --   -0.72715  -0.72550  -0.71944  -0.71459  -0.70871
 Alpha  occ. eigenvalues --   -0.69732  -0.69047  -0.68472  -0.67807  -0.67155
 Alpha  occ. eigenvalues --   -0.66915  -0.66882  -0.66696  -0.66540  -0.66226
 Alpha  occ. eigenvalues --   -0.65705  -0.64839  -0.64527  -0.64277  -0.63743
 Alpha  occ. eigenvalues --   -0.63230  -0.62683  -0.62369  -0.62350  -0.62271
 Alpha  occ. eigenvalues --   -0.61741  -0.61451  -0.60955  -0.60697  -0.60305
 Alpha  occ. eigenvalues --   -0.59860  -0.59375  -0.58729  -0.58055  -0.57878
 Alpha  occ. eigenvalues --   -0.57776  -0.57712  -0.57085  -0.57049  -0.56974
 Alpha  occ. eigenvalues --   -0.56344  -0.55855  -0.55513  -0.55058  -0.54766
 Alpha  occ. eigenvalues --   -0.54635  -0.53735  -0.53670  -0.52859  -0.52647
 Alpha  occ. eigenvalues --   -0.52515  -0.52107  -0.51970  -0.51700  -0.51281
 Alpha  occ. eigenvalues --   -0.50864  -0.50716  -0.50343  -0.49814  -0.49781
 Alpha  occ. eigenvalues --   -0.49517  -0.49010  -0.48790  -0.48768  -0.48624
 Alpha  occ. eigenvalues --   -0.48558  -0.48478  -0.48061  -0.47854  -0.47494
 Alpha  occ. eigenvalues --   -0.47266  -0.47107  -0.46833  -0.46746  -0.46703
 Alpha  occ. eigenvalues --   -0.46639  -0.46243  -0.45865  -0.45534  -0.45260
 Alpha  occ. eigenvalues --   -0.45036  -0.44998  -0.44684  -0.44568  -0.44036
 Alpha  occ. eigenvalues --   -0.43724  -0.43590  -0.42950  -0.42794  -0.42418
 Alpha  occ. eigenvalues --   -0.42258  -0.42061  -0.40744  -0.39225  -0.38567
 Alpha  occ. eigenvalues --   -0.38363  -0.36813  -0.35378  -0.35198  -0.34390
 Alpha  occ. eigenvalues --   -0.33486  -0.32721  -0.32581  -0.31939  -0.26769
 Alpha  occ. eigenvalues --   -0.21688
 Alpha virt. eigenvalues --   -0.08758  -0.01962  -0.00918   0.01040   0.01424
 Alpha virt. eigenvalues --    0.02276   0.02613   0.03005   0.04306   0.04982
 Alpha virt. eigenvalues --    0.06430   0.06904   0.07511   0.07651   0.07939

 Mulliken charges:
               1
     1  Mg   0.426390
     2  C   -0.046232
     3  C   -0.095708
     4  C   -0.054934
     5  C   -0.060737
     6  N   -0.291572
     7  C    0.125402
     8  C   -0.006029
     9  C    0.013991
    10  C    0.158145
    11  C   -0.048463
    12  C   -0.024171
    13  C   -0.003091
    14  C    0.464059
    15  O   -0.518257
    16  O   -0.257223
    17  N   -0.320011
    18  C    0.116877
    19  C    0.000818
    20  C   -0.037294
    21  C    0.134573
    22  C   -0.056201
    23  C    0.342826
    24  O   -0.518716
    25  C   -0.029707
    26  N   -0.262635
    27  C    0.128314
    28  C    0.006255
    29  C    0.011438
    30  C    0.126063
    31  C   -0.053964
    32  C   -0.034018
    33  C   -0.052820
    34  N   -0.313474
    35  C    0.072457
    36  C    0.046182
    37  C   -0.069364
    38  C    0.121234
    39  C   -0.032709
    40  C    0.335771
    41  O   -0.520083
    42  C    0.064463
    43  C    0.482198
    44  O   -0.536588
    45  O   -0.275707
    46  C    0.079959
    47  C    0.107162
    48  C   -0.094836
    49  C   -0.025598
    50  C   -0.045908
    51  C   -0.024379
    52  C   -0.025677
    53  C   -0.031630
    54  C   -0.020931
    55  C   -0.059637
    56  C   -0.033296
    57  C   -0.035184
    58  C   -0.024252
    59  C    0.000007
    60  C   -0.066662
    61  C   -0.029091
    62  C   -0.040423
    63  C   -0.033987
    64  C   -0.022679
    65  C   -0.063549
    66  C   -0.061979
    67  H    0.017914
    68  H    0.041955
    69  H    0.030443
    70  H    0.039010
    71  H    0.019210
    72  H    0.015673
    73  H    0.029637
    74  H    0.029961
    75  H    0.022851
    76  H    0.040404
    77  H    0.032997
    78  H    0.042561
    79  H    0.024154
    80  H    0.019934
    81  H    0.038719
    82  H    0.027942
    83  H    0.043008
    84  H    0.030041
    85  H    0.040990
    86  H    0.028036
    87  H    0.031084
    88  H    0.012984
    89  H    0.017956
    90  H    0.022316
    91  H    0.010138
    92  H    0.014855
    93  H    0.024054
    94  H    0.025494
    95  H    0.036801
    96  H    0.040373
    97  H    0.020361
    98  H    0.063517
    99  H    0.049621
   100  H    0.031164
   101  H    0.033956
   102  H    0.060064
   103  H    0.056480
   104  H    0.030356
   105  H    0.032483
   106  H    0.027063
   107  H    0.033818
   108  H    0.020205
   109  H    0.019064
   110  H    0.016128
   111  H    0.016502
   112  H    0.019722
   113  H    0.018818
   114  H    0.022216
   115  H    0.018438
   116  H    0.010228
   117  H    0.025962
   118  H    0.012862
   119  H    0.019633
   120  H    0.023056
   121  H    0.014904
   122  H    0.013825
   123  H    0.016986
   124  H    0.020112
   125  H    0.020751
   126  H    0.016779
   127  H    0.010981
   128  H    0.018756
   129  H    0.014223
   130  H    0.006336
   131  H    0.011032
   132  H    0.022913
   133  H    0.025567
   134  H    0.023976
   135  H    0.005320
   136  H    0.030432
   137  H    0.024220
   138  H    0.020905
   139  H    0.026352
   140  H    0.017242
 Sum of Mulliken charges =  -0.00000

 Dipole moment (field-independent basis, Debye):
    X=             -3.8048    Y=              6.0618    Z=             -1.8919  Tot=              7.4028
 N-N= 4.148023913550D+03 E-N= 0.000000000000D+00  KE=-8.970447779727D+03
 Leave Link  601 at Sat Apr 30 14:51:36 2022, MaxMem=  6710886400 cpu:               0.8 elap:               0.1
 (Enter /sw/apps/gaussian-16.0/g16/l9999.exe)
 1\1\GINC-BP1-COMPUTE102\SP\RZINDO CIS\STO-3G\C55H74Mg1N4O6\OF15641\30-
 Apr-2022\0\\#p ZINDO=(nstates=5)\\step_751_chromophore_7 ZINDO\\0,1\Mg
 ,0,25.788,-0.129,29.202\C,0,27.702,-0.339,32.025\C,0,22.935,-0.053,31.
 264\C,0,23.769,-0.273,26.453\C,0,28.543,-0.74,27.201\N,0,25.314,-0.174
 ,31.366\C,0,26.351,-0.18,32.305\C,0,25.795,-0.029,33.74\C,0,24.264,-0.
 147,33.482\C,0,24.129,-0.086,31.988\C,0,23.532,-1.319,34.219\C,0,26.49
 9,1.16,34.473\C,0,25.652,2.047,35.467\C,0,26.387,2.367,36.838\O,0,27.5

 Normal termination of Gaussian 16 at Sat Apr 30 14:51:37 2022.
