 Gaussian 16, Revision A.03,
 Gaussian 16:  ES64L-G16RevA.03 25-Dec-2016

 ------------------------------
 #p blyp/Def2SVP td=(nstates=5)
 ------------------------------

 ---------------------------------------------------
 step_1501_chromophore_26 TDDFT with blyp functional
 ---------------------------------------------------
 Symbolic Z-matrix:
 Charge =  0 Multiplicity = 1

                         Standard orientation:
 ---------------------------------------------------------------------
 Center     Atomic      Atomic             Coordinates (Angstroms)
 Number     Number       Type             X           Y           Z
 ---------------------------------------------------------------------
      1         12           0       -4.243165    1.249870    0.637962
      2          6           0       -5.025237   -2.086523   -0.132801
      3          6           0       -1.965145    0.137405    3.208119
      4          6           0       -2.898985    4.293288    0.829604
      5          6           0       -5.463170    2.142076   -2.543290
      6          7           0       -3.599388   -0.707959    1.392194
      7          6           0       -4.064711   -1.992875    0.976305
      8          6           0       -3.561576   -3.062733    1.867243
      9          6           0       -2.637208   -2.297951    2.912783
     10          6           0       -2.699882   -0.847497    2.456870
     11          6           0       -2.952137   -2.559180    4.410115
     12          6           0       -2.945170   -4.317341    1.115255
     13          6           0       -2.064795   -4.084828   -0.186188
     14          6           0       -0.685793   -4.694797   -0.095608
     15          8           0       -0.453078   -5.772810    0.445026
     16          8           0        0.242077   -3.811820   -0.609592
     17          7           0       -2.811137    2.218485    2.028906
     18          6           0       -2.007609    1.557809    2.989092
     19          6           0       -1.209282    2.601539    3.612475
     20          6           0       -1.544559    3.885580    2.956574
     21          6           0       -2.443315    3.482638    1.883943
     22          6           0       -0.214007    2.260807    4.703500
     23          6           0       -0.873806    5.234173    3.275254
     24          8           0        0.006626    5.235267    4.099545
     25          6           0       -1.247253    6.457169    2.695133
     26          7           0       -4.174948    2.974110   -0.713622
     27          6           0       -3.706709    4.200318   -0.252226
     28          6           0       -4.147925    5.356672   -1.114784
     29          6           0       -4.840454    4.626020   -2.284818
     30          6           0       -4.918017    3.178472   -1.807733
     31          6           0       -4.920159    6.553824   -0.472685
     32          6           0       -4.138898    4.694070   -3.691912
     33          6           0       -4.987502    5.088060   -4.940979
     34          7           0       -5.251922    0.212501   -0.965712
     35          6           0       -5.707215    0.770309   -2.207624
     36          6           0       -6.447609   -0.262733   -2.855411
     37          6           0       -6.207794   -1.406067   -2.091966
     38          6           0       -5.475165   -1.078670   -0.998628
     39          6           0       -7.274127   -0.232418   -4.062439
     40          6           0       -6.502218   -2.819330   -1.991194
     41          8           0       -7.105054   -3.562074   -2.756112
     42          6           0       -5.784327   -3.334404   -0.702735
     43          6           0       -6.772586   -4.078439    0.160691
     44          8           0       -6.863869   -5.298166    0.142136
     45          8           0       -7.394644   -3.225285    1.049229
     46          6           0       -8.371008   -3.746892    2.019004
     47          6           0        1.670777   -4.264885   -0.460657
     48          6           0        2.400133   -3.293113   -1.418467
     49          6           0        3.698150   -2.823111   -1.255635
     50          6           0        4.601165   -3.304609   -0.171467
     51          6           0        4.126300   -1.921529   -2.413711
     52          6           0        5.666022   -1.643880   -2.491050
     53          6           0        6.064091   -0.196157   -2.862334
     54          6           0        6.323688    0.788280   -1.691562
     55          6           0        6.024876    2.285488   -2.074599
     56          6           0        7.728190    0.661126   -1.093859
     57          6           0        7.795824    0.839080    0.416702
     58          6           0        8.239471   -0.395943    1.267668
     59          6           0        9.710807   -0.255177    1.790551
     60          6           0        9.748279   -1.006937    3.067311
     61          6           0       10.820669   -0.699046    0.686723
     62          6           0       11.243116    0.560433   -0.124239
     63          6           0       12.735356    0.902672   -0.121407
     64          6           0       13.421502    0.111608   -1.326856
     65          6           0       14.483808   -0.874783   -0.830020
     66          6           0       13.970750    1.120508   -2.399795
     67          1           0       -1.392797   -0.136890    4.096442
     68          1           0       -2.507769    5.313454    0.824901
     69          1           0       -5.792887    2.374613   -3.558515
     70          1           0       -4.439283   -3.481870    2.359357
     71          1           0       -1.618889   -2.655787    2.763309
     72          1           0       -3.218449   -1.601983    4.856388
     73          1           0       -2.057860   -2.976241    4.872982
     74          1           0       -3.828034   -3.206999    4.431870
     75          1           0       -3.736337   -5.051362    0.962622
     76          1           0       -2.252703   -4.818283    1.792153
     77          1           0       -2.057270   -3.016328   -0.401399
     78          1           0       -2.535650   -4.520723   -1.068284
     79          1           0        0.465149    1.464178    4.400345
     80          1           0       -0.844013    1.962460    5.541519
     81          1           0        0.413655    3.070333    5.077276
     82          1           0       -2.327009    6.332607    2.623004
     83          1           0       -0.936467    6.582585    1.657768
     84          1           0       -0.995546    7.293750    3.346899
     85          1           0       -3.247343    5.687437   -1.631332
     86          1           0       -5.738309    5.230243   -2.412850
     87          1           0       -4.158873    7.333575   -0.461530
     88          1           0       -5.192733    6.300221    0.551845
     89          1           0       -5.769961    7.002577   -0.988689
     90          1           0       -3.681667    3.732423   -3.925095
     91          1           0       -3.321489    5.412780   -3.748530
     92          1           0       -4.549229    5.963471   -5.421684
     93          1           0       -5.973196    5.317847   -4.536020
     94          1           0       -5.062794    4.301934   -5.691110
     95          1           0       -6.752521   -0.884149   -4.763863
     96          1           0       -7.361431    0.782749   -4.449219
     97          1           0       -8.211313   -0.684935   -3.738854
     98          1           0       -5.097787   -4.087628   -1.088150
     99          1           0       -7.965631   -3.449792    2.986638
    100          1           0       -8.456317   -4.820900    1.857777
    101          1           0       -9.327051   -3.261313    1.822660
    102          1           0        1.814460   -5.310212   -0.731140
    103          1           0        2.063799   -4.227216    0.555109
    104          1           0        1.775829   -2.807298   -2.168625
    105          1           0        4.726151   -2.392904    0.412416
    106          1           0        5.573286   -3.659331   -0.512725
    107          1           0        4.248238   -4.143928    0.427264
    108          1           0        3.573264   -0.982927   -2.358315
    109          1           0        3.908953   -2.401826   -3.367025
    110          1           0        6.215785   -2.206156   -3.245858
    111          1           0        6.101921   -1.875814   -1.519757
    112          1           0        5.183462    0.215749   -3.355336
    113          1           0        6.979973   -0.342444   -3.435472
    114          1           0        5.649704    0.536273   -0.872294
    115          1           0        5.018705    2.592395   -1.787704
    116          1           0        6.137640    2.421489   -3.149500
    117          1           0        6.729334    2.936760   -1.557081
    118          1           0        8.424241    1.319284   -1.614186
    119          1           0        8.047235   -0.363873   -1.284616
    120          1           0        6.832764    1.226254    0.748483
    121          1           0        8.595603    1.573958    0.508646
    122          1           0        8.097120   -1.301550    0.677930
    123          1           0        7.523336   -0.545143    2.076311
    124          1           0        9.849704    0.786076    2.083423
    125          1           0        8.887891   -1.625307    3.323966
    126          1           0        9.914973   -0.261304    3.843730
    127          1           0       10.665486   -1.596017    3.081460
    128          1           0       10.396684   -1.353010   -0.074863
    129          1           0       11.600647   -1.245421    1.216272
    130          1           0       10.784238    1.513336    0.140422
    131          1           0       10.816855    0.299616   -1.093433
    132          1           0       13.061391    0.368073    0.771559
    133          1           0       12.972815    1.964239   -0.051046
    134          1           0       12.647776   -0.345817   -1.943144
    135          1           0       14.843424   -1.633874   -1.524027
    136          1           0       14.097551   -1.391318    0.049156
    137          1           0       15.322007   -0.236459   -0.548798
    138          1           0       15.058179    1.152816   -2.470248
    139          1           0       13.440135    2.072631   -2.392207
    140          1           0       13.666806    0.821408   -3.402547
 ---------------------------------------------------------------------

 SCF Done:  E(RB-LYP) =  -3007.32490418     A.U. after   20 cycles

 Excitation energies and oscillator strengths:

 Excited State   1:      Singlet-A      1.6868 eV  735.04 nm  f=0.0229  <S**2>=0.000
     244 -> 247        0.65297
     245 -> 247        0.15636
     246 -> 247        0.20626
 This state for optimization and/or second-order correction.
 Total Energy, E(TD-HF/TD-DFT) =  -3007.26291645
 Copying the excited state density for this state as the 1-particle RhoCI density.

 Excited State   2:      Singlet-A      1.7724 eV  699.51 nm  f=0.0489  <S**2>=0.000
     243 -> 247        0.54688
     245 -> 247       -0.37804
     246 -> 247        0.20843

 Excited State   3:      Singlet-A      1.7980 eV  689.57 nm  f=0.2315  <S**2>=0.000
     243 -> 247       -0.17881
     244 -> 247       -0.22884
     245 -> 248        0.18318
     246 -> 247        0.62379
     246 <- 247       -0.14120

 Excited State   4:      Singlet-A      1.9478 eV  636.55 nm  f=0.0018  <S**2>=0.000
     242 -> 247        0.70058

 Excited State   5:      Singlet-A      1.9812 eV  625.81 nm  f=0.0588  <S**2>=0.000
     240 -> 247        0.15357
     243 -> 247        0.39004
     245 -> 247        0.50058
     246 -> 248       -0.22151

 The electronic state is 1-A.
 Alpha  occ. eigenvalues --  -46.28879 -18.82307 -18.81963 -18.76916 -18.76561
 Alpha  occ. eigenvalues --  -18.75449 -18.74671 -14.04214 -14.03366 -14.00949
 Alpha  occ. eigenvalues --  -14.00138 -10.03999 -10.03920  -9.99269  -9.99099
 Alpha  occ. eigenvalues --   -9.98117  -9.98037  -9.97854  -9.97422  -9.96662
 Alpha  occ. eigenvalues --   -9.96486  -9.95843  -9.95789  -9.95744  -9.94490
 Alpha  occ. eigenvalues --   -9.94442  -9.94393  -9.94224  -9.94056  -9.94053
 Alpha  occ. eigenvalues --   -9.93912  -9.93854  -9.93682  -9.93612  -9.93375
 Alpha  occ. eigenvalues --   -9.93261  -9.93197  -9.93106  -9.93095  -9.93074
 Alpha  occ. eigenvalues --   -9.92764  -9.92733  -9.92535  -9.92442  -9.92330
 Alpha  occ. eigenvalues --   -9.92314  -9.92267  -9.92025  -9.91884  -9.91798
 Alpha  occ. eigenvalues --   -9.91749  -9.91543  -9.91522  -9.91522  -9.91270
 Alpha  occ. eigenvalues --   -9.91097  -9.91052  -9.91027  -9.90985  -9.90904
 Alpha  occ. eigenvalues --   -9.90784  -9.90540  -9.90480  -9.90330  -9.90174
 Alpha  occ. eigenvalues --   -9.90117  -2.93138  -1.73547  -1.73024  -1.72855
 Alpha  occ. eigenvalues --   -0.96962  -0.96867  -0.92259  -0.91019  -0.89608
 Alpha  occ. eigenvalues --   -0.89564  -0.86843  -0.86080  -0.84963  -0.83990
 Alpha  occ. eigenvalues --   -0.74883  -0.73355  -0.72818  -0.72723  -0.72449
 Alpha  occ. eigenvalues --   -0.71899  -0.71639  -0.71075  -0.70685  -0.70565
 Alpha  occ. eigenvalues --   -0.69118  -0.68881  -0.68099  -0.67611  -0.67300
 Alpha  occ. eigenvalues --   -0.66904  -0.66216  -0.65717  -0.65199  -0.64593
 Alpha  occ. eigenvalues --   -0.64032  -0.62766  -0.62526  -0.61678  -0.61227
 Alpha  occ. eigenvalues --   -0.61119  -0.60194  -0.60180  -0.59210  -0.58952
 Alpha  occ. eigenvalues --   -0.58152  -0.57516  -0.57031  -0.55762  -0.54767
 Alpha  occ. eigenvalues --   -0.53850  -0.52878  -0.52322  -0.51818  -0.51649
 Alpha  occ. eigenvalues --   -0.50874  -0.50656  -0.50468  -0.50123  -0.49866
 Alpha  occ. eigenvalues --   -0.49564  -0.49041  -0.49029  -0.48355  -0.47016
 Alpha  occ. eigenvalues --   -0.46127  -0.45968  -0.45569  -0.44787  -0.44447
 Alpha  occ. eigenvalues --   -0.43891  -0.43397  -0.43259  -0.42728  -0.42533
 Alpha  occ. eigenvalues --   -0.42243  -0.41924  -0.41583  -0.41328  -0.40910
 Alpha  occ. eigenvalues --   -0.40593  -0.40528  -0.40322  -0.40161  -0.40085
 Alpha  occ. eigenvalues --   -0.39785  -0.39604  -0.39562  -0.39456  -0.39398
 Alpha  occ. eigenvalues --   -0.39368  -0.38977  -0.38922  -0.38854  -0.38709
 Alpha  occ. eigenvalues --   -0.38299  -0.37879  -0.37668  -0.37614  -0.37493
 Alpha  occ. eigenvalues --   -0.37235  -0.37085  -0.36969  -0.36812  -0.36545
 Alpha  occ. eigenvalues --   -0.36401  -0.36252  -0.36169  -0.35888  -0.35723
 Alpha  occ. eigenvalues --   -0.35649  -0.35312  -0.35024  -0.34915  -0.34835
 Alpha  occ. eigenvalues --   -0.34683  -0.34635  -0.34068  -0.34034  -0.33818
 Alpha  occ. eigenvalues --   -0.33577  -0.33385  -0.33335  -0.33140  -0.32913
 Alpha  occ. eigenvalues --   -0.32905  -0.32833  -0.32730  -0.32464  -0.32293
 Alpha  occ. eigenvalues --   -0.32110  -0.31957  -0.31790  -0.31430  -0.31169
 Alpha  occ. eigenvalues --   -0.30974  -0.30921  -0.30721  -0.30680  -0.30386
 Alpha  occ. eigenvalues --   -0.30317  -0.30146  -0.30052  -0.30012  -0.29851
 Alpha  occ. eigenvalues --   -0.29470  -0.29417  -0.29348  -0.29115  -0.28894
 Alpha  occ. eigenvalues --   -0.28610  -0.28415  -0.28305  -0.28087  -0.27806
 Alpha  occ. eigenvalues --   -0.27504  -0.27205  -0.27071  -0.26576  -0.26465
 Alpha  occ. eigenvalues --   -0.26238  -0.26013  -0.25820  -0.25532  -0.25417
 Alpha  occ. eigenvalues --   -0.25193  -0.24860  -0.24235  -0.23889  -0.23700
 Alpha  occ. eigenvalues --   -0.23135  -0.22286  -0.22075  -0.21621  -0.19998
 Alpha  occ. eigenvalues --   -0.19608  -0.19107  -0.18545  -0.18093  -0.17359
 Alpha  occ. eigenvalues --   -0.16117
 Alpha virt. eigenvalues --   -0.11948  -0.07098  -0.06118  -0.04488  -0.04129
 Alpha virt. eigenvalues --   -0.02973  -0.02411  -0.02307  -0.02117   0.00024
 Alpha virt. eigenvalues --    0.00300   0.01754   0.01977   0.02181   0.02929

 Mulliken charges:
               1
     1  Mg   0.673751
     2  C    0.065929
     3  C   -0.054671
     4  C   -0.016082
     5  C   -0.072347
     6  N   -0.261259
     7  C   -0.071320
     8  C    0.066356
     9  C   -0.030543
    10  C    0.085152
    11  C    0.141292
    12  C    0.077083
    13  C    0.112474
    14  C    0.077441
    15  O   -0.197592
    16  O   -0.276750
    17  N   -0.259160
    18  C    0.086056
    19  C   -0.135739
    20  C    0.006559
    21  C    0.138817
    22  C    0.157857
    23  C   -0.100200
    24  O   -0.150702
    25  C    0.175673
    26  N   -0.224999
    27  C   -0.089449
    28  C    0.080493
    29  C    0.013810
    30  C    0.076633
    31  C    0.140409
    32  C    0.052146
    33  C    0.055602
    34  N   -0.248968
    35  C    0.091926
    36  C   -0.180292
    37  C    0.120642
    38  C    0.019918
    39  C    0.196442
    40  C   -0.098022
    41  O   -0.130045
    42  C    0.035576
    43  C    0.116591
    44  O   -0.168561
    45  O   -0.295975
    46  C    0.202979
    47  C    0.303385
    48  C   -0.101469
    49  C   -0.173532
    50  C    0.159238
    51  C    0.128398
    52  C    0.038766
    53  C    0.107121
    54  C   -0.076771
    55  C    0.108212
    56  C    0.067537
    57  C    0.092002
    58  C    0.078305
    59  C   -0.089611
    60  C    0.137506
    61  C    0.118497
    62  C    0.011169
    63  C    0.124134
    64  C   -0.079989
    65  C    0.103948
    66  C    0.090075
    67  H   -0.044988
    68  H   -0.107113
    69  H   -0.067118
    70  H   -0.017170
    71  H   -0.015625
    72  H   -0.005284
    73  H    0.002718
    74  H   -0.010339
    75  H   -0.001956
    76  H   -0.010818
    77  H    0.003883
    78  H    0.013477
    79  H    0.000589
    80  H   -0.003781
    81  H    0.002561
    82  H   -0.009990
    83  H    0.027697
    84  H    0.001855
    85  H   -0.031978
    86  H   -0.038814
    87  H   -0.005108
    88  H    0.002332
    89  H    0.003467
    90  H   -0.011966
    91  H   -0.022487
    92  H   -0.005965
    93  H   -0.011806
    94  H    0.001903
    95  H    0.015158
    96  H   -0.016708
    97  H    0.017711
    98  H    0.001177
    99  H    0.020981
   100  H    0.029392
   101  H    0.022216
   102  H    0.008898
   103  H    0.001668
   104  H   -0.026467
   105  H    0.010912
   106  H    0.011787
   107  H   -0.013688
   108  H   -0.003838
   109  H   -0.002590
   110  H   -0.029652
   111  H   -0.040800
   112  H   -0.035353
   113  H   -0.033347
   114  H   -0.049520
   115  H   -0.015539
   116  H   -0.014818
   117  H   -0.019833
   118  H   -0.028205
   119  H   -0.046101
   120  H   -0.031172
   121  H   -0.035185
   122  H   -0.035763
   123  H   -0.038178
   124  H   -0.031332
   125  H   -0.008904
   126  H   -0.026607
   127  H   -0.041566
   128  H   -0.030403
   129  H   -0.020846
   130  H   -0.021214
   131  H   -0.020852
   132  H   -0.042767
   133  H   -0.020909
   134  H   -0.030756
   135  H   -0.012992
   136  H   -0.014630
   137  H   -0.012093
   138  H   -0.015804
   139  H   -0.024096
   140  H   -0.037397
 Sum of Mulliken charges =  -0.00000

 Dipole moment (field-independent basis, Debye):
    X=              0.1529    Y=              6.0354    Z=              0.4296  Tot=              6.0526
 Quadrupole moment (field-independent basis, Debye-Ang):
   XX=           -395.4123   YY=           -427.8154   ZZ=           -404.7390
   XY=            -52.6583   XZ=            -24.7683   YZ=            -33.3968

 Normal termination of Gaussian 16 at Wed May  4 08:57:10 2022.
