 Gaussian 16, Revision A.03,
 Gaussian 16:  ES64L-G16RevA.03 25-Dec-2016

 -----------------------------------
 #p cam-b3lyp/Def2SVP td=(nstates=5)
 -----------------------------------

 --------------------------------------------------------
 step_1501_chromophore_26 TDDFT with cam-b3lyp functional
 --------------------------------------------------------
 Symbolic Z-matrix:
 Charge =  0 Multiplicity = 1

                         Standard orientation:
 ---------------------------------------------------------------------
 Center     Atomic      Atomic             Coordinates (Angstroms)
 Number     Number       Type             X           Y           Z
 ---------------------------------------------------------------------
      1         12           0       -4.243165    1.249870    0.637962
      2          6           0       -5.025237   -2.086523   -0.132801
      3          6           0       -1.965145    0.137405    3.208119
      4          6           0       -2.898985    4.293288    0.829604
      5          6           0       -5.463170    2.142076   -2.543290
      6          7           0       -3.599388   -0.707959    1.392194
      7          6           0       -4.064711   -1.992875    0.976305
      8          6           0       -3.561576   -3.062733    1.867243
      9          6           0       -2.637208   -2.297951    2.912783
     10          6           0       -2.699882   -0.847497    2.456870
     11          6           0       -2.952137   -2.559180    4.410115
     12          6           0       -2.945170   -4.317341    1.115255
     13          6           0       -2.064795   -4.084828   -0.186188
     14          6           0       -0.685793   -4.694797   -0.095608
     15          8           0       -0.453078   -5.772810    0.445026
     16          8           0        0.242077   -3.811820   -0.609592
     17          7           0       -2.811137    2.218485    2.028906
     18          6           0       -2.007609    1.557809    2.989092
     19          6           0       -1.209282    2.601539    3.612475
     20          6           0       -1.544559    3.885580    2.956574
     21          6           0       -2.443315    3.482638    1.883943
     22          6           0       -0.214007    2.260807    4.703500
     23          6           0       -0.873806    5.234173    3.275254
     24          8           0        0.006626    5.235267    4.099545
     25          6           0       -1.247253    6.457169    2.695133
     26          7           0       -4.174948    2.974110   -0.713622
     27          6           0       -3.706709    4.200318   -0.252226
     28          6           0       -4.147925    5.356672   -1.114784
     29          6           0       -4.840454    4.626020   -2.284818
     30          6           0       -4.918017    3.178472   -1.807733
     31          6           0       -4.920159    6.553824   -0.472685
     32          6           0       -4.138898    4.694070   -3.691912
     33          6           0       -4.987502    5.088060   -4.940979
     34          7           0       -5.251922    0.212501   -0.965712
     35          6           0       -5.707215    0.770309   -2.207624
     36          6           0       -6.447609   -0.262733   -2.855411
     37          6           0       -6.207794   -1.406067   -2.091966
     38          6           0       -5.475165   -1.078670   -0.998628
     39          6           0       -7.274127   -0.232418   -4.062439
     40          6           0       -6.502218   -2.819330   -1.991194
     41          8           0       -7.105054   -3.562074   -2.756112
     42          6           0       -5.784327   -3.334404   -0.702735
     43          6           0       -6.772586   -4.078439    0.160691
     44          8           0       -6.863869   -5.298166    0.142136
     45          8           0       -7.394644   -3.225285    1.049229
     46          6           0       -8.371008   -3.746892    2.019004
     47          6           0        1.670777   -4.264885   -0.460657
     48          6           0        2.400133   -3.293113   -1.418467
     49          6           0        3.698150   -2.823111   -1.255635
     50          6           0        4.601165   -3.304609   -0.171467
     51          6           0        4.126300   -1.921529   -2.413711
     52          6           0        5.666022   -1.643880   -2.491050
     53          6           0        6.064091   -0.196157   -2.862334
     54          6           0        6.323688    0.788280   -1.691562
     55          6           0        6.024876    2.285488   -2.074599
     56          6           0        7.728190    0.661126   -1.093859
     57          6           0        7.795824    0.839080    0.416702
     58          6           0        8.239471   -0.395943    1.267668
     59          6           0        9.710807   -0.255177    1.790551
     60          6           0        9.748279   -1.006937    3.067311
     61          6           0       10.820669   -0.699046    0.686723
     62          6           0       11.243116    0.560433   -0.124239
     63          6           0       12.735356    0.902672   -0.121407
     64          6           0       13.421502    0.111608   -1.326856
     65          6           0       14.483808   -0.874783   -0.830020
     66          6           0       13.970750    1.120508   -2.399795
     67          1           0       -1.392797   -0.136890    4.096442
     68          1           0       -2.507769    5.313454    0.824901
     69          1           0       -5.792887    2.374613   -3.558515
     70          1           0       -4.439283   -3.481870    2.359357
     71          1           0       -1.618889   -2.655787    2.763309
     72          1           0       -3.218449   -1.601983    4.856388
     73          1           0       -2.057860   -2.976241    4.872982
     74          1           0       -3.828034   -3.206999    4.431870
     75          1           0       -3.736337   -5.051362    0.962622
     76          1           0       -2.252703   -4.818283    1.792153
     77          1           0       -2.057270   -3.016328   -0.401399
     78          1           0       -2.535650   -4.520723   -1.068284
     79          1           0        0.465149    1.464178    4.400345
     80          1           0       -0.844013    1.962460    5.541519
     81          1           0        0.413655    3.070333    5.077276
     82          1           0       -2.327009    6.332607    2.623004
     83          1           0       -0.936467    6.582585    1.657768
     84          1           0       -0.995546    7.293750    3.346899
     85          1           0       -3.247343    5.687437   -1.631332
     86          1           0       -5.738309    5.230243   -2.412850
     87          1           0       -4.158873    7.333575   -0.461530
     88          1           0       -5.192733    6.300221    0.551845
     89          1           0       -5.769961    7.002577   -0.988689
     90          1           0       -3.681667    3.732423   -3.925095
     91          1           0       -3.321489    5.412780   -3.748530
     92          1           0       -4.549229    5.963471   -5.421684
     93          1           0       -5.973196    5.317847   -4.536020
     94          1           0       -5.062794    4.301934   -5.691110
     95          1           0       -6.752521   -0.884149   -4.763863
     96          1           0       -7.361431    0.782749   -4.449219
     97          1           0       -8.211313   -0.684935   -3.738854
     98          1           0       -5.097787   -4.087628   -1.088150
     99          1           0       -7.965631   -3.449792    2.986638
    100          1           0       -8.456317   -4.820900    1.857777
    101          1           0       -9.327051   -3.261313    1.822660
    102          1           0        1.814460   -5.310212   -0.731140
    103          1           0        2.063799   -4.227216    0.555109
    104          1           0        1.775829   -2.807298   -2.168625
    105          1           0        4.726151   -2.392904    0.412416
    106          1           0        5.573286   -3.659331   -0.512725
    107          1           0        4.248238   -4.143928    0.427264
    108          1           0        3.573264   -0.982927   -2.358315
    109          1           0        3.908953   -2.401826   -3.367025
    110          1           0        6.215785   -2.206156   -3.245858
    111          1           0        6.101921   -1.875814   -1.519757
    112          1           0        5.183462    0.215749   -3.355336
    113          1           0        6.979973   -0.342444   -3.435472
    114          1           0        5.649704    0.536273   -0.872294
    115          1           0        5.018705    2.592395   -1.787704
    116          1           0        6.137640    2.421489   -3.149500
    117          1           0        6.729334    2.936760   -1.557081
    118          1           0        8.424241    1.319284   -1.614186
    119          1           0        8.047235   -0.363873   -1.284616
    120          1           0        6.832764    1.226254    0.748483
    121          1           0        8.595603    1.573958    0.508646
    122          1           0        8.097120   -1.301550    0.677930
    123          1           0        7.523336   -0.545143    2.076311
    124          1           0        9.849704    0.786076    2.083423
    125          1           0        8.887891   -1.625307    3.323966
    126          1           0        9.914973   -0.261304    3.843730
    127          1           0       10.665486   -1.596017    3.081460
    128          1           0       10.396684   -1.353010   -0.074863
    129          1           0       11.600647   -1.245421    1.216272
    130          1           0       10.784238    1.513336    0.140422
    131          1           0       10.816855    0.299616   -1.093433
    132          1           0       13.061391    0.368073    0.771559
    133          1           0       12.972815    1.964239   -0.051046
    134          1           0       12.647776   -0.345817   -1.943144
    135          1           0       14.843424   -1.633874   -1.524027
    136          1           0       14.097551   -1.391318    0.049156
    137          1           0       15.322007   -0.236459   -0.548798
    138          1           0       15.058179    1.152816   -2.470248
    139          1           0       13.440135    2.072631   -2.392207
    140          1           0       13.666806    0.821408   -3.402547
 ---------------------------------------------------------------------

 SCF Done:  E(RCAM-B3LYP) =  -3007.10796096     A.U. after   19 cycles

 Excitation energies and oscillator strengths:

 Excited State   1:      Singlet-A      1.6649 eV  744.68 nm  f=0.3668  <S**2>=0.000
     245 -> 248        0.18243
     246 -> 247        0.68523
     245 <- 248        0.11053
 This state for optimization and/or second-order correction.
 Total Energy, E(TD-HF/TD-DFT) =  -3007.04677579
 Copying the excited state density for this state as the 1-particle RhoCI density.

 Excited State   2:      Singlet-A      2.1474 eV  577.38 nm  f=0.1104  <S**2>=0.000
     245 -> 247        0.64230
     246 -> 248       -0.27530

 Excited State   3:      Singlet-A      2.9934 eV  414.19 nm  f=0.0047  <S**2>=0.000
     242 -> 247       -0.12008
     243 -> 247        0.68007

 Excited State   4:      Singlet-A      3.1458 eV  394.13 nm  f=0.0008  <S**2>=0.000
     242 -> 247        0.65912
     243 -> 247        0.10835
     246 -> 248        0.18416

 Excited State   5:      Singlet-A      3.4302 eV  361.45 nm  f=0.0145  <S**2>=0.000
     239 -> 247        0.11740
     241 -> 247        0.58114
     241 -> 249       -0.23699
     241 -> 250        0.10605
     241 -> 251        0.17649

 The electronic state is 1-A.
 Alpha  occ. eigenvalues --  -46.90608 -19.25171 -19.24874 -19.19839 -19.19678
 Alpha  occ. eigenvalues --  -19.18630 -19.17878 -14.43256 -14.42298 -14.39464
 Alpha  occ. eigenvalues --  -14.38462 -10.39505 -10.39207 -10.34586 -10.34183
 Alpha  occ. eigenvalues --  -10.32547 -10.32168 -10.32120 -10.32071 -10.31023
 Alpha  occ. eigenvalues --  -10.31022 -10.30350 -10.30212 -10.30020 -10.28846
 Alpha  occ. eigenvalues --  -10.28637 -10.28516 -10.28360 -10.28349 -10.28255
 Alpha  occ. eigenvalues --  -10.28174 -10.28049 -10.27868 -10.27739 -10.27388
 Alpha  occ. eigenvalues --  -10.27274 -10.27226 -10.27184 -10.27170 -10.27008
 Alpha  occ. eigenvalues --  -10.26823 -10.26488 -10.26458 -10.26363 -10.26105
 Alpha  occ. eigenvalues --  -10.25984 -10.25946 -10.25820 -10.25766 -10.25538
 Alpha  occ. eigenvalues --  -10.25537 -10.25496 -10.25354 -10.25269 -10.25003
 Alpha  occ. eigenvalues --  -10.24790 -10.24732 -10.24724 -10.24569 -10.24566
 Alpha  occ. eigenvalues --  -10.24401 -10.24150 -10.24146 -10.24138 -10.23991
 Alpha  occ. eigenvalues --  -10.23659  -3.18748  -1.93641  -1.93202  -1.93034
 Alpha  occ. eigenvalues --   -1.15486  -1.15262  -1.10727  -1.09416  -1.07574
 Alpha  occ. eigenvalues --   -1.07368  -1.04602  -1.03701  -1.02616  -1.01590
 Alpha  occ. eigenvalues --   -0.91980  -0.90228  -0.89517  -0.89486  -0.89228
 Alpha  occ. eigenvalues --   -0.88601  -0.88322  -0.87681  -0.87242  -0.87130
 Alpha  occ. eigenvalues --   -0.85544  -0.85518  -0.84382  -0.83767  -0.83559
 Alpha  occ. eigenvalues --   -0.83061  -0.82275  -0.81667  -0.80981  -0.80473
 Alpha  occ. eigenvalues --   -0.79768  -0.78405  -0.78073  -0.77299  -0.76703
 Alpha  occ. eigenvalues --   -0.76597  -0.75555  -0.75544  -0.74471  -0.74209
 Alpha  occ. eigenvalues --   -0.73198  -0.72543  -0.71998  -0.70608  -0.69366
 Alpha  occ. eigenvalues --   -0.68448  -0.67376  -0.66758  -0.66028  -0.65961
 Alpha  occ. eigenvalues --   -0.64966  -0.64834  -0.64553  -0.64056  -0.63911
 Alpha  occ. eigenvalues --   -0.63375  -0.62977  -0.62750  -0.62234  -0.60634
 Alpha  occ. eigenvalues --   -0.59605  -0.59481  -0.59004  -0.58283  -0.57846
 Alpha  occ. eigenvalues --   -0.57322  -0.56811  -0.56589  -0.55988  -0.55666
 Alpha  occ. eigenvalues --   -0.55338  -0.54946  -0.54449  -0.54152  -0.53874
 Alpha  occ. eigenvalues --   -0.53284  -0.53170  -0.53008  -0.52849  -0.52832
 Alpha  occ. eigenvalues --   -0.52749  -0.52541  -0.52282  -0.52074  -0.52038
 Alpha  occ. eigenvalues --   -0.51775  -0.51656  -0.51440  -0.51328  -0.51127
 Alpha  occ. eigenvalues --   -0.50769  -0.50161  -0.50135  -0.49906  -0.49663
 Alpha  occ. eigenvalues --   -0.49496  -0.49430  -0.49068  -0.48990  -0.48908
 Alpha  occ. eigenvalues --   -0.48826  -0.48648  -0.48429  -0.48240  -0.47868
 Alpha  occ. eigenvalues --   -0.47696  -0.47260  -0.46952  -0.46949  -0.46765
 Alpha  occ. eigenvalues --   -0.46731  -0.46608  -0.46103  -0.45810  -0.45779
 Alpha  occ. eigenvalues --   -0.45447  -0.45354  -0.45148  -0.45048  -0.44667
 Alpha  occ. eigenvalues --   -0.44563  -0.44504  -0.44435  -0.44031  -0.43963
 Alpha  occ. eigenvalues --   -0.43710  -0.43605  -0.43393  -0.42995  -0.42847
 Alpha  occ. eigenvalues --   -0.42532  -0.42395  -0.42285  -0.42053  -0.41731
 Alpha  occ. eigenvalues --   -0.41616  -0.41451  -0.41430  -0.41317  -0.41225
 Alpha  occ. eigenvalues --   -0.41140  -0.40670  -0.40551  -0.40513  -0.40004
 Alpha  occ. eigenvalues --   -0.39586  -0.39440  -0.39339  -0.39036  -0.38768
 Alpha  occ. eigenvalues --   -0.38391  -0.38014  -0.37877  -0.37750  -0.37183
 Alpha  occ. eigenvalues --   -0.37157  -0.36903  -0.36703  -0.36542  -0.36442
 Alpha  occ. eigenvalues --   -0.36412  -0.35786  -0.34739  -0.34735  -0.34349
 Alpha  occ. eigenvalues --   -0.34267  -0.33458  -0.33189  -0.31098  -0.30769
 Alpha  occ. eigenvalues --   -0.30498  -0.29232  -0.28748  -0.28627  -0.24232
 Alpha  occ. eigenvalues --   -0.21441
 Alpha virt. eigenvalues --   -0.09248  -0.02079   0.00304   0.01039   0.02553
 Alpha virt. eigenvalues --    0.04552   0.04629   0.05332   0.05766   0.06902
 Alpha virt. eigenvalues --    0.07378   0.08108   0.08226   0.08608   0.09111

 Mulliken charges:
               1
     1  Mg   0.800473
     2  C    0.041400
     3  C   -0.066075
     4  C   -0.046481
     5  C   -0.078348
     6  N   -0.329117
     7  C   -0.031670
     8  C    0.018976
     9  C   -0.085127
    10  C    0.105240
    11  C    0.079904
    12  C    0.024244
    13  C    0.040857
    14  C    0.162679
    15  O   -0.240777
    16  O   -0.342263
    17  N   -0.344439
    18  C    0.092197
    19  C   -0.141954
    20  C   -0.058358
    21  C    0.172756
    22  C    0.098099
    23  C   -0.012865
    24  O   -0.192282
    25  C    0.080403
    26  N   -0.291764
    27  C   -0.060600
    28  C    0.018758
    29  C   -0.029710
    30  C    0.088107
    31  C    0.079793
    32  C   -0.008140
    33  C   -0.003660
    34  N   -0.337610
    35  C    0.096204
    36  C   -0.179782
    37  C    0.041970
    38  C    0.058464
    39  C    0.143370
    40  C    0.002507
    41  O   -0.168842
    42  C   -0.034794
    43  C    0.203326
    44  O   -0.209028
    45  O   -0.359011
    46  C    0.167770
    47  C    0.273372
    48  C   -0.123909
    49  C   -0.187219
    50  C    0.087699
    51  C    0.067349
    52  C   -0.007459
    53  C    0.051892
    54  C   -0.128846
    55  C    0.049512
    56  C    0.019508
    57  C    0.034575
    58  C    0.029146
    59  C   -0.142681
    60  C    0.074775
    61  C    0.067538
    62  C   -0.038828
    63  C    0.065559
    64  C   -0.137917
    65  C    0.047772
    66  C    0.030300
    67  H   -0.007698
    68  H   -0.071336
    69  H   -0.033279
    70  H    0.017231
    71  H    0.018190
    72  H    0.020121
    73  H    0.026937
    74  H    0.014792
    75  H    0.026708
    76  H    0.022883
    77  H    0.039090
    78  H    0.043486
    79  H    0.026484
    80  H    0.021523
    81  H    0.036456
    82  H    0.017313
    83  H    0.055386
    84  H    0.037975
    85  H    0.005610
    86  H   -0.003948
    87  H    0.017607
    88  H    0.027268
    89  H    0.028881
    90  H    0.018988
    91  H    0.006577
    92  H    0.018078
    93  H    0.009668
    94  H    0.024454
    95  H    0.041506
    96  H    0.007898
    97  H    0.043500
    98  H    0.040091
    99  H    0.041301
   100  H    0.055742
   101  H    0.043473
   102  H    0.038582
   103  H    0.027516
   104  H    0.009343
   105  H    0.032607
   106  H    0.035516
   107  H    0.012621
   108  H    0.024534
   109  H    0.027444
   110  H    0.000317
   111  H   -0.017232
   112  H   -0.006349
   113  H   -0.004051
   114  H   -0.019051
   115  H    0.009065
   116  H    0.009290
   117  H    0.004171
   118  H   -0.000501
   119  H   -0.021058
   120  H   -0.001973
   121  H   -0.008563
   122  H   -0.010549
   123  H   -0.007546
   124  H    0.001197
   125  H    0.015445
   126  H   -0.001108
   127  H   -0.015961
   128  H   -0.002441
   129  H    0.003757
   130  H    0.004810
   131  H    0.003648
   132  H   -0.013245
   133  H    0.008817
   134  H   -0.000501
   135  H    0.012009
   136  H    0.006426
   137  H    0.010121
   138  H    0.008171
   139  H    0.000909
   140  H   -0.012079
 Sum of Mulliken charges =  -0.00000

 Dipole moment (field-independent basis, Debye):
    X=              0.2076    Y=              6.4812    Z=              0.6377  Tot=              6.5158
 Quadrupole moment (field-independent basis, Debye-Ang):
   XX=           -394.8955   YY=           -425.4531   ZZ=           -403.1226
   XY=            -54.1050   XZ=            -26.0192   YZ=            -34.5335

 Normal termination of Gaussian 16 at Wed May  4 07:57:37 2022.
