 Gaussian 16, Revision A.03,
 Gaussian 16:  ES64L-G16RevA.03 25-Dec-2016

 ---------------------------------
 #p PBE1PBE/Def2SVP td=(nstates=5)
 ---------------------------------

 ------------------------------------------------------
 step_1501_chromophore_26 TDDFT with PBE1PBE functional
 ------------------------------------------------------
 Symbolic Z-matrix:
 Charge =  0 Multiplicity = 1

                         Standard orientation:
 ---------------------------------------------------------------------
 Center     Atomic      Atomic             Coordinates (Angstroms)
 Number     Number       Type             X           Y           Z
 ---------------------------------------------------------------------
      1         12           0       -4.243165    1.249870    0.637962
      2          6           0       -5.025237   -2.086523   -0.132801
      3          6           0       -1.965145    0.137405    3.208119
      4          6           0       -2.898985    4.293288    0.829604
      5          6           0       -5.463170    2.142076   -2.543290
      6          7           0       -3.599388   -0.707959    1.392194
      7          6           0       -4.064711   -1.992875    0.976305
      8          6           0       -3.561576   -3.062733    1.867243
      9          6           0       -2.637208   -2.297951    2.912783
     10          6           0       -2.699882   -0.847497    2.456870
     11          6           0       -2.952137   -2.559180    4.410115
     12          6           0       -2.945170   -4.317341    1.115255
     13          6           0       -2.064795   -4.084828   -0.186188
     14          6           0       -0.685793   -4.694797   -0.095608
     15          8           0       -0.453078   -5.772810    0.445026
     16          8           0        0.242077   -3.811820   -0.609592
     17          7           0       -2.811137    2.218485    2.028906
     18          6           0       -2.007609    1.557809    2.989092
     19          6           0       -1.209282    2.601539    3.612475
     20          6           0       -1.544559    3.885580    2.956574
     21          6           0       -2.443315    3.482638    1.883943
     22          6           0       -0.214007    2.260807    4.703500
     23          6           0       -0.873806    5.234173    3.275254
     24          8           0        0.006626    5.235267    4.099545
     25          6           0       -1.247253    6.457169    2.695133
     26          7           0       -4.174948    2.974110   -0.713622
     27          6           0       -3.706709    4.200318   -0.252226
     28          6           0       -4.147925    5.356672   -1.114784
     29          6           0       -4.840454    4.626020   -2.284818
     30          6           0       -4.918017    3.178472   -1.807733
     31          6           0       -4.920159    6.553824   -0.472685
     32          6           0       -4.138898    4.694070   -3.691912
     33          6           0       -4.987502    5.088060   -4.940979
     34          7           0       -5.251922    0.212501   -0.965712
     35          6           0       -5.707215    0.770309   -2.207624
     36          6           0       -6.447609   -0.262733   -2.855411
     37          6           0       -6.207794   -1.406067   -2.091966
     38          6           0       -5.475165   -1.078670   -0.998628
     39          6           0       -7.274127   -0.232418   -4.062439
     40          6           0       -6.502218   -2.819330   -1.991194
     41          8           0       -7.105054   -3.562074   -2.756112
     42          6           0       -5.784327   -3.334404   -0.702735
     43          6           0       -6.772586   -4.078439    0.160691
     44          8           0       -6.863869   -5.298166    0.142136
     45          8           0       -7.394644   -3.225285    1.049229
     46          6           0       -8.371008   -3.746892    2.019004
     47          6           0        1.670777   -4.264885   -0.460657
     48          6           0        2.400133   -3.293113   -1.418467
     49          6           0        3.698150   -2.823111   -1.255635
     50          6           0        4.601165   -3.304609   -0.171467
     51          6           0        4.126300   -1.921529   -2.413711
     52          6           0        5.666022   -1.643880   -2.491050
     53          6           0        6.064091   -0.196157   -2.862334
     54          6           0        6.323688    0.788280   -1.691562
     55          6           0        6.024876    2.285488   -2.074599
     56          6           0        7.728190    0.661126   -1.093859
     57          6           0        7.795824    0.839080    0.416702
     58          6           0        8.239471   -0.395943    1.267668
     59          6           0        9.710807   -0.255177    1.790551
     60          6           0        9.748279   -1.006937    3.067311
     61          6           0       10.820669   -0.699046    0.686723
     62          6           0       11.243116    0.560433   -0.124239
     63          6           0       12.735356    0.902672   -0.121407
     64          6           0       13.421502    0.111608   -1.326856
     65          6           0       14.483808   -0.874783   -0.830020
     66          6           0       13.970750    1.120508   -2.399795
     67          1           0       -1.392797   -0.136890    4.096442
     68          1           0       -2.507769    5.313454    0.824901
     69          1           0       -5.792887    2.374613   -3.558515
     70          1           0       -4.439283   -3.481870    2.359357
     71          1           0       -1.618889   -2.655787    2.763309
     72          1           0       -3.218449   -1.601983    4.856388
     73          1           0       -2.057860   -2.976241    4.872982
     74          1           0       -3.828034   -3.206999    4.431870
     75          1           0       -3.736337   -5.051362    0.962622
     76          1           0       -2.252703   -4.818283    1.792153
     77          1           0       -2.057270   -3.016328   -0.401399
     78          1           0       -2.535650   -4.520723   -1.068284
     79          1           0        0.465149    1.464178    4.400345
     80          1           0       -0.844013    1.962460    5.541519
     81          1           0        0.413655    3.070333    5.077276
     82          1           0       -2.327009    6.332607    2.623004
     83          1           0       -0.936467    6.582585    1.657768
     84          1           0       -0.995546    7.293750    3.346899
     85          1           0       -3.247343    5.687437   -1.631332
     86          1           0       -5.738309    5.230243   -2.412850
     87          1           0       -4.158873    7.333575   -0.461530
     88          1           0       -5.192733    6.300221    0.551845
     89          1           0       -5.769961    7.002577   -0.988689
     90          1           0       -3.681667    3.732423   -3.925095
     91          1           0       -3.321489    5.412780   -3.748530
     92          1           0       -4.549229    5.963471   -5.421684
     93          1           0       -5.973196    5.317847   -4.536020
     94          1           0       -5.062794    4.301934   -5.691110
     95          1           0       -6.752521   -0.884149   -4.763863
     96          1           0       -7.361431    0.782749   -4.449219
     97          1           0       -8.211313   -0.684935   -3.738854
     98          1           0       -5.097787   -4.087628   -1.088150
     99          1           0       -7.965631   -3.449792    2.986638
    100          1           0       -8.456317   -4.820900    1.857777
    101          1           0       -9.327051   -3.261313    1.822660
    102          1           0        1.814460   -5.310212   -0.731140
    103          1           0        2.063799   -4.227216    0.555109
    104          1           0        1.775829   -2.807298   -2.168625
    105          1           0        4.726151   -2.392904    0.412416
    106          1           0        5.573286   -3.659331   -0.512725
    107          1           0        4.248238   -4.143928    0.427264
    108          1           0        3.573264   -0.982927   -2.358315
    109          1           0        3.908953   -2.401826   -3.367025
    110          1           0        6.215785   -2.206156   -3.245858
    111          1           0        6.101921   -1.875814   -1.519757
    112          1           0        5.183462    0.215749   -3.355336
    113          1           0        6.979973   -0.342444   -3.435472
    114          1           0        5.649704    0.536273   -0.872294
    115          1           0        5.018705    2.592395   -1.787704
    116          1           0        6.137640    2.421489   -3.149500
    117          1           0        6.729334    2.936760   -1.557081
    118          1           0        8.424241    1.319284   -1.614186
    119          1           0        8.047235   -0.363873   -1.284616
    120          1           0        6.832764    1.226254    0.748483
    121          1           0        8.595603    1.573958    0.508646
    122          1           0        8.097120   -1.301550    0.677930
    123          1           0        7.523336   -0.545143    2.076311
    124          1           0        9.849704    0.786076    2.083423
    125          1           0        8.887891   -1.625307    3.323966
    126          1           0        9.914973   -0.261304    3.843730
    127          1           0       10.665486   -1.596017    3.081460
    128          1           0       10.396684   -1.353010   -0.074863
    129          1           0       11.600647   -1.245421    1.216272
    130          1           0       10.784238    1.513336    0.140422
    131          1           0       10.816855    0.299616   -1.093433
    132          1           0       13.061391    0.368073    0.771559
    133          1           0       12.972815    1.964239   -0.051046
    134          1           0       12.647776   -0.345817   -1.943144
    135          1           0       14.843424   -1.633874   -1.524027
    136          1           0       14.097551   -1.391318    0.049156
    137          1           0       15.322007   -0.236459   -0.548798
    138          1           0       15.058179    1.152816   -2.470248
    139          1           0       13.440135    2.072631   -2.392207
    140          1           0       13.666806    0.821408   -3.402547
 ---------------------------------------------------------------------

 SCF Done:  E(RPBE1PBE) =  -3005.29893958     A.U. after   16 cycles

 Excitation energies and oscillator strengths:

 Excited State   1:      Singlet-A      1.8285 eV  678.07 nm  f=0.3499  <S**2>=0.000
     245 -> 248        0.17749
     246 -> 247        0.69228
     246 <- 247       -0.11201
 This state for optimization and/or second-order correction.
 Total Energy, E(TD-HF/TD-DFT) =  -3005.23174436
 Copying the excited state density for this state as the 1-particle RhoCI density.

 Excited State   2:      Singlet-A      2.1534 eV  575.76 nm  f=0.1004  <S**2>=0.000
     242 -> 247        0.10575
     245 -> 247        0.65009
     246 -> 248       -0.24717

 Excited State   3:      Singlet-A      2.6366 eV  470.24 nm  f=0.0063  <S**2>=0.000
     243 -> 247        0.69258

 Excited State   4:      Singlet-A      2.8174 eV  440.07 nm  f=0.0083  <S**2>=0.000
     241 -> 247       -0.24420
     242 -> 247        0.62678
     246 -> 248        0.14257

 Excited State   5:      Singlet-A      2.8997 eV  427.57 nm  f=0.0022  <S**2>=0.000
     241 -> 247        0.63581
     241 -> 249        0.10971
     242 -> 247        0.25796

 The electronic state is 1-A.
 Alpha  occ. eigenvalues --  -46.93973 -19.25887 -19.25529 -19.20154 -19.19941
 Alpha  occ. eigenvalues --  -19.18879 -19.18043 -14.42786 -14.41772 -14.39058
 Alpha  occ. eigenvalues --  -14.38157 -10.36524 -10.36255 -10.31750 -10.31241
 Alpha  occ. eigenvalues --  -10.30326 -10.29770 -10.29579 -10.29325 -10.28745
 Alpha  occ. eigenvalues --  -10.28664 -10.27901 -10.27876 -10.27813 -10.26681
 Alpha  occ. eigenvalues --  -10.26355 -10.26285 -10.26165 -10.26018 -10.25963
 Alpha  occ. eigenvalues --  -10.25901 -10.25841 -10.25500 -10.25430 -10.24934
 Alpha  occ. eigenvalues --  -10.24866 -10.24851 -10.24845 -10.24713 -10.24694
 Alpha  occ. eigenvalues --  -10.24506 -10.24052 -10.23969 -10.23757 -10.23564
 Alpha  occ. eigenvalues --  -10.23532 -10.23454 -10.23384 -10.23253 -10.23131
 Alpha  occ. eigenvalues --  -10.23091 -10.23088 -10.22941 -10.22768 -10.22555
 Alpha  occ. eigenvalues --  -10.22370 -10.22303 -10.22284 -10.22135 -10.21936
 Alpha  occ. eigenvalues --  -10.21891 -10.21773 -10.21678 -10.21534 -10.21520
 Alpha  occ. eigenvalues --  -10.21041  -3.15705  -1.88533  -1.88076  -1.87910
 Alpha  occ. eigenvalues --   -1.10248  -1.10072  -1.05430  -1.04173  -1.02418
 Alpha  occ. eigenvalues --   -1.02254  -0.99202  -0.98396  -0.97216  -0.96151
 Alpha  occ. eigenvalues --   -0.86329  -0.84308  -0.83800  -0.83608  -0.83524
 Alpha  occ. eigenvalues --   -0.82824  -0.82445  -0.82023  -0.81561  -0.81234
 Alpha  occ. eigenvalues --   -0.79766  -0.79701  -0.78577  -0.78047  -0.77735
 Alpha  occ. eigenvalues --   -0.77338  -0.76424  -0.75942  -0.75274  -0.74711
 Alpha  occ. eigenvalues --   -0.73989  -0.72724  -0.72367  -0.71591  -0.70980
 Alpha  occ. eigenvalues --   -0.70779  -0.69903  -0.69621  -0.68628  -0.68352
 Alpha  occ. eigenvalues --   -0.67640  -0.66881  -0.66401  -0.64910  -0.63742
 Alpha  occ. eigenvalues --   -0.62937  -0.61624  -0.61190  -0.60382  -0.60203
 Alpha  occ. eigenvalues --   -0.59451  -0.59085  -0.59040  -0.58604  -0.58045
 Alpha  occ. eigenvalues --   -0.57882  -0.57290  -0.57130  -0.56377  -0.55176
 Alpha  occ. eigenvalues --   -0.54112  -0.54021  -0.53595  -0.52879  -0.52458
 Alpha  occ. eigenvalues --   -0.51727  -0.51314  -0.51076  -0.50319  -0.50250
 Alpha  occ. eigenvalues --   -0.49811  -0.49419  -0.48981  -0.48565  -0.48469
 Alpha  occ. eigenvalues --   -0.47846  -0.47630  -0.47544  -0.47503  -0.47313
 Alpha  occ. eigenvalues --   -0.47164  -0.47047  -0.46852  -0.46610  -0.46531
 Alpha  occ. eigenvalues --   -0.46277  -0.46158  -0.46050  -0.45830  -0.45677
 Alpha  occ. eigenvalues --   -0.45417  -0.44736  -0.44688  -0.44418  -0.44203
 Alpha  occ. eigenvalues --   -0.44110  -0.44028  -0.43706  -0.43601  -0.43492
 Alpha  occ. eigenvalues --   -0.43465  -0.43280  -0.43028  -0.42899  -0.42517
 Alpha  occ. eigenvalues --   -0.42296  -0.41776  -0.41681  -0.41652  -0.41452
 Alpha  occ. eigenvalues --   -0.41371  -0.41274  -0.40785  -0.40579  -0.40380
 Alpha  occ. eigenvalues --   -0.40151  -0.40085  -0.39870  -0.39769  -0.39449
 Alpha  occ. eigenvalues --   -0.39333  -0.39235  -0.39092  -0.38793  -0.38692
 Alpha  occ. eigenvalues --   -0.38512  -0.38240  -0.38079  -0.37803  -0.37659
 Alpha  occ. eigenvalues --   -0.37384  -0.37216  -0.37013  -0.36976  -0.36623
 Alpha  occ. eigenvalues --   -0.36395  -0.36343  -0.36290  -0.36122  -0.36062
 Alpha  occ. eigenvalues --   -0.35966  -0.35575  -0.35445  -0.35298  -0.34843
 Alpha  occ. eigenvalues --   -0.34413  -0.34312  -0.34232  -0.34015  -0.33555
 Alpha  occ. eigenvalues --   -0.33175  -0.32808  -0.32767  -0.32719  -0.32168
 Alpha  occ. eigenvalues --   -0.31983  -0.31879  -0.31537  -0.31489  -0.31358
 Alpha  occ. eigenvalues --   -0.31300  -0.30660  -0.29910  -0.29638  -0.29268
 Alpha  occ. eigenvalues --   -0.29077  -0.28738  -0.28429  -0.26758  -0.25525
 Alpha  occ. eigenvalues --   -0.25423  -0.24892  -0.24222  -0.23926  -0.21142
 Alpha  occ. eigenvalues --   -0.19077
 Alpha virt. eigenvalues --   -0.11631  -0.05529  -0.03819  -0.01903  -0.01808
 Alpha virt. eigenvalues --    0.00149   0.00323   0.00744   0.01123   0.03094
 Alpha virt. eigenvalues --    0.03235   0.04499   0.04786   0.05051   0.05830

 Mulliken charges:
               1
     1  Mg   0.933915
     2  C    0.037876
     3  C   -0.057620
     4  C   -0.053732
     5  C   -0.074515
     6  N   -0.428372
     7  C    0.031338
     8  C   -0.045377
     9  C   -0.160295
    10  C    0.139637
    11  C    0.018314
    12  C   -0.027067
    13  C   -0.035628
    14  C    0.229185
    15  O   -0.272855
    16  O   -0.371655
    17  N   -0.454844
    18  C    0.118072
    19  C   -0.173361
    20  C   -0.098485
    21  C    0.198497
    22  C    0.038233
    23  C    0.044932
    24  O   -0.229452
    25  C    0.000434
    26  N   -0.386455
    27  C   -0.017253
    28  C   -0.058672
    29  C   -0.098498
    30  C    0.120688
    31  C    0.018697
    32  C   -0.066225
    33  C   -0.075238
    34  N   -0.459833
    35  C    0.120712
    36  C   -0.207302
    37  C   -0.006282
    38  C    0.107276
    39  C    0.087359
    40  C    0.099705
    41  O   -0.214952
    42  C   -0.137615
    43  C    0.292609
    44  O   -0.245721
    45  O   -0.389903
    46  C    0.115695
    47  C    0.234608
    48  C   -0.139103
    49  C   -0.221233
    50  C    0.014999
    51  C    0.003141
    52  C   -0.069015
    53  C   -0.008734
    54  C   -0.210702
    55  C   -0.011858
    56  C   -0.032781
    57  C   -0.031007
    58  C   -0.022452
    59  C   -0.229651
    60  C    0.015309
    61  C    0.016502
    62  C   -0.100391
    63  C    0.005089
    64  C   -0.224970
    65  C   -0.017891
    66  C   -0.027094
    67  H    0.021577
    68  H   -0.033394
    69  H    0.002278
    70  H    0.056977
    71  H    0.057106
    72  H    0.048529
    73  H    0.053463
    74  H    0.042417
    75  H    0.058367
    76  H    0.055787
    77  H    0.073683
    78  H    0.075989
    79  H    0.053407
    80  H    0.050048
    81  H    0.064079
    82  H    0.045558
    83  H    0.081176
    84  H    0.065269
    85  H    0.044973
    86  H    0.034244
    87  H    0.044523
    88  H    0.055136
    89  H    0.054442
    90  H    0.052095
    91  H    0.038871
    92  H    0.045816
    93  H    0.036952
    94  H    0.051098
    95  H    0.069600
    96  H    0.035697
    97  H    0.071318
    98  H    0.079638
    99  H    0.062501
   100  H    0.075101
   101  H    0.065339
   102  H    0.064916
   103  H    0.052939
   104  H    0.038604
   105  H    0.062433
   106  H    0.061985
   107  H    0.039585
   108  H    0.056042
   109  H    0.059968
   110  H    0.032810
   111  H    0.019081
   112  H    0.027762
   113  H    0.028067
   114  H    0.021014
   115  H    0.036902
   116  H    0.036646
   117  H    0.031991
   118  H    0.031136
   119  H    0.012711
   120  H    0.029983
   121  H    0.025351
   122  H    0.022123
   123  H    0.025057
   124  H    0.038725
   125  H    0.041442
   126  H    0.027306
   127  H    0.012369
   128  H    0.029135
   129  H    0.033147
   130  H    0.035850
   131  H    0.036603
   132  H    0.022480
   133  H    0.038883
   134  H    0.036746
   135  H    0.039704
   136  H    0.035000
   137  H    0.038163
   138  H    0.034805
   139  H    0.028077
   140  H    0.016064
 Sum of Mulliken charges =  -0.00000

 Dipole moment (field-independent basis, Debye):
    X=              0.1655    Y=              6.4984    Z=              0.5582  Tot=              6.5244
 Quadrupole moment (field-independent basis, Debye-Ang):
   XX=           -391.7078   YY=           -421.8048   ZZ=           -399.3177
   XY=            -54.6165   XZ=            -25.1236   YZ=            -35.9262

 Normal termination of Gaussian 16 at Wed May  4 08:17:31 2022.
