 Gaussian 16, Revision A.03,
 Gaussian 16:  ES64L-G16RevA.03 25-Dec-2016

 --------------------------------
 #p wB97XD/Def2SVP td=(nstates=5)
 --------------------------------

 -----------------------------------------------------
 step_1501_chromophore_26 TDDFT with wB97XD functional
 -----------------------------------------------------
 Symbolic Z-matrix:
 Charge =  0 Multiplicity = 1

                         Standard orientation:
 ---------------------------------------------------------------------
 Center     Atomic      Atomic             Coordinates (Angstroms)
 Number     Number       Type             X           Y           Z
 ---------------------------------------------------------------------
      1         12           0       -4.243165    1.249870    0.637962
      2          6           0       -5.025237   -2.086523   -0.132801
      3          6           0       -1.965145    0.137405    3.208119
      4          6           0       -2.898985    4.293288    0.829604
      5          6           0       -5.463170    2.142076   -2.543290
      6          7           0       -3.599388   -0.707959    1.392194
      7          6           0       -4.064711   -1.992875    0.976305
      8          6           0       -3.561576   -3.062733    1.867243
      9          6           0       -2.637208   -2.297951    2.912783
     10          6           0       -2.699882   -0.847497    2.456870
     11          6           0       -2.952137   -2.559180    4.410115
     12          6           0       -2.945170   -4.317341    1.115255
     13          6           0       -2.064795   -4.084828   -0.186188
     14          6           0       -0.685793   -4.694797   -0.095608
     15          8           0       -0.453078   -5.772810    0.445026
     16          8           0        0.242077   -3.811820   -0.609592
     17          7           0       -2.811137    2.218485    2.028906
     18          6           0       -2.007609    1.557809    2.989092
     19          6           0       -1.209282    2.601539    3.612475
     20          6           0       -1.544559    3.885580    2.956574
     21          6           0       -2.443315    3.482638    1.883943
     22          6           0       -0.214007    2.260807    4.703500
     23          6           0       -0.873806    5.234173    3.275254
     24          8           0        0.006626    5.235267    4.099545
     25          6           0       -1.247253    6.457169    2.695133
     26          7           0       -4.174948    2.974110   -0.713622
     27          6           0       -3.706709    4.200318   -0.252226
     28          6           0       -4.147925    5.356672   -1.114784
     29          6           0       -4.840454    4.626020   -2.284818
     30          6           0       -4.918017    3.178472   -1.807733
     31          6           0       -4.920159    6.553824   -0.472685
     32          6           0       -4.138898    4.694070   -3.691912
     33          6           0       -4.987502    5.088060   -4.940979
     34          7           0       -5.251922    0.212501   -0.965712
     35          6           0       -5.707215    0.770309   -2.207624
     36          6           0       -6.447609   -0.262733   -2.855411
     37          6           0       -6.207794   -1.406067   -2.091966
     38          6           0       -5.475165   -1.078670   -0.998628
     39          6           0       -7.274127   -0.232418   -4.062439
     40          6           0       -6.502218   -2.819330   -1.991194
     41          8           0       -7.105054   -3.562074   -2.756112
     42          6           0       -5.784327   -3.334404   -0.702735
     43          6           0       -6.772586   -4.078439    0.160691
     44          8           0       -6.863869   -5.298166    0.142136
     45          8           0       -7.394644   -3.225285    1.049229
     46          6           0       -8.371008   -3.746892    2.019004
     47          6           0        1.670777   -4.264885   -0.460657
     48          6           0        2.400133   -3.293113   -1.418467
     49          6           0        3.698150   -2.823111   -1.255635
     50          6           0        4.601165   -3.304609   -0.171467
     51          6           0        4.126300   -1.921529   -2.413711
     52          6           0        5.666022   -1.643880   -2.491050
     53          6           0        6.064091   -0.196157   -2.862334
     54          6           0        6.323688    0.788280   -1.691562
     55          6           0        6.024876    2.285488   -2.074599
     56          6           0        7.728190    0.661126   -1.093859
     57          6           0        7.795824    0.839080    0.416702
     58          6           0        8.239471   -0.395943    1.267668
     59          6           0        9.710807   -0.255177    1.790551
     60          6           0        9.748279   -1.006937    3.067311
     61          6           0       10.820669   -0.699046    0.686723
     62          6           0       11.243116    0.560433   -0.124239
     63          6           0       12.735356    0.902672   -0.121407
     64          6           0       13.421502    0.111608   -1.326856
     65          6           0       14.483808   -0.874783   -0.830020
     66          6           0       13.970750    1.120508   -2.399795
     67          1           0       -1.392797   -0.136890    4.096442
     68          1           0       -2.507769    5.313454    0.824901
     69          1           0       -5.792887    2.374613   -3.558515
     70          1           0       -4.439283   -3.481870    2.359357
     71          1           0       -1.618889   -2.655787    2.763309
     72          1           0       -3.218449   -1.601983    4.856388
     73          1           0       -2.057860   -2.976241    4.872982
     74          1           0       -3.828034   -3.206999    4.431870
     75          1           0       -3.736337   -5.051362    0.962622
     76          1           0       -2.252703   -4.818283    1.792153
     77          1           0       -2.057270   -3.016328   -0.401399
     78          1           0       -2.535650   -4.520723   -1.068284
     79          1           0        0.465149    1.464178    4.400345
     80          1           0       -0.844013    1.962460    5.541519
     81          1           0        0.413655    3.070333    5.077276
     82          1           0       -2.327009    6.332607    2.623004
     83          1           0       -0.936467    6.582585    1.657768
     84          1           0       -0.995546    7.293750    3.346899
     85          1           0       -3.247343    5.687437   -1.631332
     86          1           0       -5.738309    5.230243   -2.412850
     87          1           0       -4.158873    7.333575   -0.461530
     88          1           0       -5.192733    6.300221    0.551845
     89          1           0       -5.769961    7.002577   -0.988689
     90          1           0       -3.681667    3.732423   -3.925095
     91          1           0       -3.321489    5.412780   -3.748530
     92          1           0       -4.549229    5.963471   -5.421684
     93          1           0       -5.973196    5.317847   -4.536020
     94          1           0       -5.062794    4.301934   -5.691110
     95          1           0       -6.752521   -0.884149   -4.763863
     96          1           0       -7.361431    0.782749   -4.449219
     97          1           0       -8.211313   -0.684935   -3.738854
     98          1           0       -5.097787   -4.087628   -1.088150
     99          1           0       -7.965631   -3.449792    2.986638
    100          1           0       -8.456317   -4.820900    1.857777
    101          1           0       -9.327051   -3.261313    1.822660
    102          1           0        1.814460   -5.310212   -0.731140
    103          1           0        2.063799   -4.227216    0.555109
    104          1           0        1.775829   -2.807298   -2.168625
    105          1           0        4.726151   -2.392904    0.412416
    106          1           0        5.573286   -3.659331   -0.512725
    107          1           0        4.248238   -4.143928    0.427264
    108          1           0        3.573264   -0.982927   -2.358315
    109          1           0        3.908953   -2.401826   -3.367025
    110          1           0        6.215785   -2.206156   -3.245858
    111          1           0        6.101921   -1.875814   -1.519757
    112          1           0        5.183462    0.215749   -3.355336
    113          1           0        6.979973   -0.342444   -3.435472
    114          1           0        5.649704    0.536273   -0.872294
    115          1           0        5.018705    2.592395   -1.787704
    116          1           0        6.137640    2.421489   -3.149500
    117          1           0        6.729334    2.936760   -1.557081
    118          1           0        8.424241    1.319284   -1.614186
    119          1           0        8.047235   -0.363873   -1.284616
    120          1           0        6.832764    1.226254    0.748483
    121          1           0        8.595603    1.573958    0.508646
    122          1           0        8.097120   -1.301550    0.677930
    123          1           0        7.523336   -0.545143    2.076311
    124          1           0        9.849704    0.786076    2.083423
    125          1           0        8.887891   -1.625307    3.323966
    126          1           0        9.914973   -0.261304    3.843730
    127          1           0       10.665486   -1.596017    3.081460
    128          1           0       10.396684   -1.353010   -0.074863
    129          1           0       11.600647   -1.245421    1.216272
    130          1           0       10.784238    1.513336    0.140422
    131          1           0       10.816855    0.299616   -1.093433
    132          1           0       13.061391    0.368073    0.771559
    133          1           0       12.972815    1.964239   -0.051046
    134          1           0       12.647776   -0.345817   -1.943144
    135          1           0       14.843424   -1.633874   -1.524027
    136          1           0       14.097551   -1.391318    0.049156
    137          1           0       15.322007   -0.236459   -0.548798
    138          1           0       15.058179    1.152816   -2.470248
    139          1           0       13.440135    2.072631   -2.392207
    140          1           0       13.666806    0.821408   -3.402547
 ---------------------------------------------------------------------

 SCF Done:  E(RwB97XD) =  -3007.80756285     A.U. after   20 cycles

 Excitation energies and oscillator strengths:

 Excited State   1:      Singlet-A      1.6033 eV  773.33 nm  f=0.3660  <S**2>=0.000
     245 -> 248        0.18801
     246 -> 247        0.68315
     245 <- 248        0.12032
 This state for optimization and/or second-order correction.
 Total Energy, E(TD-HF/TD-DFT) =  -3007.74864420
 Copying the excited state density for this state as the 1-particle RhoCI density.

 Excited State   2:      Singlet-A      2.0884 eV  593.68 nm  f=0.1064  <S**2>=0.000
     245 -> 247        0.63977
     246 -> 248       -0.27906
     246 <- 248       -0.10125

 Excited State   3:      Singlet-A      3.0214 eV  410.35 nm  f=0.0039  <S**2>=0.000
     242 -> 247       -0.15308
     243 -> 247        0.66583

 Excited State   4:      Singlet-A      3.1642 eV  391.84 nm  f=0.0003  <S**2>=0.000
     242 -> 247        0.64101
     243 -> 247        0.13744
     246 -> 248        0.20833

 Excited State   5:      Singlet-A      3.4727 eV  357.03 nm  f=0.0146  <S**2>=0.000
     241 -> 247        0.57159
     241 -> 249        0.28398
     241 -> 251        0.18307

 The electronic state is 1-A.
 Alpha  occ. eigenvalues --  -46.96932 -19.30418 -19.30105 -19.24793 -19.24643
 Alpha  occ. eigenvalues --  -19.23679 -19.22888 -14.47887 -14.46897 -14.44051
 Alpha  occ. eigenvalues --  -14.43059 -10.43370 -10.43017 -10.38601 -10.38100
 Alpha  occ. eigenvalues --  -10.36608 -10.36123 -10.36074 -10.35838 -10.35048
 Alpha  occ. eigenvalues --  -10.35001 -10.34365 -10.34287 -10.34055 -10.33006
 Alpha  occ. eigenvalues --  -10.32804 -10.32575 -10.32431 -10.32408 -10.32318
 Alpha  occ. eigenvalues --  -10.32221 -10.32079 -10.31827 -10.31814 -10.31280
 Alpha  occ. eigenvalues --  -10.31269 -10.31253 -10.31175 -10.31131 -10.31089
 Alpha  occ. eigenvalues --  -10.30766 -10.30494 -10.30358 -10.30194 -10.29927
 Alpha  occ. eigenvalues --  -10.29920 -10.29795 -10.29722 -10.29666 -10.29513
 Alpha  occ. eigenvalues --  -10.29503 -10.29439 -10.29278 -10.29241 -10.28934
 Alpha  occ. eigenvalues --  -10.28721 -10.28661 -10.28651 -10.28497 -10.28375
 Alpha  occ. eigenvalues --  -10.28216 -10.28167 -10.28062 -10.27948 -10.27910
 Alpha  occ. eigenvalues --  -10.27459  -3.22578  -1.96147  -1.95685  -1.95518
 Alpha  occ. eigenvalues --   -1.17663  -1.17436  -1.12929  -1.11647  -1.09788
 Alpha  occ. eigenvalues --   -1.09574  -1.06602  -1.05734  -1.04647  -1.03597
 Alpha  occ. eigenvalues --   -0.93958  -0.91994  -0.91374  -0.91283  -0.91146
 Alpha  occ. eigenvalues --   -0.90446  -0.90109  -0.89610  -0.89175  -0.88898
 Alpha  occ. eigenvalues --   -0.87470  -0.87423  -0.86252  -0.85659  -0.85418
 Alpha  occ. eigenvalues --   -0.84989  -0.84087  -0.83582  -0.82907  -0.82359
 Alpha  occ. eigenvalues --   -0.81640  -0.80332  -0.79979  -0.79246  -0.78629
 Alpha  occ. eigenvalues --   -0.78457  -0.77513  -0.77320  -0.76294  -0.76028
 Alpha  occ. eigenvalues --   -0.75176  -0.74480  -0.73963  -0.72527  -0.71293
 Alpha  occ. eigenvalues --   -0.70452  -0.69255  -0.68749  -0.67928  -0.67834
 Alpha  occ. eigenvalues --   -0.66920  -0.66714  -0.66553  -0.66064  -0.65716
 Alpha  occ. eigenvalues --   -0.65337  -0.64789  -0.64737  -0.64046  -0.62602
 Alpha  occ. eigenvalues --   -0.61542  -0.61479  -0.60990  -0.60276  -0.59849
 Alpha  occ. eigenvalues --   -0.59226  -0.58760  -0.58523  -0.57852  -0.57626
 Alpha  occ. eigenvalues --   -0.57246  -0.56850  -0.56366  -0.56022  -0.55836
 Alpha  occ. eigenvalues --   -0.55213  -0.55038  -0.54904  -0.54831  -0.54755
 Alpha  occ. eigenvalues --   -0.54669  -0.54420  -0.54191  -0.53985  -0.53922
 Alpha  occ. eigenvalues --   -0.53674  -0.53557  -0.53351  -0.53196  -0.53017
 Alpha  occ. eigenvalues --   -0.52679  -0.52099  -0.52022  -0.51844  -0.51530
 Alpha  occ. eigenvalues --   -0.51417  -0.51350  -0.50970  -0.50904  -0.50792
 Alpha  occ. eigenvalues --   -0.50780  -0.50557  -0.50318  -0.50148  -0.49775
 Alpha  occ. eigenvalues --   -0.49569  -0.49102  -0.48903  -0.48886  -0.48680
 Alpha  occ. eigenvalues --   -0.48615  -0.48565  -0.48051  -0.47745  -0.47620
 Alpha  occ. eigenvalues --   -0.47362  -0.47252  -0.47062  -0.46969  -0.46609
 Alpha  occ. eigenvalues --   -0.46467  -0.46443  -0.46289  -0.45917  -0.45878
 Alpha  occ. eigenvalues --   -0.45634  -0.45457  -0.45241  -0.44938  -0.44830
 Alpha  occ. eigenvalues --   -0.44460  -0.44301  -0.44138  -0.43993  -0.43675
 Alpha  occ. eigenvalues --   -0.43484  -0.43442  -0.43356  -0.43288  -0.43108
 Alpha  occ. eigenvalues --   -0.43074  -0.42580  -0.42475  -0.42368  -0.41876
 Alpha  occ. eigenvalues --   -0.41427  -0.41305  -0.41231  -0.40948  -0.40626
 Alpha  occ. eigenvalues --   -0.40230  -0.39848  -0.39732  -0.39670  -0.39169
 Alpha  occ. eigenvalues --   -0.39026  -0.38912  -0.38559  -0.38518  -0.38443
 Alpha  occ. eigenvalues --   -0.38359  -0.37628  -0.36745  -0.36550  -0.36317
 Alpha  occ. eigenvalues --   -0.36183  -0.35440  -0.35298  -0.33310  -0.32708
 Alpha  occ. eigenvalues --   -0.32479  -0.31384  -0.30916  -0.30676  -0.26140
 Alpha  occ. eigenvalues --   -0.23222
 Alpha virt. eigenvalues --   -0.07606  -0.00176   0.02469   0.04167   0.04690
 Alpha virt. eigenvalues --    0.06900   0.06942   0.07540   0.07986   0.09810
 Alpha virt. eigenvalues --    0.09880   0.11031   0.11463   0.11714   0.12505

 Mulliken charges:
               1
     1  Mg   0.929454
     2  C    0.030527
     3  C   -0.074568
     4  C   -0.060990
     5  C   -0.087613
     6  N   -0.398369
     7  C    0.007310
     8  C   -0.025080
     9  C   -0.136154
    10  C    0.127645
    11  C    0.031006
    12  C   -0.015049
    13  C   -0.020529
    14  C    0.222002
    15  O   -0.271154
    16  O   -0.371128
    17  N   -0.422975
    18  C    0.108078
    19  C   -0.161864
    20  C   -0.096767
    21  C    0.195918
    22  C    0.050080
    23  C    0.040205
    24  O   -0.224693
    25  C    0.014164
    26  N   -0.357752
    27  C   -0.031967
    28  C   -0.032127
    29  C   -0.073211
    30  C    0.109434
    31  C    0.030394
    32  C   -0.053427
    33  C   -0.058261
    34  N   -0.423797
    35  C    0.110330
    36  C   -0.197327
    37  C   -0.003341
    38  C    0.092060
    39  C    0.098544
    40  C    0.079227
    41  O   -0.205072
    42  C   -0.098241
    43  C    0.269452
    44  O   -0.240966
    45  O   -0.389313
    46  C    0.131465
    47  C    0.245881
    48  C   -0.144302
    49  C   -0.211432
    50  C    0.031626
    51  C    0.018323
    52  C   -0.045683
    53  C    0.009501
    54  C   -0.180029
    55  C   -0.000341
    56  C   -0.014896
    57  C   -0.009945
    58  C   -0.008204
    59  C   -0.195348
    60  C    0.026924
    61  C    0.027432
    62  C   -0.078326
    63  C    0.023264
    64  C   -0.198905
    65  C   -0.000412
    66  C   -0.017050
    67  H    0.017417
    68  H   -0.049345
    69  H   -0.006912
    70  H    0.045021
    71  H    0.045741
    72  H    0.040820
    73  H    0.049271
    74  H    0.036733
    75  H    0.052114
    76  H    0.047013
    77  H    0.064471
    78  H    0.070236
    79  H    0.048554
    80  H    0.043956
    81  H    0.061616
    82  H    0.036281
    83  H    0.077865
    84  H    0.065022
    85  H    0.032431
    86  H    0.019859
    87  H    0.038474
    88  H    0.048594
    89  H    0.050608
    90  H    0.042890
    91  H    0.030818
    92  H    0.040603
    93  H    0.029222
    94  H    0.045798
    95  H    0.064701
    96  H    0.030303
    97  H    0.066452
    98  H    0.069704
    99  H    0.058556
   100  H    0.071732
   101  H    0.061205
   102  H    0.060776
   103  H    0.047231
   104  H    0.036239
   105  H    0.054626
   106  H    0.056397
   107  H    0.035449
   108  H    0.047941
   109  H    0.052907
   110  H    0.026821
   111  H   -0.001019
   112  H    0.017169
   113  H    0.020683
   114  H    0.004479
   115  H    0.031930
   116  H    0.030655
   117  H    0.025663
   118  H    0.022211
   119  H   -0.003819
   120  H    0.022121
   121  H    0.011533
   122  H    0.010043
   123  H    0.016885
   124  H    0.025276
   125  H    0.035831
   126  H    0.021880
   127  H    0.005557
   128  H    0.021173
   129  H    0.022949
   130  H    0.025856
   131  H    0.023024
   132  H    0.008873
   133  H    0.033758
   134  H    0.024353
   135  H    0.035222
   136  H    0.026510
   137  H    0.030170
   138  H    0.029281
   139  H    0.021943
   140  H    0.009958
 Sum of Mulliken charges =  -0.00000

 Dipole moment (field-independent basis, Debye):
    X=              0.1887    Y=              6.6145    Z=              0.7031  Tot=              6.6545
 Quadrupole moment (field-independent basis, Debye-Ang):
   XX=           -390.9522   YY=           -421.5505   ZZ=           -398.9234
   XY=            -54.5683   XZ=            -25.9796   YZ=            -35.2468

 Normal termination of Gaussian 16 at Wed May  4 08:43:16 2022.
