 Gaussian 16, Revision A.03,
 Gaussian 16:  ES64L-G16RevA.03 25-Dec-2016

 --------------------
 #p ZINDO=(nstates=5)
 --------------------

 ------------------------------
 step_1501_chromophore_26 ZINDO
 ------------------------------
 Symbolic Z-matrix:
 Charge =  0 Multiplicity = 1

                         Standard orientation:
 ---------------------------------------------------------------------
 Center     Atomic      Atomic             Coordinates (Angstroms)
 Number     Number       Type             X           Y           Z
 ---------------------------------------------------------------------
      1         12           0       -4.243165    1.249870    0.637962
      2          6           0       -5.025237   -2.086523   -0.132801
      3          6           0       -1.965145    0.137405    3.208119
      4          6           0       -2.898985    4.293288    0.829604
      5          6           0       -5.463170    2.142076   -2.543290
      6          7           0       -3.599388   -0.707959    1.392194
      7          6           0       -4.064711   -1.992875    0.976305
      8          6           0       -3.561576   -3.062733    1.867243
      9          6           0       -2.637208   -2.297951    2.912783
     10          6           0       -2.699882   -0.847497    2.456870
     11          6           0       -2.952137   -2.559180    4.410115
     12          6           0       -2.945170   -4.317341    1.115255
     13          6           0       -2.064795   -4.084828   -0.186188
     14          6           0       -0.685793   -4.694797   -0.095608
     15          8           0       -0.453078   -5.772810    0.445026
     16          8           0        0.242077   -3.811820   -0.609592
     17          7           0       -2.811137    2.218485    2.028906
     18          6           0       -2.007609    1.557809    2.989092
     19          6           0       -1.209282    2.601539    3.612475
     20          6           0       -1.544559    3.885580    2.956574
     21          6           0       -2.443315    3.482638    1.883943
     22          6           0       -0.214007    2.260807    4.703500
     23          6           0       -0.873806    5.234173    3.275254
     24          8           0        0.006626    5.235267    4.099545
     25          6           0       -1.247253    6.457169    2.695133
     26          7           0       -4.174948    2.974110   -0.713622
     27          6           0       -3.706709    4.200318   -0.252226
     28          6           0       -4.147925    5.356672   -1.114784
     29          6           0       -4.840454    4.626020   -2.284818
     30          6           0       -4.918017    3.178472   -1.807733
     31          6           0       -4.920159    6.553824   -0.472685
     32          6           0       -4.138898    4.694070   -3.691912
     33          6           0       -4.987502    5.088060   -4.940979
     34          7           0       -5.251922    0.212501   -0.965712
     35          6           0       -5.707215    0.770309   -2.207624
     36          6           0       -6.447609   -0.262733   -2.855411
     37          6           0       -6.207794   -1.406067   -2.091966
     38          6           0       -5.475165   -1.078670   -0.998628
     39          6           0       -7.274127   -0.232418   -4.062439
     40          6           0       -6.502218   -2.819330   -1.991194
     41          8           0       -7.105054   -3.562074   -2.756112
     42          6           0       -5.784327   -3.334404   -0.702735
     43          6           0       -6.772586   -4.078439    0.160691
     44          8           0       -6.863869   -5.298166    0.142136
     45          8           0       -7.394644   -3.225285    1.049229
     46          6           0       -8.371008   -3.746892    2.019004
     47          6           0        1.670777   -4.264885   -0.460657
     48          6           0        2.400133   -3.293113   -1.418467
     49          6           0        3.698150   -2.823111   -1.255635
     50          6           0        4.601165   -3.304609   -0.171467
     51          6           0        4.126300   -1.921529   -2.413711
     52          6           0        5.666022   -1.643880   -2.491050
     53          6           0        6.064091   -0.196157   -2.862334
     54          6           0        6.323688    0.788280   -1.691562
     55          6           0        6.024876    2.285488   -2.074599
     56          6           0        7.728190    0.661126   -1.093859
     57          6           0        7.795824    0.839080    0.416702
     58          6           0        8.239471   -0.395943    1.267668
     59          6           0        9.710807   -0.255177    1.790551
     60          6           0        9.748279   -1.006937    3.067311
     61          6           0       10.820669   -0.699046    0.686723
     62          6           0       11.243116    0.560433   -0.124239
     63          6           0       12.735356    0.902672   -0.121407
     64          6           0       13.421502    0.111608   -1.326856
     65          6           0       14.483808   -0.874783   -0.830020
     66          6           0       13.970750    1.120508   -2.399795
     67          1           0       -1.392797   -0.136890    4.096442
     68          1           0       -2.507769    5.313454    0.824901
     69          1           0       -5.792887    2.374613   -3.558515
     70          1           0       -4.439283   -3.481870    2.359357
     71          1           0       -1.618889   -2.655787    2.763309
     72          1           0       -3.218449   -1.601983    4.856388
     73          1           0       -2.057860   -2.976241    4.872982
     74          1           0       -3.828034   -3.206999    4.431870
     75          1           0       -3.736337   -5.051362    0.962622
     76          1           0       -2.252703   -4.818283    1.792153
     77          1           0       -2.057270   -3.016328   -0.401399
     78          1           0       -2.535650   -4.520723   -1.068284
     79          1           0        0.465149    1.464178    4.400345
     80          1           0       -0.844013    1.962460    5.541519
     81          1           0        0.413655    3.070333    5.077276
     82          1           0       -2.327009    6.332607    2.623004
     83          1           0       -0.936467    6.582585    1.657768
     84          1           0       -0.995546    7.293750    3.346899
     85          1           0       -3.247343    5.687437   -1.631332
     86          1           0       -5.738309    5.230243   -2.412850
     87          1           0       -4.158873    7.333575   -0.461530
     88          1           0       -5.192733    6.300221    0.551845
     89          1           0       -5.769961    7.002577   -0.988689
     90          1           0       -3.681667    3.732423   -3.925095
     91          1           0       -3.321489    5.412780   -3.748530
     92          1           0       -4.549229    5.963471   -5.421684
     93          1           0       -5.973196    5.317847   -4.536020
     94          1           0       -5.062794    4.301934   -5.691110
     95          1           0       -6.752521   -0.884149   -4.763863
     96          1           0       -7.361431    0.782749   -4.449219
     97          1           0       -8.211313   -0.684935   -3.738854
     98          1           0       -5.097787   -4.087628   -1.088150
     99          1           0       -7.965631   -3.449792    2.986638
    100          1           0       -8.456317   -4.820900    1.857777
    101          1           0       -9.327051   -3.261313    1.822660
    102          1           0        1.814460   -5.310212   -0.731140
    103          1           0        2.063799   -4.227216    0.555109
    104          1           0        1.775829   -2.807298   -2.168625
    105          1           0        4.726151   -2.392904    0.412416
    106          1           0        5.573286   -3.659331   -0.512725
    107          1           0        4.248238   -4.143928    0.427264
    108          1           0        3.573264   -0.982927   -2.358315
    109          1           0        3.908953   -2.401826   -3.367025
    110          1           0        6.215785   -2.206156   -3.245858
    111          1           0        6.101921   -1.875814   -1.519757
    112          1           0        5.183462    0.215749   -3.355336
    113          1           0        6.979973   -0.342444   -3.435472
    114          1           0        5.649704    0.536273   -0.872294
    115          1           0        5.018705    2.592395   -1.787704
    116          1           0        6.137640    2.421489   -3.149500
    117          1           0        6.729334    2.936760   -1.557081
    118          1           0        8.424241    1.319284   -1.614186
    119          1           0        8.047235   -0.363873   -1.284616
    120          1           0        6.832764    1.226254    0.748483
    121          1           0        8.595603    1.573958    0.508646
    122          1           0        8.097120   -1.301550    0.677930
    123          1           0        7.523336   -0.545143    2.076311
    124          1           0        9.849704    0.786076    2.083423
    125          1           0        8.887891   -1.625307    3.323966
    126          1           0        9.914973   -0.261304    3.843730
    127          1           0       10.665486   -1.596017    3.081460
    128          1           0       10.396684   -1.353010   -0.074863
    129          1           0       11.600647   -1.245421    1.216272
    130          1           0       10.784238    1.513336    0.140422
    131          1           0       10.816855    0.299616   -1.093433
    132          1           0       13.061391    0.368073    0.771559
    133          1           0       12.972815    1.964239   -0.051046
    134          1           0       12.647776   -0.345817   -1.943144
    135          1           0       14.843424   -1.633874   -1.524027
    136          1           0       14.097551   -1.391318    0.049156
    137          1           0       15.322007   -0.236459   -0.548798
    138          1           0       15.058179    1.152816   -2.470248
    139          1           0       13.440135    2.072631   -2.392207
    140          1           0       13.666806    0.821408   -3.402547
 ---------------------------------------------------------------------

 SCF Done:  E(RZINDO/S) =  -474.052230158     A.U. after   20 cycles

 Excitation energies and oscillator strengths:

 Excited State   1:      Singlet-A      1.2010 eV 1032.31 nm  f=0.6094  <S**2>=0.000
     175 ->178        -0.19383
     176 ->177         0.66185
 This state for optimization and/or second-order correction.
 Total Energy, E(CIS/TDA) =  -474.008092895
 Copying the excited state density for this state as the 1-particle RhoCI density.

 Excited State   2:      Singlet-A      1.8671 eV  664.06 nm  f=0.0501  <S**2>=0.000
     175 ->177         0.55450
     176 ->178         0.41255

 Excited State   3:      Singlet-A      2.8945 eV  428.35 nm  f=0.0277  <S**2>=0.000
     168 ->177         0.12688
     168 ->179        -0.16599
     168 ->181         0.16783
     168 ->186        -0.13760
     169 ->179        -0.17973
     169 ->181         0.15304
     169 ->186        -0.14088
     171 ->177         0.25203
     172 ->177        -0.22579
     173 ->177         0.27947
     176 ->178        -0.12953
     176 ->180         0.14613

 Excited State   4:      Singlet-A      2.9308 eV  423.04 nm  f=0.0069  <S**2>=0.000
     176 ->179         0.11290
     176 ->180         0.66663

 Excited State   5:      Singlet-A      2.9414 eV  421.52 nm  f=0.5730  <S**2>=0.000
     170 ->177         0.13646
     170 ->179         0.13344
     171 ->177         0.17895
     172 ->177         0.23656
     173 ->177         0.20211
     175 ->177        -0.27636
     176 ->178         0.40773

 The electronic state is 1-A.
 Alpha  occ. eigenvalues --   -1.84883  -1.81264  -1.77362  -1.71598  -1.70578
 Alpha  occ. eigenvalues --   -1.69451  -1.66004  -1.62675  -1.60347  -1.58041
 Alpha  occ. eigenvalues --   -1.54379  -1.51106  -1.47980  -1.47194  -1.46856
 Alpha  occ. eigenvalues --   -1.45952  -1.41888  -1.41248  -1.38790  -1.36931
 Alpha  occ. eigenvalues --   -1.36003  -1.35216  -1.33723  -1.29610  -1.29018
 Alpha  occ. eigenvalues --   -1.28290  -1.27583  -1.23839  -1.20249  -1.18229
 Alpha  occ. eigenvalues --   -1.17448  -1.16260  -1.15242  -1.13911  -1.13162
 Alpha  occ. eigenvalues --   -1.11812  -1.10794  -1.09346  -1.06371  -1.04630
 Alpha  occ. eigenvalues --   -1.02679  -1.01368  -0.99415  -0.97498  -0.95187
 Alpha  occ. eigenvalues --   -0.94994  -0.93765  -0.92710  -0.92361  -0.92108
 Alpha  occ. eigenvalues --   -0.91589  -0.90532  -0.88679  -0.87997  -0.86891
 Alpha  occ. eigenvalues --   -0.86146  -0.85476  -0.83496  -0.82584  -0.80489
 Alpha  occ. eigenvalues --   -0.79890  -0.77960  -0.77889  -0.77403  -0.76503
 Alpha  occ. eigenvalues --   -0.75538  -0.74398  -0.73996  -0.73328  -0.73012
 Alpha  occ. eigenvalues --   -0.72590  -0.72429  -0.71759  -0.71521  -0.70804
 Alpha  occ. eigenvalues --   -0.70490  -0.69671  -0.69554  -0.68321  -0.67943
 Alpha  occ. eigenvalues --   -0.67343  -0.66937  -0.66162  -0.65898  -0.65546
 Alpha  occ. eigenvalues --   -0.65150  -0.64951  -0.64712  -0.64340  -0.64198
 Alpha  occ. eigenvalues --   -0.63760  -0.63165  -0.62870  -0.62664  -0.62400
 Alpha  occ. eigenvalues --   -0.62038  -0.61906  -0.61165  -0.60816  -0.60619
 Alpha  occ. eigenvalues --   -0.60565  -0.59786  -0.59316  -0.58900  -0.58393
 Alpha  occ. eigenvalues --   -0.57987  -0.57590  -0.56723  -0.56265  -0.56099
 Alpha  occ. eigenvalues --   -0.55856  -0.55692  -0.55477  -0.55023  -0.54732
 Alpha  occ. eigenvalues --   -0.54315  -0.54038  -0.53450  -0.53411  -0.53212
 Alpha  occ. eigenvalues --   -0.52692  -0.52126  -0.51892  -0.51646  -0.51365
 Alpha  occ. eigenvalues --   -0.51121  -0.51017  -0.50827  -0.50681  -0.50511
 Alpha  occ. eigenvalues --   -0.49870  -0.49748  -0.49434  -0.49344  -0.49037
 Alpha  occ. eigenvalues --   -0.48569  -0.48355  -0.48196  -0.47896  -0.47308
 Alpha  occ. eigenvalues --   -0.47188  -0.47061  -0.46960  -0.46744  -0.46295
 Alpha  occ. eigenvalues --   -0.46290  -0.46142  -0.45771  -0.45526  -0.45374
 Alpha  occ. eigenvalues --   -0.45249  -0.45167  -0.44782  -0.44457  -0.44392
 Alpha  occ. eigenvalues --   -0.44223  -0.43783  -0.43619  -0.42540  -0.42301
 Alpha  occ. eigenvalues --   -0.42164  -0.41657  -0.41174  -0.39036  -0.38761
 Alpha  occ. eigenvalues --   -0.38395  -0.37745  -0.35107  -0.35032  -0.34700
 Alpha  occ. eigenvalues --   -0.32701  -0.32399  -0.32040  -0.31301  -0.26972
 Alpha  occ. eigenvalues --   -0.22067
 Alpha virt. eigenvalues --   -0.09205  -0.02544  -0.00508   0.00173   0.01332
 Alpha virt. eigenvalues --    0.01904   0.02188   0.02539   0.04133   0.04617
 Alpha virt. eigenvalues --    0.05620   0.06487   0.07045   0.07774   0.07793

 Mulliken charges:
               1
     1  Mg   0.431233
     2  C   -0.065332
     3  C   -0.072292
     4  C   -0.080126
     5  C   -0.060309
     6  N   -0.291166
     7  C    0.121382
     8  C    0.011437
     9  C   -0.000006
    10  C    0.138218
    11  C   -0.050558
    12  C   -0.030199
    13  C    0.003091
    14  C    0.472457
    15  O   -0.519308
    16  O   -0.268905
    17  N   -0.331562
    18  C    0.091463
    19  C    0.041923
    20  C   -0.074575
    21  C    0.159682
    22  C   -0.036232
    23  C    0.343755
    24  O   -0.530542
    25  C   -0.019698
    26  N   -0.277059
    27  C    0.137268
    28  C    0.000628
    29  C    0.000181
    30  C    0.135218
    31  C   -0.048359
    32  C   -0.038102
    33  C   -0.061344
    34  N   -0.348215
    35  C    0.069745
    36  C    0.046515
    37  C   -0.059238
    38  C    0.141524
    39  C   -0.037264
    40  C    0.325857
    41  O   -0.522443
    42  C    0.049300
    43  C    0.489310
    44  O   -0.509285
    45  O   -0.283089
    46  C    0.074789
    47  C    0.098710
    48  C   -0.110389
    49  C   -0.010146
    50  C   -0.033874
    51  C   -0.016892
    52  C   -0.050945
    53  C   -0.041254
    54  C   -0.016052
    55  C   -0.060156
    56  C   -0.032642
    57  C   -0.045400
    58  C   -0.035989
    59  C   -0.013366
    60  C   -0.057163
    61  C   -0.035496
    62  C   -0.038450
    63  C   -0.040000
    64  C   -0.016019
    65  C   -0.052012
    66  C   -0.070583
    67  H    0.041791
    68  H    0.006317
    69  H    0.019420
    70  H    0.036233
    71  H    0.029932
    72  H    0.024669
    73  H    0.029679
    74  H    0.027497
    75  H    0.034997
    76  H    0.028193
    77  H    0.035573
    78  H    0.047888
    79  H    0.030164
    80  H    0.028498
    81  H    0.040086
    82  H    0.024765
    83  H    0.048470
    84  H    0.044891
    85  H    0.030492
    86  H    0.032063
    87  H    0.014875
    88  H    0.026248
    89  H    0.032511
    90  H    0.021456
    91  H    0.016840
    92  H    0.020649
    93  H    0.018656
    94  H    0.024573
    95  H    0.041294
    96  H    0.023568
    97  H    0.044587
    98  H    0.056457
    99  H    0.038487
   100  H    0.057925
   101  H    0.040202
   102  H    0.055492
   103  H    0.049787
   104  H    0.038406
   105  H    0.034108
   106  H    0.027156
   107  H    0.025728
   108  H    0.034312
   109  H    0.028898
   110  H    0.019324
   111  H    0.019663
   112  H    0.020567
   113  H    0.025656
   114  H    0.016458
   115  H    0.017403
   116  H    0.019085
   117  H    0.017650
   118  H    0.019622
   119  H    0.008487
   120  H    0.022762
   121  H    0.017110
   122  H    0.017173
   123  H    0.014909
   124  H    0.025293
   125  H    0.026198
   126  H    0.011367
   127  H    0.009727
   128  H    0.021647
   129  H    0.029501
   130  H    0.017117
   131  H    0.016328
   132  H    0.016627
   133  H    0.033654
   134  H    0.023659
   135  H    0.020976
   136  H    0.015857
   137  H    0.018931
   138  H    0.025753
   139  H    0.021899
   140  H    0.004109
 Sum of Mulliken charges =  -0.00000

 Dipole moment (field-independent basis, Debye):
    X=              0.4431    Y=              8.6447    Z=              0.7768  Tot=              8.6909
 N-N= 4.425933889727D+03 E-N= 0.000000000000D+00  KE=-9.525643344901D+03
 Leave Link  601 at Wed May  4 08:57:17 2022, MaxMem=  6710886400 cpu:               0.8 elap:               0.0
 (Enter /sw/apps/gaussian-16.0/g16/l9999.exe)
 1\1\GINC-BP1-COMPUTE050\SP\RZINDO CIS\STO-3G\C55H74Mg1N4O6\OF15641\04-
 May-2022\0\\#p ZINDO=(nstates=5)\\step_1501_chromophore_26 ZINDO\\0,1\
 Mg,0,-8.537,18.271,42.878\C,0,-5.071,17.717,42.747\C,0,-8.077,21.57,41
 .486\C,0,-11.799,18.507,42.238\C,0,-8.965,14.779,43.044\N,0,-6.804,19.
 439,42.208\C,0,-5.428,19.06,42.267\C,0,-4.541,20.196,41.929\C,0,-5.542
 ,21.382,41.577\C,0,-6.918,20.75,41.728\C,0,-5.311,22.711,42.345\C,0,-3
 .399,19.857,40.88\C,0,-3.731,18.902,39.655\C,0,-3.427,19.521,38.311\O,

 Normal termination of Gaussian 16 at Wed May  4 08:57:17 2022.
