 Gaussian 16, Revision A.03,
 Gaussian 16:  ES64L-G16RevA.03 25-Dec-2016

 ------------------------------
 #p blyp/Def2SVP td=(nstates=5)
 ------------------------------

 --------------------------------------------------
 step_1101_chromophore_8 TDDFT with blyp functional
 --------------------------------------------------
 Symbolic Z-matrix:
 Charge =  0 Multiplicity = 1

                         Standard orientation:
 ---------------------------------------------------------------------
 Center     Atomic      Atomic             Coordinates (Angstroms)
 Number     Number       Type             X           Y           Z
 ---------------------------------------------------------------------
      1         12           0       -4.705408   -1.060523    0.181414
      2          6           0       -3.447363    2.110557    1.017894
      3          6           0       -4.752136   -0.088152   -3.178499
      4          6           0       -5.370617   -4.165238   -0.611299
      5          6           0       -4.170055   -1.950535    3.480647
      6          7           0       -4.263128    0.752321   -0.855471
      7          6           0       -3.695718    1.930864   -0.348028
      8          6           0       -3.407895    3.021735   -1.445676
      9          6           0       -4.049032    2.468280   -2.761045
     10          6           0       -4.336883    0.953718   -2.264389
     11          6           0       -5.330710    3.188399   -3.235724
     12          6           0       -1.877488    3.303910   -1.674700
     13          6           0       -1.604582    4.721710   -2.077082
     14          6           0       -0.428422    5.489337   -1.458942
     15          8           0       -0.494074    6.473683   -0.721623
     16          8           0        0.788597    4.930092   -1.774487
     17          7           0       -4.979618   -2.009418   -1.704424
     18          6           0       -5.015243   -1.438822   -2.948496
     19          6           0       -5.350733   -2.442470   -3.966237
     20          6           0       -5.468994   -3.678499   -3.256986
     21          6           0       -5.299985   -3.366402   -1.792522
     22          6           0       -5.463995   -2.031714   -5.402397
     23          6           0       -5.596235   -5.034080   -3.909058
     24          8           0       -5.728898   -5.129989   -5.163156
     25          6           0       -5.538024   -6.341483   -3.112691
     26          7           0       -4.500336   -2.817579    1.210199
     27          6           0       -5.076036   -3.898396    0.712561
     28          6           0       -5.262384   -5.076920    1.737389
     29          6           0       -4.671091   -4.373345    3.031259
     30          6           0       -4.408543   -2.940700    2.604030
     31          6           0       -6.824549   -5.441162    1.928327
     32          6           0       -3.332703   -5.061530    3.581669
     33          6           0       -3.363422   -5.542324    5.058828
     34          7           0       -3.949987   -0.081076    1.977743
     35          6           0       -3.896322   -0.576620    3.220499
     36          6           0       -3.377735    0.451640    4.150290
     37          6           0       -3.191506    1.556512    3.294135
     38          6           0       -3.566468    1.161834    1.974497
     39          6           0       -3.126983    0.337809    5.611632
     40          6           0       -2.762971    2.935611    3.199303
     41          8           0       -2.332954    3.723730    4.020609
     42          6           0       -2.906174    3.279138    1.698028
     43          6           0       -3.780646    4.521064    1.644630
     44          8           0       -5.007883    4.525400    1.837550
     45          8           0       -3.000012    5.664143    1.513381
     46          6           0       -3.675685    6.862248    1.099659
     47          6           0        2.021652    5.422304   -1.235346
     48          6           0        2.663617    4.266171   -0.530020
     49          6           0        3.926221    4.193535   -0.074442
     50          6           0        4.897014    5.386278   -0.137449
     51          6           0        4.406368    2.845785    0.427013
     52          6           0        5.525527    2.156307   -0.425902
     53          6           0        5.292876    0.685071   -0.869734
     54          6           0        6.534050   -0.033721   -1.349717
     55          6           0        6.680545   -0.008249   -2.883362
     56          6           0        6.579490   -1.491279   -0.779491
     57          6           0        7.324217   -1.666210    0.625355
     58          6           0        8.194984   -2.948370    0.654085
     59          6           0        9.508191   -2.698003   -0.033335
     60          6           0        9.905555   -3.869957   -0.991088
     61          6           0       10.654954   -2.472770    1.005420
     62          6           0       11.643871   -1.391130    0.471958
     63          6           0       13.035690   -1.573408    1.052181
     64          6           0       14.106280   -1.982483   -0.005247
     65          6           0       14.623122   -0.796689   -0.820724
     66          6           0       15.332415   -2.628664    0.597859
     67          1           0       -4.895695    0.198971   -4.222386
     68          1           0       -5.746271   -5.162860   -0.844031
     69          1           0       -4.284435   -2.260333    4.520718
     70          1           0       -3.867620    3.955500   -1.122464
     71          1           0       -3.381346    2.651934   -3.601966
     72          1           0       -5.498032    4.014560   -2.544132
     73          1           0       -6.194425    2.544222   -3.071926
     74          1           0       -5.363871    3.503078   -4.278261
     75          1           0       -1.573836    2.657845   -2.498451
     76          1           0       -1.307813    2.964085   -0.810244
     77          1           0       -2.392093    5.470025   -1.986047
     78          1           0       -1.349757    4.721117   -3.136814
     79          1           0       -4.473836   -1.891445   -5.835218
     80          1           0       -6.064409   -1.122847   -5.450280
     81          1           0       -5.949364   -2.849121   -5.937158
     82          1           0       -6.303451   -6.512219   -2.356605
     83          1           0       -4.555635   -6.615692   -2.729671
     84          1           0       -5.599014   -7.188824   -3.795409
     85          1           0       -4.627761   -5.933527    1.509916
     86          1           0       -5.281907   -4.476579    3.928032
     87          1           0       -7.185849   -5.098975    2.898822
     88          1           0       -6.969050   -6.519926    1.873372
     89          1           0       -7.429109   -4.919856    1.186239
     90          1           0       -2.554649   -4.307444    3.466123
     91          1           0       -2.905116   -5.851920    2.965949
     92          1           0       -4.332453   -5.512675    5.555385
     93          1           0       -2.620802   -5.075509    5.706114
     94          1           0       -3.103362   -6.596371    4.962394
     95          1           0       -3.911273    0.633404    6.309120
     96          1           0       -2.214053    0.893566    5.825824
     97          1           0       -2.856070   -0.706096    5.769569
     98          1           0       -1.897245    3.463871    1.327173
     99          1           0       -2.988075    7.429066    0.470428
    100          1           0       -3.871654    7.477055    1.978531
    101          1           0       -4.612329    6.801879    0.545361
    102          1           0        1.944689    6.090964   -0.377292
    103          1           0        2.695623    5.659718   -2.057874
    104          1           0        2.163807    3.300329   -0.597706
    105          1           0        5.154546    5.717385    0.868124
    106          1           0        4.502009    6.225280   -0.710796
    107          1           0        5.798631    5.072888   -0.665553
    108          1           0        3.540709    2.183677    0.424668
    109          1           0        4.726364    2.983870    1.460017
    110          1           0        6.395576    2.111569    0.228713
    111          1           0        5.870629    2.634903   -1.342255
    112          1           0        4.459254    0.579176   -1.563971
    113          1           0        4.957814    0.256310    0.074985
    114          1           0        7.433740    0.479168   -1.012659
    115          1           0        6.308356   -0.949310   -3.288041
    116          1           0        7.715622   -0.236322   -3.135886
    117          1           0        6.304027    0.858076   -3.429256
    118          1           0        7.191833   -2.023436   -1.507634
    119          1           0        5.602065   -1.973340   -0.757105
    120          1           0        6.602984   -1.744489    1.439387
    121          1           0        7.872428   -0.747160    0.836765
    122          1           0        7.541094   -3.668833    0.163101
    123          1           0        8.484205   -3.195581    1.676065
    124          1           0        9.393035   -1.830016   -0.682729
    125          1           0       10.209797   -3.439395   -1.945548
    126          1           0        9.062630   -4.544178   -1.141516
    127          1           0       10.717911   -4.484802   -0.605713
    128          1           0       11.164195   -3.404106    1.249947
    129          1           0       10.235094   -2.040470    1.914228
    130          1           0       11.319779   -0.403224    0.798382
    131          1           0       11.688569   -1.328958   -0.615171
    132          1           0       12.985989   -2.450371    1.698771
    133          1           0       13.292320   -0.639949    1.553138
    134          1           0       13.591193   -2.711778   -0.630490
    135          1           0       13.916984   -0.437516   -1.569520
    136          1           0       15.511482   -1.269499   -1.239445
    137          1           0       14.795862    0.108595   -0.239202
    138          1           0       15.139797   -3.192777    1.510149
    139          1           0       16.247064   -2.044774    0.706072
    140          1           0       15.566264   -3.402474   -0.133777
 ---------------------------------------------------------------------

 SCF Done:  E(RB-LYP) =  -3007.38049652     A.U. after   21 cycles

 Excitation energies and oscillator strengths:

 Excited State   1:      Singlet-A      1.7834 eV  695.22 nm  f=0.3094  <S**2>=0.000
     244 -> 247       -0.22422
     245 -> 248        0.13755
     246 -> 247        0.66308
     246 <- 247       -0.15339
 This state for optimization and/or second-order correction.
 Total Energy, E(TD-HF/TD-DFT) =  -3007.31495831
 Copying the excited state density for this state as the 1-particle RhoCI density.

 Excited State   2:      Singlet-A      1.8109 eV  684.65 nm  f=0.0434  <S**2>=0.000
     244 -> 247        0.66978
     246 -> 247        0.22194

 Excited State   3:      Singlet-A      1.8448 eV  672.09 nm  f=0.0003  <S**2>=0.000
     243 -> 247        0.70536

 Excited State   4:      Singlet-A      2.0211 eV  613.45 nm  f=0.0653  <S**2>=0.000
     245 -> 247        0.64827
     246 -> 248       -0.21393
     246 -> 249       -0.13928

 Excited State   5:      Singlet-A      2.1037 eV  589.37 nm  f=0.0000  <S**2>=0.000
     242 -> 247        0.70707

 The electronic state is 1-A.
 Alpha  occ. eigenvalues --  -46.27722 -18.82008 -18.81344 -18.76822 -18.76429
 Alpha  occ. eigenvalues --  -18.75584 -18.75408 -14.04843 -14.03599 -14.01359
 Alpha  occ. eigenvalues --  -14.00698 -10.04517 -10.03769 -10.00470  -9.99153
 Alpha  occ. eigenvalues --   -9.98266  -9.97797  -9.97234  -9.97102  -9.96939
 Alpha  occ. eigenvalues --   -9.96419  -9.96318  -9.95681  -9.95515  -9.95446
 Alpha  occ. eigenvalues --   -9.94983  -9.94977  -9.94307  -9.94305  -9.94147
 Alpha  occ. eigenvalues --   -9.94135  -9.93772  -9.93742  -9.93615  -9.93481
 Alpha  occ. eigenvalues --   -9.93244  -9.93224  -9.92961  -9.92933  -9.92877
 Alpha  occ. eigenvalues --   -9.92676  -9.92637  -9.92366  -9.92357  -9.92300
 Alpha  occ. eigenvalues --   -9.92255  -9.92241  -9.92145  -9.92053  -9.92014
 Alpha  occ. eigenvalues --   -9.91675  -9.91648  -9.91581  -9.91434  -9.91415
 Alpha  occ. eigenvalues --   -9.91329  -9.90998  -9.90991  -9.90796  -9.90781
 Alpha  occ. eigenvalues --   -9.90739  -9.90730  -9.90698  -9.90642  -9.90472
 Alpha  occ. eigenvalues --   -9.90289  -2.92368  -1.72783  -1.72240  -1.72094
 Alpha  occ. eigenvalues --   -0.97903  -0.96366  -0.91341  -0.89584  -0.89482
 Alpha  occ. eigenvalues --   -0.88710  -0.87813  -0.86642  -0.84845  -0.83974
 Alpha  occ. eigenvalues --   -0.76806  -0.73951  -0.73501  -0.73045  -0.72749
 Alpha  occ. eigenvalues --   -0.72261  -0.71517  -0.71376  -0.70726  -0.70332
 Alpha  occ. eigenvalues --   -0.69817  -0.69415  -0.68047  -0.67543  -0.67222
 Alpha  occ. eigenvalues --   -0.66706  -0.65933  -0.65235  -0.65009  -0.64710
 Alpha  occ. eigenvalues --   -0.64107  -0.62896  -0.62235  -0.61899  -0.60941
 Alpha  occ. eigenvalues --   -0.60479  -0.60083  -0.59803  -0.59571  -0.58882
 Alpha  occ. eigenvalues --   -0.58276  -0.57673  -0.56845  -0.56225  -0.54854
 Alpha  occ. eigenvalues --   -0.54159  -0.53729  -0.53223  -0.52302  -0.52041
 Alpha  occ. eigenvalues --   -0.51574  -0.51553  -0.51045  -0.50858  -0.49734
 Alpha  occ. eigenvalues --   -0.49570  -0.49301  -0.48441  -0.48190  -0.46730
 Alpha  occ. eigenvalues --   -0.46442  -0.46231  -0.45720  -0.45598  -0.44745
 Alpha  occ. eigenvalues --   -0.44348  -0.43807  -0.43565  -0.43222  -0.42550
 Alpha  occ. eigenvalues --   -0.42046  -0.41755  -0.41691  -0.41249  -0.41182
 Alpha  occ. eigenvalues --   -0.41011  -0.40793  -0.40348  -0.40074  -0.39777
 Alpha  occ. eigenvalues --   -0.39616  -0.39370  -0.39232  -0.39160  -0.38984
 Alpha  occ. eigenvalues --   -0.38961  -0.38740  -0.38415  -0.38230  -0.38185
 Alpha  occ. eigenvalues --   -0.37936  -0.37890  -0.37868  -0.37758  -0.37398
 Alpha  occ. eigenvalues --   -0.37272  -0.36884  -0.36627  -0.36426  -0.36305
 Alpha  occ. eigenvalues --   -0.36231  -0.36128  -0.36031  -0.35815  -0.35639
 Alpha  occ. eigenvalues --   -0.35595  -0.35329  -0.35128  -0.35056  -0.34889
 Alpha  occ. eigenvalues --   -0.34552  -0.34239  -0.34145  -0.33964  -0.33735
 Alpha  occ. eigenvalues --   -0.33676  -0.33527  -0.33291  -0.33223  -0.33142
 Alpha  occ. eigenvalues --   -0.32952  -0.32921  -0.32693  -0.32634  -0.32622
 Alpha  occ. eigenvalues --   -0.32345  -0.32075  -0.31713  -0.31682  -0.31286
 Alpha  occ. eigenvalues --   -0.31228  -0.31055  -0.30998  -0.30776  -0.30688
 Alpha  occ. eigenvalues --   -0.30579  -0.30407  -0.30344  -0.30092  -0.29816
 Alpha  occ. eigenvalues --   -0.29789  -0.29518  -0.29293  -0.29088  -0.28982
 Alpha  occ. eigenvalues --   -0.28899  -0.28805  -0.28498  -0.28040  -0.27904
 Alpha  occ. eigenvalues --   -0.27818  -0.27585  -0.27222  -0.26716  -0.26594
 Alpha  occ. eigenvalues --   -0.26494  -0.26211  -0.25938  -0.25584  -0.25291
 Alpha  occ. eigenvalues --   -0.25196  -0.24422  -0.24283  -0.24243  -0.23843
 Alpha  occ. eigenvalues --   -0.23688  -0.22545  -0.21776  -0.21330  -0.20942
 Alpha  occ. eigenvalues --   -0.20645  -0.19755  -0.18720  -0.18573  -0.17870
 Alpha  occ. eigenvalues --   -0.16116
 Alpha virt. eigenvalues --   -0.12024  -0.07115  -0.06677  -0.05262  -0.03594
 Alpha virt. eigenvalues --   -0.02996  -0.02792  -0.02373  -0.00775  -0.00067
 Alpha virt. eigenvalues --    0.00980   0.01451   0.02362   0.02491   0.02814

 Mulliken charges:
               1
     1  Mg   0.693089
     2  C    0.062086
     3  C   -0.052960
     4  C   -0.025897
     5  C   -0.091722
     6  N   -0.259109
     7  C   -0.065229
     8  C   -0.015561
     9  C   -0.014448
    10  C    0.071568
    11  C    0.123449
    12  C    0.150296
    13  C    0.148019
    14  C    0.047543
    15  O   -0.185205
    16  O   -0.275449
    17  N   -0.289317
    18  C    0.101781
    19  C   -0.135912
    20  C    0.050696
    21  C    0.104595
    22  C    0.185686
    23  C   -0.056091
    24  O   -0.196207
    25  C    0.106851
    26  N   -0.257298
    27  C    0.051056
    28  C    0.022200
    29  C    0.011560
    30  C    0.080804
    31  C    0.108663
    32  C    0.061696
    33  C    0.051516
    34  N   -0.153563
    35  C    0.087140
    36  C   -0.188905
    37  C    0.112880
    38  C    0.011813
    39  C    0.168020
    40  C   -0.078079
    41  O   -0.113889
    42  C    0.065872
    43  C    0.117219
    44  O   -0.199319
    45  O   -0.254369
    46  C    0.214298
    47  C    0.353566
    48  C   -0.160843
    49  C   -0.165757
    50  C    0.134502
    51  C    0.179074
    52  C    0.038765
    53  C    0.099765
    54  C   -0.056102
    55  C    0.115316
    56  C    0.081656
    57  C    0.051350
    58  C    0.140966
    59  C   -0.111132
    60  C    0.109045
    61  C    0.111056
    62  C    0.052586
    63  C    0.112000
    64  C   -0.098096
    65  C    0.110511
    66  C    0.106476
    67  H   -0.068593
    68  H   -0.085991
    69  H   -0.058440
    70  H   -0.003123
    71  H   -0.021440
    72  H   -0.011863
    73  H   -0.011151
    74  H    0.001368
    75  H   -0.020464
    76  H   -0.005229
    77  H   -0.002102
    78  H   -0.010055
    79  H    0.007035
    80  H    0.005136
    81  H    0.005818
    82  H    0.030232
    83  H    0.004458
    84  H   -0.025067
    85  H   -0.010779
    86  H   -0.030678
    87  H   -0.007782
    88  H    0.000955
    89  H   -0.000135
    90  H   -0.023573
    91  H   -0.026051
    92  H   -0.005274
    93  H    0.003283
    94  H   -0.009369
    95  H    0.021346
    96  H    0.003911
    97  H   -0.021126
    98  H   -0.000140
    99  H    0.015062
   100  H    0.005365
   101  H    0.003345
   102  H    0.024148
   103  H    0.012627
   104  H   -0.036793
   105  H    0.003790
   106  H   -0.017423
   107  H   -0.004736
   108  H   -0.034676
   109  H   -0.022994
   110  H   -0.034472
   111  H   -0.025632
   112  H   -0.030008
   113  H   -0.040566
   114  H   -0.040146
   115  H   -0.033577
   116  H   -0.032710
   117  H   -0.001935
   118  H   -0.045503
   119  H   -0.021216
   120  H   -0.035038
   121  H   -0.035970
   122  H   -0.031630
   123  H   -0.036837
   124  H   -0.026419
   125  H   -0.014857
   126  H   -0.024234
   127  H   -0.019716
   128  H   -0.020304
   129  H   -0.032918
   130  H   -0.039498
   131  H   -0.028560
   132  H   -0.038931
   133  H   -0.037999
   134  H   -0.036254
   135  H   -0.025709
   136  H   -0.012293
   137  H   -0.014399
   138  H   -0.029011
   139  H   -0.007930
   140  H   -0.025131
 Sum of Mulliken charges =  -0.00000

 Dipole moment (field-independent basis, Debye):
    X=              1.3952    Y=             -3.3732    Z=             -0.6952  Tot=              3.7159
 Quadrupole moment (field-independent basis, Debye-Ang):
   XX=           -397.4383   YY=           -410.1014   ZZ=           -420.6280
   XY=             13.1991   XZ=            -10.3386   YZ=            -54.9618

 Normal termination of Gaussian 16 at Wed May  4 00:22:56 2022.
