 Gaussian 16, Revision A.03,
 Gaussian 16:  ES64L-G16RevA.03 25-Dec-2016

 -----------------------------------
 #p cam-b3lyp/Def2SVP td=(nstates=5)
 -----------------------------------

 -------------------------------------------------------
 step_1101_chromophore_8 TDDFT with cam-b3lyp functional
 -------------------------------------------------------
 Symbolic Z-matrix:
 Charge =  0 Multiplicity = 1

                         Standard orientation:
 ---------------------------------------------------------------------
 Center     Atomic      Atomic             Coordinates (Angstroms)
 Number     Number       Type             X           Y           Z
 ---------------------------------------------------------------------
      1         12           0       -4.705408   -1.060523    0.181414
      2          6           0       -3.447363    2.110557    1.017894
      3          6           0       -4.752136   -0.088152   -3.178499
      4          6           0       -5.370617   -4.165238   -0.611299
      5          6           0       -4.170055   -1.950535    3.480647
      6          7           0       -4.263128    0.752321   -0.855471
      7          6           0       -3.695718    1.930864   -0.348028
      8          6           0       -3.407895    3.021735   -1.445676
      9          6           0       -4.049032    2.468280   -2.761045
     10          6           0       -4.336883    0.953718   -2.264389
     11          6           0       -5.330710    3.188399   -3.235724
     12          6           0       -1.877488    3.303910   -1.674700
     13          6           0       -1.604582    4.721710   -2.077082
     14          6           0       -0.428422    5.489337   -1.458942
     15          8           0       -0.494074    6.473683   -0.721623
     16          8           0        0.788597    4.930092   -1.774487
     17          7           0       -4.979618   -2.009418   -1.704424
     18          6           0       -5.015243   -1.438822   -2.948496
     19          6           0       -5.350733   -2.442470   -3.966237
     20          6           0       -5.468994   -3.678499   -3.256986
     21          6           0       -5.299985   -3.366402   -1.792522
     22          6           0       -5.463995   -2.031714   -5.402397
     23          6           0       -5.596235   -5.034080   -3.909058
     24          8           0       -5.728898   -5.129989   -5.163156
     25          6           0       -5.538024   -6.341483   -3.112691
     26          7           0       -4.500336   -2.817579    1.210199
     27          6           0       -5.076036   -3.898396    0.712561
     28          6           0       -5.262384   -5.076920    1.737389
     29          6           0       -4.671091   -4.373345    3.031259
     30          6           0       -4.408543   -2.940700    2.604030
     31          6           0       -6.824549   -5.441162    1.928327
     32          6           0       -3.332703   -5.061530    3.581669
     33          6           0       -3.363422   -5.542324    5.058828
     34          7           0       -3.949987   -0.081076    1.977743
     35          6           0       -3.896322   -0.576620    3.220499
     36          6           0       -3.377735    0.451640    4.150290
     37          6           0       -3.191506    1.556512    3.294135
     38          6           0       -3.566468    1.161834    1.974497
     39          6           0       -3.126983    0.337809    5.611632
     40          6           0       -2.762971    2.935611    3.199303
     41          8           0       -2.332954    3.723730    4.020609
     42          6           0       -2.906174    3.279138    1.698028
     43          6           0       -3.780646    4.521064    1.644630
     44          8           0       -5.007883    4.525400    1.837550
     45          8           0       -3.000012    5.664143    1.513381
     46          6           0       -3.675685    6.862248    1.099659
     47          6           0        2.021652    5.422304   -1.235346
     48          6           0        2.663617    4.266171   -0.530020
     49          6           0        3.926221    4.193535   -0.074442
     50          6           0        4.897014    5.386278   -0.137449
     51          6           0        4.406368    2.845785    0.427013
     52          6           0        5.525527    2.156307   -0.425902
     53          6           0        5.292876    0.685071   -0.869734
     54          6           0        6.534050   -0.033721   -1.349717
     55          6           0        6.680545   -0.008249   -2.883362
     56          6           0        6.579490   -1.491279   -0.779491
     57          6           0        7.324217   -1.666210    0.625355
     58          6           0        8.194984   -2.948370    0.654085
     59          6           0        9.508191   -2.698003   -0.033335
     60          6           0        9.905555   -3.869957   -0.991088
     61          6           0       10.654954   -2.472770    1.005420
     62          6           0       11.643871   -1.391130    0.471958
     63          6           0       13.035690   -1.573408    1.052181
     64          6           0       14.106280   -1.982483   -0.005247
     65          6           0       14.623122   -0.796689   -0.820724
     66          6           0       15.332415   -2.628664    0.597859
     67          1           0       -4.895695    0.198971   -4.222386
     68          1           0       -5.746271   -5.162860   -0.844031
     69          1           0       -4.284435   -2.260333    4.520718
     70          1           0       -3.867620    3.955500   -1.122464
     71          1           0       -3.381346    2.651934   -3.601966
     72          1           0       -5.498032    4.014560   -2.544132
     73          1           0       -6.194425    2.544222   -3.071926
     74          1           0       -5.363871    3.503078   -4.278261
     75          1           0       -1.573836    2.657845   -2.498451
     76          1           0       -1.307813    2.964085   -0.810244
     77          1           0       -2.392093    5.470025   -1.986047
     78          1           0       -1.349757    4.721117   -3.136814
     79          1           0       -4.473836   -1.891445   -5.835218
     80          1           0       -6.064409   -1.122847   -5.450280
     81          1           0       -5.949364   -2.849121   -5.937158
     82          1           0       -6.303451   -6.512219   -2.356605
     83          1           0       -4.555635   -6.615692   -2.729671
     84          1           0       -5.599014   -7.188824   -3.795409
     85          1           0       -4.627761   -5.933527    1.509916
     86          1           0       -5.281907   -4.476579    3.928032
     87          1           0       -7.185849   -5.098975    2.898822
     88          1           0       -6.969050   -6.519926    1.873372
     89          1           0       -7.429109   -4.919856    1.186239
     90          1           0       -2.554649   -4.307444    3.466123
     91          1           0       -2.905116   -5.851920    2.965949
     92          1           0       -4.332453   -5.512675    5.555385
     93          1           0       -2.620802   -5.075509    5.706114
     94          1           0       -3.103362   -6.596371    4.962394
     95          1           0       -3.911273    0.633404    6.309120
     96          1           0       -2.214053    0.893566    5.825824
     97          1           0       -2.856070   -0.706096    5.769569
     98          1           0       -1.897245    3.463871    1.327173
     99          1           0       -2.988075    7.429066    0.470428
    100          1           0       -3.871654    7.477055    1.978531
    101          1           0       -4.612329    6.801879    0.545361
    102          1           0        1.944689    6.090964   -0.377292
    103          1           0        2.695623    5.659718   -2.057874
    104          1           0        2.163807    3.300329   -0.597706
    105          1           0        5.154546    5.717385    0.868124
    106          1           0        4.502009    6.225280   -0.710796
    107          1           0        5.798631    5.072888   -0.665553
    108          1           0        3.540709    2.183677    0.424668
    109          1           0        4.726364    2.983870    1.460017
    110          1           0        6.395576    2.111569    0.228713
    111          1           0        5.870629    2.634903   -1.342255
    112          1           0        4.459254    0.579176   -1.563971
    113          1           0        4.957814    0.256310    0.074985
    114          1           0        7.433740    0.479168   -1.012659
    115          1           0        6.308356   -0.949310   -3.288041
    116          1           0        7.715622   -0.236322   -3.135886
    117          1           0        6.304027    0.858076   -3.429256
    118          1           0        7.191833   -2.023436   -1.507634
    119          1           0        5.602065   -1.973340   -0.757105
    120          1           0        6.602984   -1.744489    1.439387
    121          1           0        7.872428   -0.747160    0.836765
    122          1           0        7.541094   -3.668833    0.163101
    123          1           0        8.484205   -3.195581    1.676065
    124          1           0        9.393035   -1.830016   -0.682729
    125          1           0       10.209797   -3.439395   -1.945548
    126          1           0        9.062630   -4.544178   -1.141516
    127          1           0       10.717911   -4.484802   -0.605713
    128          1           0       11.164195   -3.404106    1.249947
    129          1           0       10.235094   -2.040470    1.914228
    130          1           0       11.319779   -0.403224    0.798382
    131          1           0       11.688569   -1.328958   -0.615171
    132          1           0       12.985989   -2.450371    1.698771
    133          1           0       13.292320   -0.639949    1.553138
    134          1           0       13.591193   -2.711778   -0.630490
    135          1           0       13.916984   -0.437516   -1.569520
    136          1           0       15.511482   -1.269499   -1.239445
    137          1           0       14.795862    0.108595   -0.239202
    138          1           0       15.139797   -3.192777    1.510149
    139          1           0       16.247064   -2.044774    0.706072
    140          1           0       15.566264   -3.402474   -0.133777
 ---------------------------------------------------------------------

 SCF Done:  E(RCAM-B3LYP) =  -3007.16980060     A.U. after   18 cycles

 Excitation energies and oscillator strengths:

 Excited State   1:      Singlet-A      1.6883 eV  734.38 nm  f=0.4084  <S**2>=0.000
     245 -> 248        0.16102
     246 -> 247        0.69074
     245 <- 248        0.10255
 This state for optimization and/or second-order correction.
 Total Energy, E(TD-HF/TD-DFT) =  -3007.10775742
 Copying the excited state density for this state as the 1-particle RhoCI density.

 Excited State   2:      Singlet-A      2.2635 eV  547.76 nm  f=0.0912  <S**2>=0.000
     245 -> 247        0.63498
     246 -> 248       -0.29484

 Excited State   3:      Singlet-A      3.3624 eV  368.73 nm  f=0.0204  <S**2>=0.000
     241 -> 247        0.13374
     242 -> 247        0.54612
     243 -> 247       -0.35590
     246 -> 248        0.20147

 Excited State   4:      Singlet-A      3.4480 eV  359.58 nm  f=0.0006  <S**2>=0.000
     240 -> 247        0.50737
     240 -> 248       -0.11996
     240 -> 249       -0.40922
     240 -> 250        0.10783
     240 -> 251       -0.13283

 Excited State   5:      Singlet-A      3.4656 eV  357.76 nm  f=0.0020  <S**2>=0.000
     241 -> 247        0.57392
     241 -> 249        0.21734
     241 -> 250        0.24082
     241 -> 251       -0.11936
     242 -> 247       -0.11807

 The electronic state is 1-A.
 Alpha  occ. eigenvalues --  -46.89288 -19.24777 -19.24186 -19.19777 -19.19509
 Alpha  occ. eigenvalues --  -19.19104 -19.18368 -14.44060 -14.42303 -14.40011
 Alpha  occ. eigenvalues --  -14.38944 -10.39820 -10.39275 -10.36052 -10.34230
 Alpha  occ. eigenvalues --  -10.33200 -10.31954 -10.31831 -10.31663 -10.31528
 Alpha  occ. eigenvalues --  -10.30503 -10.30193 -10.30170 -10.29668 -10.29510
 Alpha  occ. eigenvalues --  -10.29498 -10.29107 -10.29068 -10.28481 -10.28306
 Alpha  occ. eigenvalues --  -10.28038 -10.28010 -10.27919 -10.27777 -10.27489
 Alpha  occ. eigenvalues --  -10.27399 -10.27163 -10.27021 -10.26903 -10.26594
 Alpha  occ. eigenvalues --  -10.26555 -10.26492 -10.26407 -10.26278 -10.26275
 Alpha  occ. eigenvalues --  -10.25914 -10.25899 -10.25781 -10.25723 -10.25691
 Alpha  occ. eigenvalues --  -10.25340 -10.25334 -10.25224 -10.25105 -10.25097
 Alpha  occ. eigenvalues --  -10.24992 -10.24611 -10.24585 -10.24582 -10.24568
 Alpha  occ. eigenvalues --  -10.24383 -10.24354 -10.24262 -10.24225 -10.24022
 Alpha  occ. eigenvalues --  -10.23917  -3.17837  -1.92729  -1.92296  -1.92140
 Alpha  occ. eigenvalues --   -1.16274  -1.14788  -1.09537  -1.08079  -1.07399
 Alpha  occ. eigenvalues --   -1.06595  -1.05287  -1.04222  -1.02668  -1.01600
 Alpha  occ. eigenvalues --   -0.93890  -0.90795  -0.90329  -0.89831  -0.89443
 Alpha  occ. eigenvalues --   -0.88953  -0.88143  -0.87962  -0.87319  -0.86868
 Alpha  occ. eigenvalues --   -0.86223  -0.86151  -0.84238  -0.83634  -0.83373
 Alpha  occ. eigenvalues --   -0.82815  -0.82078  -0.81297  -0.80789  -0.80586
 Alpha  occ. eigenvalues --   -0.79859  -0.78475  -0.77953  -0.77526  -0.76294
 Alpha  occ. eigenvalues --   -0.75795  -0.75363  -0.75105  -0.74843  -0.74075
 Alpha  occ. eigenvalues --   -0.73299  -0.72613  -0.71773  -0.71075  -0.69366
 Alpha  occ. eigenvalues --   -0.68715  -0.68243  -0.67923  -0.66562  -0.66050
 Alpha  occ. eigenvalues --   -0.65856  -0.65791  -0.65121  -0.64832  -0.63557
 Alpha  occ. eigenvalues --   -0.63460  -0.63246  -0.62076  -0.62029  -0.60351
 Alpha  occ. eigenvalues --   -0.60109  -0.59625  -0.59148  -0.59133  -0.58294
 Alpha  occ. eigenvalues --   -0.57878  -0.57114  -0.56832  -0.56327  -0.55685
 Alpha  occ. eigenvalues --   -0.55141  -0.54551  -0.54414  -0.54032  -0.53985
 Alpha  occ. eigenvalues --   -0.53675  -0.53564  -0.53338  -0.52702  -0.52511
 Alpha  occ. eigenvalues --   -0.52408  -0.52224  -0.52182  -0.51642  -0.51458
 Alpha  occ. eigenvalues --   -0.51387  -0.51332  -0.51033  -0.50715  -0.50554
 Alpha  occ. eigenvalues --   -0.50472  -0.50344  -0.50151  -0.50028  -0.49666
 Alpha  occ. eigenvalues --   -0.49544  -0.49360  -0.48971  -0.48728  -0.48661
 Alpha  occ. eigenvalues --   -0.48489  -0.48224  -0.48190  -0.48126  -0.48005
 Alpha  occ. eigenvalues --   -0.47652  -0.47371  -0.47092  -0.46996  -0.46911
 Alpha  occ. eigenvalues --   -0.46576  -0.46218  -0.46119  -0.45833  -0.45569
 Alpha  occ. eigenvalues --   -0.45452  -0.45223  -0.45073  -0.44934  -0.44835
 Alpha  occ. eigenvalues --   -0.44625  -0.44565  -0.44408  -0.44264  -0.44118
 Alpha  occ. eigenvalues --   -0.44104  -0.43462  -0.43439  -0.43122  -0.42912
 Alpha  occ. eigenvalues --   -0.42730  -0.42636  -0.42464  -0.42238  -0.42032
 Alpha  occ. eigenvalues --   -0.41966  -0.41867  -0.41695  -0.41502  -0.41250
 Alpha  occ. eigenvalues --   -0.41096  -0.40990  -0.40791  -0.40411  -0.40074
 Alpha  occ. eigenvalues --   -0.40029  -0.39853  -0.39575  -0.38940  -0.38920
 Alpha  occ. eigenvalues --   -0.38724  -0.38402  -0.38107  -0.37400  -0.37352
 Alpha  occ. eigenvalues --   -0.37272  -0.37134  -0.36840  -0.36191  -0.35990
 Alpha  occ. eigenvalues --   -0.35837  -0.35293  -0.35202  -0.34752  -0.34681
 Alpha  occ. eigenvalues --   -0.33964  -0.33933  -0.33408  -0.31675  -0.31433
 Alpha  occ. eigenvalues --   -0.30405  -0.30354  -0.29846  -0.29302  -0.24812
 Alpha  occ. eigenvalues --   -0.21375
 Alpha virt. eigenvalues --   -0.09088  -0.01843  -0.00368   0.01691   0.01834
 Alpha virt. eigenvalues --    0.04106   0.04917   0.05058   0.06378   0.06816
 Alpha virt. eigenvalues --    0.07731   0.08462   0.08560   0.08746   0.08992

 Mulliken charges:
               1
     1  Mg   0.824543
     2  C    0.035773
     3  C   -0.066304
     4  C   -0.052642
     5  C   -0.094779
     6  N   -0.323989
     7  C   -0.022790
     8  C   -0.058424
     9  C   -0.058679
    10  C    0.081128
    11  C    0.063747
    12  C    0.093888
    13  C    0.078264
    14  C    0.133141
    15  O   -0.226788
    16  O   -0.341176
    17  N   -0.375988
    18  C    0.110101
    19  C   -0.129839
    20  C   -0.022891
    21  C    0.138925
    22  C    0.124203
    23  C    0.020609
    24  O   -0.236425
    25  C    0.024270
    26  N   -0.333412
    27  C    0.073547
    28  C   -0.032088
    29  C   -0.038414
    30  C    0.087888
    31  C    0.053017
    32  C    0.010197
    33  C   -0.011685
    34  N   -0.242461
    35  C    0.088135
    36  C   -0.186007
    37  C    0.035760
    38  C    0.040565
    39  C    0.119941
    40  C    0.024209
    41  O   -0.153877
    42  C   -0.012192
    43  C    0.202529
    44  O   -0.235239
    45  O   -0.316210
    46  C    0.173871
    47  C    0.313035
    48  C   -0.174662
    49  C   -0.189378
    50  C    0.078186
    51  C    0.120026
    52  C   -0.013287
    53  C    0.047652
    54  C   -0.114327
    55  C    0.055856
    56  C    0.026953
    57  C    0.003612
    58  C    0.081984
    59  C   -0.165537
    60  C    0.054696
    61  C    0.056752
    62  C    0.003122
    63  C    0.057513
    64  C   -0.154313
    65  C    0.051282
    66  C    0.038894
    67  H   -0.030673
    68  H   -0.052944
    69  H   -0.024045
    70  H    0.025366
    71  H    0.012645
    72  H    0.014080
    73  H    0.015790
    74  H    0.025902
    75  H    0.011877
    76  H    0.024091
    77  H    0.028073
    78  H    0.022834
    79  H    0.036910
    80  H    0.030834
    81  H    0.040312
    82  H    0.056579
    83  H    0.036235
    84  H    0.013267
    85  H    0.023343
    86  H    0.002671
    87  H    0.017681
    88  H    0.024493
    89  H    0.024179
    90  H    0.008261
    91  H    0.001164
    92  H    0.016611
    93  H    0.026588
    94  H    0.013312
    95  H    0.045372
    96  H    0.029507
    97  H    0.001732
    98  H    0.042066
    99  H    0.038088
   100  H    0.029027
   101  H    0.025941
   102  H    0.056977
   103  H    0.038177
   104  H   -0.004560
   105  H    0.028061
   106  H    0.006845
   107  H    0.018662
   108  H   -0.003647
   109  H    0.006713
   110  H   -0.006467
   111  H   -0.001029
   112  H   -0.001948
   113  H   -0.012306
   114  H   -0.008440
   115  H   -0.007919
   116  H   -0.007781
   117  H    0.022340
   118  H   -0.018644
   119  H    0.007653
   120  H   -0.005488
   121  H   -0.010318
   122  H   -0.002571
   123  H   -0.006126
   124  H    0.001502
   125  H    0.007993
   126  H    0.000274
   127  H    0.003156
   128  H    0.006058
   129  H   -0.003541
   130  H   -0.009986
   131  H   -0.003249
   132  H   -0.011380
   133  H   -0.008944
   134  H   -0.005833
   135  H   -0.001228
   136  H    0.011286
   137  H    0.009238
   138  H   -0.002482
   139  H    0.017537
   140  H    0.000237
 Sum of Mulliken charges =  -0.00000

 Dipole moment (field-independent basis, Debye):
    X=              1.0103    Y=             -4.0341    Z=             -1.6922  Tot=              4.4898
 Quadrupole moment (field-independent basis, Debye-Ang):
   XX=           -394.7491   YY=           -405.9710   ZZ=           -419.1818
   XY=             16.3364   XZ=             -5.8539   YZ=            -55.7091

 Normal termination of Gaussian 16 at Tue May  3 23:20:57 2022.
