 Gaussian 16, Revision A.03,
 Gaussian 16:  ES64L-G16RevA.03 25-Dec-2016

 ---------------------------------
 #p PBE1PBE/Def2SVP td=(nstates=5)
 ---------------------------------

 -----------------------------------------------------
 step_1101_chromophore_8 TDDFT with PBE1PBE functional
 -----------------------------------------------------
 Symbolic Z-matrix:
 Charge =  0 Multiplicity = 1

                         Standard orientation:
 ---------------------------------------------------------------------
 Center     Atomic      Atomic             Coordinates (Angstroms)
 Number     Number       Type             X           Y           Z
 ---------------------------------------------------------------------
      1         12           0       -4.705408   -1.060523    0.181414
      2          6           0       -3.447363    2.110557    1.017894
      3          6           0       -4.752136   -0.088152   -3.178499
      4          6           0       -5.370617   -4.165238   -0.611299
      5          6           0       -4.170055   -1.950535    3.480647
      6          7           0       -4.263128    0.752321   -0.855471
      7          6           0       -3.695718    1.930864   -0.348028
      8          6           0       -3.407895    3.021735   -1.445676
      9          6           0       -4.049032    2.468280   -2.761045
     10          6           0       -4.336883    0.953718   -2.264389
     11          6           0       -5.330710    3.188399   -3.235724
     12          6           0       -1.877488    3.303910   -1.674700
     13          6           0       -1.604582    4.721710   -2.077082
     14          6           0       -0.428422    5.489337   -1.458942
     15          8           0       -0.494074    6.473683   -0.721623
     16          8           0        0.788597    4.930092   -1.774487
     17          7           0       -4.979618   -2.009418   -1.704424
     18          6           0       -5.015243   -1.438822   -2.948496
     19          6           0       -5.350733   -2.442470   -3.966237
     20          6           0       -5.468994   -3.678499   -3.256986
     21          6           0       -5.299985   -3.366402   -1.792522
     22          6           0       -5.463995   -2.031714   -5.402397
     23          6           0       -5.596235   -5.034080   -3.909058
     24          8           0       -5.728898   -5.129989   -5.163156
     25          6           0       -5.538024   -6.341483   -3.112691
     26          7           0       -4.500336   -2.817579    1.210199
     27          6           0       -5.076036   -3.898396    0.712561
     28          6           0       -5.262384   -5.076920    1.737389
     29          6           0       -4.671091   -4.373345    3.031259
     30          6           0       -4.408543   -2.940700    2.604030
     31          6           0       -6.824549   -5.441162    1.928327
     32          6           0       -3.332703   -5.061530    3.581669
     33          6           0       -3.363422   -5.542324    5.058828
     34          7           0       -3.949987   -0.081076    1.977743
     35          6           0       -3.896322   -0.576620    3.220499
     36          6           0       -3.377735    0.451640    4.150290
     37          6           0       -3.191506    1.556512    3.294135
     38          6           0       -3.566468    1.161834    1.974497
     39          6           0       -3.126983    0.337809    5.611632
     40          6           0       -2.762971    2.935611    3.199303
     41          8           0       -2.332954    3.723730    4.020609
     42          6           0       -2.906174    3.279138    1.698028
     43          6           0       -3.780646    4.521064    1.644630
     44          8           0       -5.007883    4.525400    1.837550
     45          8           0       -3.000012    5.664143    1.513381
     46          6           0       -3.675685    6.862248    1.099659
     47          6           0        2.021652    5.422304   -1.235346
     48          6           0        2.663617    4.266171   -0.530020
     49          6           0        3.926221    4.193535   -0.074442
     50          6           0        4.897014    5.386278   -0.137449
     51          6           0        4.406368    2.845785    0.427013
     52          6           0        5.525527    2.156307   -0.425902
     53          6           0        5.292876    0.685071   -0.869734
     54          6           0        6.534050   -0.033721   -1.349717
     55          6           0        6.680545   -0.008249   -2.883362
     56          6           0        6.579490   -1.491279   -0.779491
     57          6           0        7.324217   -1.666210    0.625355
     58          6           0        8.194984   -2.948370    0.654085
     59          6           0        9.508191   -2.698003   -0.033335
     60          6           0        9.905555   -3.869957   -0.991088
     61          6           0       10.654954   -2.472770    1.005420
     62          6           0       11.643871   -1.391130    0.471958
     63          6           0       13.035690   -1.573408    1.052181
     64          6           0       14.106280   -1.982483   -0.005247
     65          6           0       14.623122   -0.796689   -0.820724
     66          6           0       15.332415   -2.628664    0.597859
     67          1           0       -4.895695    0.198971   -4.222386
     68          1           0       -5.746271   -5.162860   -0.844031
     69          1           0       -4.284435   -2.260333    4.520718
     70          1           0       -3.867620    3.955500   -1.122464
     71          1           0       -3.381346    2.651934   -3.601966
     72          1           0       -5.498032    4.014560   -2.544132
     73          1           0       -6.194425    2.544222   -3.071926
     74          1           0       -5.363871    3.503078   -4.278261
     75          1           0       -1.573836    2.657845   -2.498451
     76          1           0       -1.307813    2.964085   -0.810244
     77          1           0       -2.392093    5.470025   -1.986047
     78          1           0       -1.349757    4.721117   -3.136814
     79          1           0       -4.473836   -1.891445   -5.835218
     80          1           0       -6.064409   -1.122847   -5.450280
     81          1           0       -5.949364   -2.849121   -5.937158
     82          1           0       -6.303451   -6.512219   -2.356605
     83          1           0       -4.555635   -6.615692   -2.729671
     84          1           0       -5.599014   -7.188824   -3.795409
     85          1           0       -4.627761   -5.933527    1.509916
     86          1           0       -5.281907   -4.476579    3.928032
     87          1           0       -7.185849   -5.098975    2.898822
     88          1           0       -6.969050   -6.519926    1.873372
     89          1           0       -7.429109   -4.919856    1.186239
     90          1           0       -2.554649   -4.307444    3.466123
     91          1           0       -2.905116   -5.851920    2.965949
     92          1           0       -4.332453   -5.512675    5.555385
     93          1           0       -2.620802   -5.075509    5.706114
     94          1           0       -3.103362   -6.596371    4.962394
     95          1           0       -3.911273    0.633404    6.309120
     96          1           0       -2.214053    0.893566    5.825824
     97          1           0       -2.856070   -0.706096    5.769569
     98          1           0       -1.897245    3.463871    1.327173
     99          1           0       -2.988075    7.429066    0.470428
    100          1           0       -3.871654    7.477055    1.978531
    101          1           0       -4.612329    6.801879    0.545361
    102          1           0        1.944689    6.090964   -0.377292
    103          1           0        2.695623    5.659718   -2.057874
    104          1           0        2.163807    3.300329   -0.597706
    105          1           0        5.154546    5.717385    0.868124
    106          1           0        4.502009    6.225280   -0.710796
    107          1           0        5.798631    5.072888   -0.665553
    108          1           0        3.540709    2.183677    0.424668
    109          1           0        4.726364    2.983870    1.460017
    110          1           0        6.395576    2.111569    0.228713
    111          1           0        5.870629    2.634903   -1.342255
    112          1           0        4.459254    0.579176   -1.563971
    113          1           0        4.957814    0.256310    0.074985
    114          1           0        7.433740    0.479168   -1.012659
    115          1           0        6.308356   -0.949310   -3.288041
    116          1           0        7.715622   -0.236322   -3.135886
    117          1           0        6.304027    0.858076   -3.429256
    118          1           0        7.191833   -2.023436   -1.507634
    119          1           0        5.602065   -1.973340   -0.757105
    120          1           0        6.602984   -1.744489    1.439387
    121          1           0        7.872428   -0.747160    0.836765
    122          1           0        7.541094   -3.668833    0.163101
    123          1           0        8.484205   -3.195581    1.676065
    124          1           0        9.393035   -1.830016   -0.682729
    125          1           0       10.209797   -3.439395   -1.945548
    126          1           0        9.062630   -4.544178   -1.141516
    127          1           0       10.717911   -4.484802   -0.605713
    128          1           0       11.164195   -3.404106    1.249947
    129          1           0       10.235094   -2.040470    1.914228
    130          1           0       11.319779   -0.403224    0.798382
    131          1           0       11.688569   -1.328958   -0.615171
    132          1           0       12.985989   -2.450371    1.698771
    133          1           0       13.292320   -0.639949    1.553138
    134          1           0       13.591193   -2.711778   -0.630490
    135          1           0       13.916984   -0.437516   -1.569520
    136          1           0       15.511482   -1.269499   -1.239445
    137          1           0       14.795862    0.108595   -0.239202
    138          1           0       15.139797   -3.192777    1.510149
    139          1           0       16.247064   -2.044774    0.706072
    140          1           0       15.566264   -3.402474   -0.133777
 ---------------------------------------------------------------------

 SCF Done:  E(RPBE1PBE) =  -3005.35799938     A.U. after   16 cycles

 Excitation energies and oscillator strengths:

 Excited State   1:      Singlet-A      1.8270 eV  678.60 nm  f=0.4018  <S**2>=0.000
     245 -> 248        0.15421
     246 -> 247        0.69901
     246 <- 247       -0.11768
 This state for optimization and/or second-order correction.
 Total Energy, E(TD-HF/TD-DFT) =  -3005.29085667
 Copying the excited state density for this state as the 1-particle RhoCI density.

 Excited State   2:      Singlet-A      2.2507 eV  550.88 nm  f=0.0895  <S**2>=0.000
     245 -> 247        0.64809
     246 -> 248       -0.26569

 Excited State   3:      Singlet-A      2.8839 eV  429.92 nm  f=0.0002  <S**2>=0.000
     243 -> 247        0.67874
     243 -> 249        0.12745
     243 -> 250        0.12448

 Excited State   4:      Singlet-A      2.9920 eV  414.39 nm  f=0.0001  <S**2>=0.000
     240 -> 247        0.65427
     240 -> 249       -0.21992

 Excited State   5:      Singlet-A      3.0357 eV  408.42 nm  f=0.0008  <S**2>=0.000
     241 -> 247       -0.19017
     242 -> 247        0.66947

 The electronic state is 1-A.
 Alpha  occ. eigenvalues --  -46.92678 -19.25494 -19.24879 -19.20058 -19.19789
 Alpha  occ. eigenvalues --  -19.19153 -19.18747 -14.43501 -14.41881 -14.39568
 Alpha  occ. eigenvalues --  -14.38643 -10.36873 -10.36363 -10.33026 -10.31508
 Alpha  occ. eigenvalues --  -10.30853 -10.29521 -10.29350 -10.29341 -10.29087
 Alpha  occ. eigenvalues --  -10.28415 -10.27622 -10.27513 -10.27433 -10.27427
 Alpha  occ. eigenvalues --  -10.26972 -10.26891 -10.26810 -10.25988 -10.25942
 Alpha  occ. eigenvalues --  -10.25795 -10.25782 -10.25678 -10.25386 -10.25300
 Alpha  occ. eigenvalues --  -10.25148 -10.24880 -10.24580 -10.24491 -10.24340
 Alpha  occ. eigenvalues --  -10.24174 -10.23956 -10.23910 -10.23728 -10.23511
 Alpha  occ. eigenvalues --  -10.23408 -10.23392 -10.23384 -10.23304 -10.23280
 Alpha  occ. eigenvalues --  -10.22979 -10.22942 -10.22812 -10.22782 -10.22670
 Alpha  occ. eigenvalues --  -10.22584 -10.22531 -10.22174 -10.22126 -10.21970
 Alpha  occ. eigenvalues --  -10.21946 -10.21890 -10.21643 -10.21630 -10.21467
 Alpha  occ. eigenvalues --  -10.21422  -3.14806  -1.87638  -1.87186  -1.87030
 Alpha  occ. eigenvalues --   -1.11113  -1.09595  -1.04425  -1.02598  -1.02273
 Alpha  occ. eigenvalues --   -1.01449  -1.00152  -0.98884  -0.97128  -0.96132
 Alpha  occ. eigenvalues --   -0.88379  -0.85005  -0.84427  -0.83968  -0.83780
 Alpha  occ. eigenvalues --   -0.83077  -0.82407  -0.82095  -0.81607  -0.81190
 Alpha  occ. eigenvalues --   -0.80539  -0.80339  -0.78418  -0.77968  -0.77571
 Alpha  occ. eigenvalues --   -0.77017  -0.76278  -0.75449  -0.75131  -0.74870
 Alpha  occ. eigenvalues --   -0.74035  -0.72795  -0.72143  -0.71827  -0.70446
 Alpha  occ. eigenvalues --   -0.70167  -0.69719  -0.69196  -0.68965  -0.68270
 Alpha  occ. eigenvalues --   -0.67697  -0.67022  -0.66184  -0.65381  -0.63760
 Alpha  occ. eigenvalues --   -0.63222  -0.62497  -0.62294  -0.60844  -0.60492
 Alpha  occ. eigenvalues --   -0.60229  -0.59990  -0.59683  -0.59416  -0.57949
 Alpha  occ. eigenvalues --   -0.57646  -0.57401  -0.56692  -0.56213  -0.54857
 Alpha  occ. eigenvalues --   -0.54626  -0.54274  -0.53728  -0.53540  -0.52732
 Alpha  occ. eigenvalues --   -0.52452  -0.51596  -0.51358  -0.50809  -0.50267
 Alpha  occ. eigenvalues --   -0.49730  -0.49156  -0.48811  -0.48578  -0.48522
 Alpha  occ. eigenvalues --   -0.48139  -0.47998  -0.47956  -0.47388  -0.47022
 Alpha  occ. eigenvalues --   -0.46933  -0.46754  -0.46611  -0.46113  -0.46011
 Alpha  occ. eigenvalues --   -0.45934  -0.45838  -0.45516  -0.45324  -0.45176
 Alpha  occ. eigenvalues --   -0.44947  -0.44835  -0.44748  -0.44672  -0.44239
 Alpha  occ. eigenvalues --   -0.44137  -0.43909  -0.43569  -0.43366  -0.43239
 Alpha  occ. eigenvalues --   -0.43149  -0.42927  -0.42803  -0.42725  -0.42639
 Alpha  occ. eigenvalues --   -0.42267  -0.42013  -0.41871  -0.41634  -0.41536
 Alpha  occ. eigenvalues --   -0.41270  -0.40886  -0.40698  -0.40501  -0.40333
 Alpha  occ. eigenvalues --   -0.40226  -0.39921  -0.39823  -0.39718  -0.39534
 Alpha  occ. eigenvalues --   -0.39488  -0.39222  -0.39184  -0.39060  -0.38903
 Alpha  occ. eigenvalues --   -0.38780  -0.38269  -0.38159  -0.37774  -0.37677
 Alpha  occ. eigenvalues --   -0.37589  -0.37418  -0.37245  -0.37106  -0.36857
 Alpha  occ. eigenvalues --   -0.36783  -0.36623  -0.36457  -0.36337  -0.36090
 Alpha  occ. eigenvalues --   -0.35933  -0.35688  -0.35669  -0.35177  -0.35030
 Alpha  occ. eigenvalues --   -0.35015  -0.34635  -0.34410  -0.33909  -0.33702
 Alpha  occ. eigenvalues --   -0.33510  -0.33164  -0.32932  -0.32426  -0.32277
 Alpha  occ. eigenvalues --   -0.32245  -0.32178  -0.31681  -0.31052  -0.30945
 Alpha  occ. eigenvalues --   -0.30691  -0.30235  -0.30163  -0.29936  -0.29695
 Alpha  occ. eigenvalues --   -0.29294  -0.28734  -0.28531  -0.27284  -0.25966
 Alpha  occ. eigenvalues --   -0.25859  -0.25625  -0.25392  -0.24605  -0.21636
 Alpha  occ. eigenvalues --   -0.19024
 Alpha virt. eigenvalues --   -0.11603  -0.05371  -0.04500  -0.02726  -0.01108
 Alpha virt. eigenvalues --   -0.00169   0.00302   0.00521   0.02362   0.02826
 Alpha virt. eigenvalues --    0.03926   0.04271   0.05246   0.05379   0.05616

 Mulliken charges:
               1
     1  Mg   0.970095
     2  C    0.017560
     3  C   -0.060163
     4  C   -0.048117
     5  C   -0.081446
     6  N   -0.425128
     7  C    0.065870
     8  C   -0.126189
     9  C   -0.127684
    10  C    0.109002
    11  C    0.009960
    12  C    0.040856
    13  C    0.003421
    14  C    0.203671
    15  O   -0.261778
    16  O   -0.373048
    17  N   -0.484940
    18  C    0.131644
    19  C   -0.153012
    20  C   -0.072447
    21  C    0.167752
    22  C    0.061411
    23  C    0.068712
    24  O   -0.271327
    25  C   -0.046066
    26  N   -0.437031
    27  C    0.095903
    28  C   -0.105020
    29  C   -0.108271
    30  C    0.107922
    31  C   -0.002446
    32  C   -0.039650
    33  C   -0.085200
    34  N   -0.377824
    35  C    0.117550
    36  C   -0.199804
    37  C   -0.011766
    38  C    0.094201
    39  C    0.067934
    40  C    0.123432
    41  O   -0.200643
    42  C   -0.126141
    43  C    0.288132
    44  O   -0.268379
    45  O   -0.348780
    46  C    0.119478
    47  C    0.268783
    48  C   -0.182087
    49  C   -0.231974
    50  C    0.018538
    51  C    0.053854
    52  C   -0.075582
    53  C   -0.006344
    54  C   -0.198997
    55  C   -0.005399
    56  C   -0.031029
    57  C   -0.055781
    58  C    0.019497
    59  C   -0.250168
    60  C    0.000428
    61  C   -0.001577
    62  C   -0.053592
    63  C    0.002249
    64  C   -0.249442
    65  C   -0.008467
    66  C   -0.025179
    67  H   -0.000002
    68  H   -0.015904
    69  H    0.008386
    70  H    0.066095
    71  H    0.047237
    72  H    0.041117
    73  H    0.044136
    74  H    0.051869
    75  H    0.045229
    76  H    0.056096
    77  H    0.058201
    78  H    0.055337
    79  H    0.064238
    80  H    0.056374
    81  H    0.068228
    82  H    0.079017
    83  H    0.062154
    84  H    0.041029
    85  H    0.057570
    86  H    0.039610
    87  H    0.043994
    88  H    0.051617
    89  H    0.051622
    90  H    0.041968
    91  H    0.032777
    92  H    0.042848
    93  H    0.053537
    94  H    0.041655
    95  H    0.072898
    96  H    0.058330
    97  H    0.030190
    98  H    0.081042
    99  H    0.060777
   100  H    0.051884
   101  H    0.047076
   102  H    0.083911
   103  H    0.064861
   104  H    0.025224
   105  H    0.055547
   106  H    0.033263
   107  H    0.046391
   108  H    0.028065
   109  H    0.039544
   110  H    0.027202
   111  H    0.031766
   112  H    0.030302
   113  H    0.022912
   114  H    0.028240
   115  H    0.020874
   116  H    0.021040
   117  H    0.049070
   118  H    0.016352
   119  H    0.039638
   120  H    0.027555
   121  H    0.022107
   122  H    0.030059
   123  H    0.027329
   124  H    0.040404
   125  H    0.034626
   126  H    0.027113
   127  H    0.029774
   128  H    0.036740
   129  H    0.030080
   130  H    0.023475
   131  H    0.028422
   132  H    0.021997
   133  H    0.023234
   134  H    0.032430
   135  H    0.026669
   136  H    0.039528
   137  H    0.036452
   138  H    0.025381
   139  H    0.044776
   140  H    0.029473
 Sum of Mulliken charges =  -0.00000

 Dipole moment (field-independent basis, Debye):
    X=              1.1983    Y=             -3.8656    Z=             -1.1586  Tot=              4.2097
 Quadrupole moment (field-independent basis, Debye-Ang):
   XX=           -392.8506   YY=           -402.5476   ZZ=           -415.1544
   XY=             15.3536   XZ=             -8.3207   YZ=            -57.6385

 Normal termination of Gaussian 16 at Tue May  3 23:40:04 2022.
