 Gaussian 16, Revision A.03,
 Gaussian 16:  ES64L-G16RevA.03 25-Dec-2016

 --------------------------------
 #p wB97XD/Def2SVP td=(nstates=5)
 --------------------------------

 ----------------------------------------------------
 step_1101_chromophore_8 TDDFT with wB97XD functional
 ----------------------------------------------------
 Symbolic Z-matrix:
 Charge =  0 Multiplicity = 1

                         Standard orientation:
 ---------------------------------------------------------------------
 Center     Atomic      Atomic             Coordinates (Angstroms)
 Number     Number       Type             X           Y           Z
 ---------------------------------------------------------------------
      1         12           0       -4.705408   -1.060523    0.181414
      2          6           0       -3.447363    2.110557    1.017894
      3          6           0       -4.752136   -0.088152   -3.178499
      4          6           0       -5.370617   -4.165238   -0.611299
      5          6           0       -4.170055   -1.950535    3.480647
      6          7           0       -4.263128    0.752321   -0.855471
      7          6           0       -3.695718    1.930864   -0.348028
      8          6           0       -3.407895    3.021735   -1.445676
      9          6           0       -4.049032    2.468280   -2.761045
     10          6           0       -4.336883    0.953718   -2.264389
     11          6           0       -5.330710    3.188399   -3.235724
     12          6           0       -1.877488    3.303910   -1.674700
     13          6           0       -1.604582    4.721710   -2.077082
     14          6           0       -0.428422    5.489337   -1.458942
     15          8           0       -0.494074    6.473683   -0.721623
     16          8           0        0.788597    4.930092   -1.774487
     17          7           0       -4.979618   -2.009418   -1.704424
     18          6           0       -5.015243   -1.438822   -2.948496
     19          6           0       -5.350733   -2.442470   -3.966237
     20          6           0       -5.468994   -3.678499   -3.256986
     21          6           0       -5.299985   -3.366402   -1.792522
     22          6           0       -5.463995   -2.031714   -5.402397
     23          6           0       -5.596235   -5.034080   -3.909058
     24          8           0       -5.728898   -5.129989   -5.163156
     25          6           0       -5.538024   -6.341483   -3.112691
     26          7           0       -4.500336   -2.817579    1.210199
     27          6           0       -5.076036   -3.898396    0.712561
     28          6           0       -5.262384   -5.076920    1.737389
     29          6           0       -4.671091   -4.373345    3.031259
     30          6           0       -4.408543   -2.940700    2.604030
     31          6           0       -6.824549   -5.441162    1.928327
     32          6           0       -3.332703   -5.061530    3.581669
     33          6           0       -3.363422   -5.542324    5.058828
     34          7           0       -3.949987   -0.081076    1.977743
     35          6           0       -3.896322   -0.576620    3.220499
     36          6           0       -3.377735    0.451640    4.150290
     37          6           0       -3.191506    1.556512    3.294135
     38          6           0       -3.566468    1.161834    1.974497
     39          6           0       -3.126983    0.337809    5.611632
     40          6           0       -2.762971    2.935611    3.199303
     41          8           0       -2.332954    3.723730    4.020609
     42          6           0       -2.906174    3.279138    1.698028
     43          6           0       -3.780646    4.521064    1.644630
     44          8           0       -5.007883    4.525400    1.837550
     45          8           0       -3.000012    5.664143    1.513381
     46          6           0       -3.675685    6.862248    1.099659
     47          6           0        2.021652    5.422304   -1.235346
     48          6           0        2.663617    4.266171   -0.530020
     49          6           0        3.926221    4.193535   -0.074442
     50          6           0        4.897014    5.386278   -0.137449
     51          6           0        4.406368    2.845785    0.427013
     52          6           0        5.525527    2.156307   -0.425902
     53          6           0        5.292876    0.685071   -0.869734
     54          6           0        6.534050   -0.033721   -1.349717
     55          6           0        6.680545   -0.008249   -2.883362
     56          6           0        6.579490   -1.491279   -0.779491
     57          6           0        7.324217   -1.666210    0.625355
     58          6           0        8.194984   -2.948370    0.654085
     59          6           0        9.508191   -2.698003   -0.033335
     60          6           0        9.905555   -3.869957   -0.991088
     61          6           0       10.654954   -2.472770    1.005420
     62          6           0       11.643871   -1.391130    0.471958
     63          6           0       13.035690   -1.573408    1.052181
     64          6           0       14.106280   -1.982483   -0.005247
     65          6           0       14.623122   -0.796689   -0.820724
     66          6           0       15.332415   -2.628664    0.597859
     67          1           0       -4.895695    0.198971   -4.222386
     68          1           0       -5.746271   -5.162860   -0.844031
     69          1           0       -4.284435   -2.260333    4.520718
     70          1           0       -3.867620    3.955500   -1.122464
     71          1           0       -3.381346    2.651934   -3.601966
     72          1           0       -5.498032    4.014560   -2.544132
     73          1           0       -6.194425    2.544222   -3.071926
     74          1           0       -5.363871    3.503078   -4.278261
     75          1           0       -1.573836    2.657845   -2.498451
     76          1           0       -1.307813    2.964085   -0.810244
     77          1           0       -2.392093    5.470025   -1.986047
     78          1           0       -1.349757    4.721117   -3.136814
     79          1           0       -4.473836   -1.891445   -5.835218
     80          1           0       -6.064409   -1.122847   -5.450280
     81          1           0       -5.949364   -2.849121   -5.937158
     82          1           0       -6.303451   -6.512219   -2.356605
     83          1           0       -4.555635   -6.615692   -2.729671
     84          1           0       -5.599014   -7.188824   -3.795409
     85          1           0       -4.627761   -5.933527    1.509916
     86          1           0       -5.281907   -4.476579    3.928032
     87          1           0       -7.185849   -5.098975    2.898822
     88          1           0       -6.969050   -6.519926    1.873372
     89          1           0       -7.429109   -4.919856    1.186239
     90          1           0       -2.554649   -4.307444    3.466123
     91          1           0       -2.905116   -5.851920    2.965949
     92          1           0       -4.332453   -5.512675    5.555385
     93          1           0       -2.620802   -5.075509    5.706114
     94          1           0       -3.103362   -6.596371    4.962394
     95          1           0       -3.911273    0.633404    6.309120
     96          1           0       -2.214053    0.893566    5.825824
     97          1           0       -2.856070   -0.706096    5.769569
     98          1           0       -1.897245    3.463871    1.327173
     99          1           0       -2.988075    7.429066    0.470428
    100          1           0       -3.871654    7.477055    1.978531
    101          1           0       -4.612329    6.801879    0.545361
    102          1           0        1.944689    6.090964   -0.377292
    103          1           0        2.695623    5.659718   -2.057874
    104          1           0        2.163807    3.300329   -0.597706
    105          1           0        5.154546    5.717385    0.868124
    106          1           0        4.502009    6.225280   -0.710796
    107          1           0        5.798631    5.072888   -0.665553
    108          1           0        3.540709    2.183677    0.424668
    109          1           0        4.726364    2.983870    1.460017
    110          1           0        6.395576    2.111569    0.228713
    111          1           0        5.870629    2.634903   -1.342255
    112          1           0        4.459254    0.579176   -1.563971
    113          1           0        4.957814    0.256310    0.074985
    114          1           0        7.433740    0.479168   -1.012659
    115          1           0        6.308356   -0.949310   -3.288041
    116          1           0        7.715622   -0.236322   -3.135886
    117          1           0        6.304027    0.858076   -3.429256
    118          1           0        7.191833   -2.023436   -1.507634
    119          1           0        5.602065   -1.973340   -0.757105
    120          1           0        6.602984   -1.744489    1.439387
    121          1           0        7.872428   -0.747160    0.836765
    122          1           0        7.541094   -3.668833    0.163101
    123          1           0        8.484205   -3.195581    1.676065
    124          1           0        9.393035   -1.830016   -0.682729
    125          1           0       10.209797   -3.439395   -1.945548
    126          1           0        9.062630   -4.544178   -1.141516
    127          1           0       10.717911   -4.484802   -0.605713
    128          1           0       11.164195   -3.404106    1.249947
    129          1           0       10.235094   -2.040470    1.914228
    130          1           0       11.319779   -0.403224    0.798382
    131          1           0       11.688569   -1.328958   -0.615171
    132          1           0       12.985989   -2.450371    1.698771
    133          1           0       13.292320   -0.639949    1.553138
    134          1           0       13.591193   -2.711778   -0.630490
    135          1           0       13.916984   -0.437516   -1.569520
    136          1           0       15.511482   -1.269499   -1.239445
    137          1           0       14.795862    0.108595   -0.239202
    138          1           0       15.139797   -3.192777    1.510149
    139          1           0       16.247064   -2.044774    0.706072
    140          1           0       15.566264   -3.402474   -0.133777
 ---------------------------------------------------------------------

 SCF Done:  E(RwB97XD) =  -3007.86630704     A.U. after   19 cycles

 Excitation energies and oscillator strengths:

 Excited State   1:      Singlet-A      1.6426 eV  754.82 nm  f=0.4072  <S**2>=0.000
     245 -> 248        0.16542
     246 -> 247        0.68808
     245 <- 248        0.11016
 This state for optimization and/or second-order correction.
 Total Energy, E(TD-HF/TD-DFT) =  -3007.80594383
 Copying the excited state density for this state as the 1-particle RhoCI density.

 Excited State   2:      Singlet-A      2.2144 eV  559.89 nm  f=0.0890  <S**2>=0.000
     245 -> 247        0.63293
     246 -> 248       -0.29609

 Excited State   3:      Singlet-A      3.3825 eV  366.55 nm  f=0.0321  <S**2>=0.000
     241 -> 247        0.58098
     243 -> 247       -0.29077
     246 -> 248        0.23432

 Excited State   4:      Singlet-A      3.4487 eV  359.51 nm  f=0.0003  <S**2>=0.000
     240 -> 247        0.49759
     240 -> 248       -0.11560
     240 -> 249       -0.43286
     240 -> 250        0.16413

 Excited State   5:      Singlet-A      3.5158 eV  352.65 nm  f=0.0025  <S**2>=0.000
     242 -> 247        0.56393
     242 -> 249        0.24940
     242 -> 250        0.29943

 The electronic state is 1-A.
 Alpha  occ. eigenvalues --  -46.95647 -19.30013 -19.29389 -19.24680 -19.24458
 Alpha  occ. eigenvalues --  -19.24204 -19.23372 -14.48739 -14.46877 -14.44653
 Alpha  occ. eigenvalues --  -14.43474 -10.43616 -10.43149 -10.40099 -10.38198
 Alpha  occ. eigenvalues --  -10.37353 -10.36117 -10.35888 -10.35531 -10.35523
 Alpha  occ. eigenvalues --  -10.34467 -10.34303 -10.33893 -10.33751 -10.33743
 Alpha  occ. eigenvalues --  -10.33439 -10.33179 -10.33143 -10.32670 -10.32211
 Alpha  occ. eigenvalues --  -10.32062 -10.32030 -10.31999 -10.31827 -10.31502
 Alpha  occ. eigenvalues --  -10.31302 -10.31227 -10.30972 -10.30907 -10.30520
 Alpha  occ. eigenvalues --  -10.30462 -10.30364 -10.30359 -10.30269 -10.30255
 Alpha  occ. eigenvalues --  -10.29730 -10.29708 -10.29663 -10.29637 -10.29592
 Alpha  occ. eigenvalues --  -10.29282 -10.29255 -10.29140 -10.29073 -10.29011
 Alpha  occ. eigenvalues --  -10.28930 -10.28576 -10.28510 -10.28485 -10.28385
 Alpha  occ. eigenvalues --  -10.28291 -10.28250 -10.28069 -10.28042 -10.27831
 Alpha  occ. eigenvalues --  -10.27815  -3.21631  -1.95213  -1.94760  -1.94603
 Alpha  occ. eigenvalues --   -1.18450  -1.16951  -1.11727  -1.10345  -1.09577
 Alpha  occ. eigenvalues --   -1.08780  -1.07263  -1.06225  -1.04739  -1.03641
 Alpha  occ. eigenvalues --   -0.95859  -0.92637  -0.92077  -0.91610  -0.91366
 Alpha  occ. eigenvalues --   -0.90720  -0.90044  -0.89733  -0.89243  -0.88827
 Alpha  occ. eigenvalues --   -0.88187  -0.88054  -0.86062  -0.85530  -0.85234
 Alpha  occ. eigenvalues --   -0.84678  -0.84001  -0.83194  -0.82723  -0.82488
 Alpha  occ. eigenvalues --   -0.81675  -0.80365  -0.79950  -0.79439  -0.78105
 Alpha  occ. eigenvalues --   -0.77719  -0.77313  -0.76883  -0.76641  -0.75910
 Alpha  occ. eigenvalues --   -0.75244  -0.74565  -0.73749  -0.72988  -0.71273
 Alpha  occ. eigenvalues --   -0.70707  -0.70105  -0.69957  -0.68432  -0.67956
 Alpha  occ. eigenvalues --   -0.67831  -0.67625  -0.67115  -0.66825  -0.65429
 Alpha  occ. eigenvalues --   -0.65307  -0.65051  -0.64053  -0.63846  -0.62297
 Alpha  occ. eigenvalues --   -0.62119  -0.61606  -0.61168  -0.61029  -0.60217
 Alpha  occ. eigenvalues --   -0.59897  -0.59056  -0.58798  -0.58221  -0.57654
 Alpha  occ. eigenvalues --   -0.57056  -0.56489  -0.56254  -0.55936  -0.55878
 Alpha  occ. eigenvalues --   -0.55532  -0.55425  -0.55277  -0.54646  -0.54410
 Alpha  occ. eigenvalues --   -0.54303  -0.54160  -0.54086  -0.53524  -0.53380
 Alpha  occ. eigenvalues --   -0.53275  -0.53213  -0.52988  -0.52602  -0.52466
 Alpha  occ. eigenvalues --   -0.52426  -0.52230  -0.52051  -0.51934  -0.51548
 Alpha  occ. eigenvalues --   -0.51443  -0.51364  -0.50890  -0.50683  -0.50525
 Alpha  occ. eigenvalues --   -0.50402  -0.50109  -0.50069  -0.49998  -0.49892
 Alpha  occ. eigenvalues --   -0.49547  -0.49277  -0.49007  -0.48916  -0.48824
 Alpha  occ. eigenvalues --   -0.48528  -0.48150  -0.48107  -0.47692  -0.47499
 Alpha  occ. eigenvalues --   -0.47364  -0.47093  -0.46976  -0.46877  -0.46722
 Alpha  occ. eigenvalues --   -0.46533  -0.46417  -0.46342  -0.46184  -0.46058
 Alpha  occ. eigenvalues --   -0.45960  -0.45354  -0.45294  -0.44964  -0.44859
 Alpha  occ. eigenvalues --   -0.44612  -0.44602  -0.44333  -0.44127  -0.43928
 Alpha  occ. eigenvalues --   -0.43889  -0.43746  -0.43700  -0.43416  -0.43219
 Alpha  occ. eigenvalues --   -0.43051  -0.42809  -0.42694  -0.42247  -0.41992
 Alpha  occ. eigenvalues --   -0.41934  -0.41683  -0.41435  -0.40855  -0.40756
 Alpha  occ. eigenvalues --   -0.40565  -0.40217  -0.39962  -0.39402  -0.39286
 Alpha  occ. eigenvalues --   -0.39164  -0.39114  -0.38669  -0.38014  -0.37904
 Alpha  occ. eigenvalues --   -0.37665  -0.37233  -0.37110  -0.36656  -0.36573
 Alpha  occ. eigenvalues --   -0.36060  -0.35807  -0.35505  -0.33894  -0.33407
 Alpha  occ. eigenvalues --   -0.32604  -0.32334  -0.31978  -0.31315  -0.26760
 Alpha  occ. eigenvalues --   -0.23194
 Alpha virt. eigenvalues --   -0.07420   0.00076   0.01680   0.03841   0.04942
 Alpha virt. eigenvalues --    0.06414   0.07163   0.07366   0.09117   0.09214
 Alpha virt. eigenvalues --    0.10422   0.11130   0.11970   0.12062   0.12341

 Mulliken charges:
               1
     1  Mg   0.961410
     2  C    0.023090
     3  C   -0.074803
     4  C   -0.064913
     5  C   -0.101753
     6  N   -0.394836
     7  C    0.024038
     8  C   -0.096424
     9  C   -0.105183
    10  C    0.098316
    11  C    0.018116
    12  C    0.052968
    13  C    0.020131
    14  C    0.191200
    15  O   -0.258662
    16  O   -0.371490
    17  N   -0.454819
    18  C    0.126236
    19  C   -0.142377
    20  C   -0.067116
    21  C    0.165889
    22  C    0.074741
    23  C    0.064503
    24  O   -0.265579
    25  C   -0.037550
    26  N   -0.407792
    27  C    0.093622
    28  C   -0.084197
    29  C   -0.081970
    30  C    0.103773
    31  C    0.008187
    32  C   -0.029925
    33  C   -0.068120
    34  N   -0.331393
    35  C    0.102428
    36  C   -0.200243
    37  C   -0.008442
    38  C    0.071407
    39  C    0.080273
    40  C    0.104249
    41  O   -0.192034
    42  C   -0.083082
    43  C    0.265192
    44  O   -0.263100
    45  O   -0.346656
    46  C    0.133987
    47  C    0.281148
    48  C   -0.187306
    49  C   -0.222880
    50  C    0.032349
    51  C    0.075152
    52  C   -0.058659
    53  C    0.006894
    54  C   -0.169846
    55  C    0.007059
    56  C   -0.013509
    57  C   -0.037958
    58  C    0.039158
    59  C   -0.218585
    60  C    0.010740
    61  C    0.015378
    62  C   -0.039128
    63  C    0.018378
    64  C   -0.216936
    65  C    0.003063
    66  C   -0.013080
    67  H   -0.004974
    68  H   -0.030013
    69  H    0.002441
    70  H    0.045989
    71  H    0.038305
    72  H    0.036214
    73  H    0.037151
    74  H    0.048021
    75  H    0.036995
    76  H    0.046995
    77  H    0.051727
    78  H    0.049487
    79  H    0.061551
    80  H    0.052059
    81  H    0.065220
    82  H    0.077223
    83  H    0.059218
    84  H    0.039936
    85  H    0.049474
    86  H    0.024761
    87  H    0.039298
    88  H    0.046732
    89  H    0.044463
    90  H    0.032610
    91  H    0.024867
    92  H    0.036580
    93  H    0.048435
    94  H    0.034839
    95  H    0.068012
    96  H    0.052827
    97  H    0.022110
    98  H    0.072140
    99  H    0.057288
   100  H    0.048054
   101  H    0.042630
   102  H    0.079600
   103  H    0.059562
   104  H    0.019911
   105  H    0.050654
   106  H    0.027693
   107  H    0.039863
   108  H    0.019119
   109  H    0.033196
   110  H    0.017538
   111  H    0.020923
   112  H    0.022909
   113  H    0.011019
   114  H    0.014564
   115  H    0.013334
   116  H    0.014128
   117  H    0.045104
   118  H    0.001118
   119  H    0.032665
   120  H    0.020660
   121  H    0.010322
   122  H    0.020189
   123  H    0.018888
   124  H    0.021856
   125  H    0.029371
   126  H    0.021039
   127  H    0.023408
   128  H    0.026463
   129  H    0.020691
   130  H    0.016191
   131  H    0.016387
   132  H    0.009381
   133  H    0.015917
   134  H    0.020089
   135  H    0.021149
   136  H    0.031914
   137  H    0.030287
   138  H    0.020107
   139  H    0.039069
   140  H    0.022332
 Sum of Mulliken charges =  -0.00000

 Dipole moment (field-independent basis, Debye):
    X=              0.9507    Y=             -4.1574    Z=             -1.8634  Tot=              4.6540
 Quadrupole moment (field-independent basis, Debye-Ang):
   XX=           -390.6421   YY=           -401.4804   ZZ=           -414.8251
   XY=             17.0684   XZ=             -5.0249   YZ=            -56.2475

 Normal termination of Gaussian 16 at Wed May  4 00:09:52 2022.
