 Gaussian 16, Revision A.03,
 Gaussian 16:  ES64L-G16RevA.03 25-Dec-2016

 --------------------
 #p ZINDO=(nstates=5)
 --------------------

 -----------------------------
 step_1101_chromophore_8 ZINDO
 -----------------------------
 Symbolic Z-matrix:
 Charge =  0 Multiplicity = 1

                         Standard orientation:
 ---------------------------------------------------------------------
 Center     Atomic      Atomic             Coordinates (Angstroms)
 Number     Number       Type             X           Y           Z
 ---------------------------------------------------------------------
      1         12           0       -4.705408   -1.060523    0.181414
      2          6           0       -3.447363    2.110557    1.017894
      3          6           0       -4.752136   -0.088152   -3.178499
      4          6           0       -5.370617   -4.165238   -0.611299
      5          6           0       -4.170055   -1.950535    3.480647
      6          7           0       -4.263128    0.752321   -0.855471
      7          6           0       -3.695718    1.930864   -0.348028
      8          6           0       -3.407895    3.021735   -1.445676
      9          6           0       -4.049032    2.468280   -2.761045
     10          6           0       -4.336883    0.953718   -2.264389
     11          6           0       -5.330710    3.188399   -3.235724
     12          6           0       -1.877488    3.303910   -1.674700
     13          6           0       -1.604582    4.721710   -2.077082
     14          6           0       -0.428422    5.489337   -1.458942
     15          8           0       -0.494074    6.473683   -0.721623
     16          8           0        0.788597    4.930092   -1.774487
     17          7           0       -4.979618   -2.009418   -1.704424
     18          6           0       -5.015243   -1.438822   -2.948496
     19          6           0       -5.350733   -2.442470   -3.966237
     20          6           0       -5.468994   -3.678499   -3.256986
     21          6           0       -5.299985   -3.366402   -1.792522
     22          6           0       -5.463995   -2.031714   -5.402397
     23          6           0       -5.596235   -5.034080   -3.909058
     24          8           0       -5.728898   -5.129989   -5.163156
     25          6           0       -5.538024   -6.341483   -3.112691
     26          7           0       -4.500336   -2.817579    1.210199
     27          6           0       -5.076036   -3.898396    0.712561
     28          6           0       -5.262384   -5.076920    1.737389
     29          6           0       -4.671091   -4.373345    3.031259
     30          6           0       -4.408543   -2.940700    2.604030
     31          6           0       -6.824549   -5.441162    1.928327
     32          6           0       -3.332703   -5.061530    3.581669
     33          6           0       -3.363422   -5.542324    5.058828
     34          7           0       -3.949987   -0.081076    1.977743
     35          6           0       -3.896322   -0.576620    3.220499
     36          6           0       -3.377735    0.451640    4.150290
     37          6           0       -3.191506    1.556512    3.294135
     38          6           0       -3.566468    1.161834    1.974497
     39          6           0       -3.126983    0.337809    5.611632
     40          6           0       -2.762971    2.935611    3.199303
     41          8           0       -2.332954    3.723730    4.020609
     42          6           0       -2.906174    3.279138    1.698028
     43          6           0       -3.780646    4.521064    1.644630
     44          8           0       -5.007883    4.525400    1.837550
     45          8           0       -3.000012    5.664143    1.513381
     46          6           0       -3.675685    6.862248    1.099659
     47          6           0        2.021652    5.422304   -1.235346
     48          6           0        2.663617    4.266171   -0.530020
     49          6           0        3.926221    4.193535   -0.074442
     50          6           0        4.897014    5.386278   -0.137449
     51          6           0        4.406368    2.845785    0.427013
     52          6           0        5.525527    2.156307   -0.425902
     53          6           0        5.292876    0.685071   -0.869734
     54          6           0        6.534050   -0.033721   -1.349717
     55          6           0        6.680545   -0.008249   -2.883362
     56          6           0        6.579490   -1.491279   -0.779491
     57          6           0        7.324217   -1.666210    0.625355
     58          6           0        8.194984   -2.948370    0.654085
     59          6           0        9.508191   -2.698003   -0.033335
     60          6           0        9.905555   -3.869957   -0.991088
     61          6           0       10.654954   -2.472770    1.005420
     62          6           0       11.643871   -1.391130    0.471958
     63          6           0       13.035690   -1.573408    1.052181
     64          6           0       14.106280   -1.982483   -0.005247
     65          6           0       14.623122   -0.796689   -0.820724
     66          6           0       15.332415   -2.628664    0.597859
     67          1           0       -4.895695    0.198971   -4.222386
     68          1           0       -5.746271   -5.162860   -0.844031
     69          1           0       -4.284435   -2.260333    4.520718
     70          1           0       -3.867620    3.955500   -1.122464
     71          1           0       -3.381346    2.651934   -3.601966
     72          1           0       -5.498032    4.014560   -2.544132
     73          1           0       -6.194425    2.544222   -3.071926
     74          1           0       -5.363871    3.503078   -4.278261
     75          1           0       -1.573836    2.657845   -2.498451
     76          1           0       -1.307813    2.964085   -0.810244
     77          1           0       -2.392093    5.470025   -1.986047
     78          1           0       -1.349757    4.721117   -3.136814
     79          1           0       -4.473836   -1.891445   -5.835218
     80          1           0       -6.064409   -1.122847   -5.450280
     81          1           0       -5.949364   -2.849121   -5.937158
     82          1           0       -6.303451   -6.512219   -2.356605
     83          1           0       -4.555635   -6.615692   -2.729671
     84          1           0       -5.599014   -7.188824   -3.795409
     85          1           0       -4.627761   -5.933527    1.509916
     86          1           0       -5.281907   -4.476579    3.928032
     87          1           0       -7.185849   -5.098975    2.898822
     88          1           0       -6.969050   -6.519926    1.873372
     89          1           0       -7.429109   -4.919856    1.186239
     90          1           0       -2.554649   -4.307444    3.466123
     91          1           0       -2.905116   -5.851920    2.965949
     92          1           0       -4.332453   -5.512675    5.555385
     93          1           0       -2.620802   -5.075509    5.706114
     94          1           0       -3.103362   -6.596371    4.962394
     95          1           0       -3.911273    0.633404    6.309120
     96          1           0       -2.214053    0.893566    5.825824
     97          1           0       -2.856070   -0.706096    5.769569
     98          1           0       -1.897245    3.463871    1.327173
     99          1           0       -2.988075    7.429066    0.470428
    100          1           0       -3.871654    7.477055    1.978531
    101          1           0       -4.612329    6.801879    0.545361
    102          1           0        1.944689    6.090964   -0.377292
    103          1           0        2.695623    5.659718   -2.057874
    104          1           0        2.163807    3.300329   -0.597706
    105          1           0        5.154546    5.717385    0.868124
    106          1           0        4.502009    6.225280   -0.710796
    107          1           0        5.798631    5.072888   -0.665553
    108          1           0        3.540709    2.183677    0.424668
    109          1           0        4.726364    2.983870    1.460017
    110          1           0        6.395576    2.111569    0.228713
    111          1           0        5.870629    2.634903   -1.342255
    112          1           0        4.459254    0.579176   -1.563971
    113          1           0        4.957814    0.256310    0.074985
    114          1           0        7.433740    0.479168   -1.012659
    115          1           0        6.308356   -0.949310   -3.288041
    116          1           0        7.715622   -0.236322   -3.135886
    117          1           0        6.304027    0.858076   -3.429256
    118          1           0        7.191833   -2.023436   -1.507634
    119          1           0        5.602065   -1.973340   -0.757105
    120          1           0        6.602984   -1.744489    1.439387
    121          1           0        7.872428   -0.747160    0.836765
    122          1           0        7.541094   -3.668833    0.163101
    123          1           0        8.484205   -3.195581    1.676065
    124          1           0        9.393035   -1.830016   -0.682729
    125          1           0       10.209797   -3.439395   -1.945548
    126          1           0        9.062630   -4.544178   -1.141516
    127          1           0       10.717911   -4.484802   -0.605713
    128          1           0       11.164195   -3.404106    1.249947
    129          1           0       10.235094   -2.040470    1.914228
    130          1           0       11.319779   -0.403224    0.798382
    131          1           0       11.688569   -1.328958   -0.615171
    132          1           0       12.985989   -2.450371    1.698771
    133          1           0       13.292320   -0.639949    1.553138
    134          1           0       13.591193   -2.711778   -0.630490
    135          1           0       13.916984   -0.437516   -1.569520
    136          1           0       15.511482   -1.269499   -1.239445
    137          1           0       14.795862    0.108595   -0.239202
    138          1           0       15.139797   -3.192777    1.510149
    139          1           0       16.247064   -2.044774    0.706072
    140          1           0       15.566264   -3.402474   -0.133777
 ---------------------------------------------------------------------

 SCF Done:  E(RZINDO/S) =  -474.230556924     A.U. after   19 cycles

 Excitation energies and oscillator strengths:

 Excited State   1:      Singlet-A      1.2518 eV  990.48 nm  f=0.6055  <S**2>=0.000
     175 ->178         0.16607
     176 ->177         0.66998
 This state for optimization and/or second-order correction.
 Total Energy, E(CIS/TDA) =  -474.184555698
 Copying the excited state density for this state as the 1-particle RhoCI density.

 Excited State   2:      Singlet-A      1.9506 eV  635.62 nm  f=0.0206  <S**2>=0.000
     175 ->177         0.52609
     176 ->178        -0.44168

 Excited State   3:      Singlet-A      2.9356 eV  422.34 nm  f=0.0005  <S**2>=0.000
     167 ->177         0.10172
     167 ->179        -0.17763
     168 ->177         0.29206
     168 ->178        -0.13474
     168 ->179        -0.45759
     168 ->180         0.18237
     168 ->185        -0.22137
     168 ->193         0.10006

 Excited State   4:      Singlet-A      2.9882 eV  414.91 nm  f=0.0333  <S**2>=0.000
     170 ->177         0.31078
     170 ->178        -0.12124
     170 ->179         0.25387
     170 ->180         0.38453
     170 ->181         0.10195
     170 ->185         0.13087
     170 ->188         0.21321
     170 ->202        -0.10330
     176 ->179        -0.10785

 Excited State   5:      Singlet-A      3.0174 eV  410.90 nm  f=0.5570  <S**2>=0.000
     170 ->180         0.10064
     175 ->177        -0.29497
     176 ->178        -0.33715
     176 ->179         0.39219
     176 ->180         0.26309

 The electronic state is 1-A.
 Alpha  occ. eigenvalues --   -1.86144  -1.80815  -1.77648  -1.73061  -1.70625
 Alpha  occ. eigenvalues --   -1.68627  -1.66274  -1.61249  -1.59587  -1.56467
 Alpha  occ. eigenvalues --   -1.56347  -1.52106  -1.48843  -1.48337  -1.46370
 Alpha  occ. eigenvalues --   -1.44885  -1.43132  -1.40181  -1.39319  -1.38251
 Alpha  occ. eigenvalues --   -1.35844  -1.33608  -1.33135  -1.31013  -1.28859
 Alpha  occ. eigenvalues --   -1.27930  -1.26480  -1.22769  -1.20839  -1.18377
 Alpha  occ. eigenvalues --   -1.17097  -1.16299  -1.14680  -1.14575  -1.13670
 Alpha  occ. eigenvalues --   -1.13087  -1.10339  -1.09967  -1.05542  -1.03262
 Alpha  occ. eigenvalues --   -1.02555  -1.01685  -0.99006  -0.97109  -0.96212
 Alpha  occ. eigenvalues --   -0.96030  -0.94882  -0.93779  -0.93702  -0.92630
 Alpha  occ. eigenvalues --   -0.91213  -0.90311  -0.89729  -0.89535  -0.86191
 Alpha  occ. eigenvalues --   -0.85956  -0.84736  -0.84082  -0.82643  -0.80203
 Alpha  occ. eigenvalues --   -0.79495  -0.79116  -0.77167  -0.76926  -0.76671
 Alpha  occ. eigenvalues --   -0.75923  -0.75774  -0.74501  -0.74213  -0.73576
 Alpha  occ. eigenvalues --   -0.73002  -0.72499  -0.72068  -0.71262  -0.70997
 Alpha  occ. eigenvalues --   -0.70654  -0.70582  -0.69152  -0.68703  -0.67509
 Alpha  occ. eigenvalues --   -0.66983  -0.66760  -0.66164  -0.65503  -0.65395
 Alpha  occ. eigenvalues --   -0.65005  -0.64410  -0.64055  -0.63727  -0.63411
 Alpha  occ. eigenvalues --   -0.62896  -0.62863  -0.62491  -0.62448  -0.62247
 Alpha  occ. eigenvalues --   -0.61834  -0.61512  -0.60993  -0.60791  -0.60085
 Alpha  occ. eigenvalues --   -0.59873  -0.59691  -0.59267  -0.58384  -0.57881
 Alpha  occ. eigenvalues --   -0.57455  -0.57181  -0.56908  -0.56797  -0.56201
 Alpha  occ. eigenvalues --   -0.55782  -0.55689  -0.55351  -0.54952  -0.54918
 Alpha  occ. eigenvalues --   -0.54611  -0.54276  -0.53406  -0.53270  -0.53019
 Alpha  occ. eigenvalues --   -0.52569  -0.52512  -0.51668  -0.51577  -0.51346
 Alpha  occ. eigenvalues --   -0.51179  -0.51058  -0.50638  -0.50255  -0.49856
 Alpha  occ. eigenvalues --   -0.49831  -0.49595  -0.49351  -0.49251  -0.49065
 Alpha  occ. eigenvalues --   -0.48446  -0.48284  -0.48135  -0.48032  -0.47629
 Alpha  occ. eigenvalues --   -0.47468  -0.47019  -0.46890  -0.46744  -0.46488
 Alpha  occ. eigenvalues --   -0.46303  -0.46228  -0.45834  -0.45561  -0.45360
 Alpha  occ. eigenvalues --   -0.45244  -0.45026  -0.44970  -0.44547  -0.44265
 Alpha  occ. eigenvalues --   -0.44161  -0.43690  -0.43141  -0.43013  -0.42362
 Alpha  occ. eigenvalues --   -0.42236  -0.40746  -0.40638  -0.39470  -0.38762
 Alpha  occ. eigenvalues --   -0.38180  -0.37225  -0.36394  -0.35200  -0.34216
 Alpha  occ. eigenvalues --   -0.34018  -0.33081  -0.32149  -0.31635  -0.27521
 Alpha  occ. eigenvalues --   -0.22031
 Alpha virt. eigenvalues --   -0.08793  -0.02448  -0.01157   0.00669   0.01302
 Alpha virt. eigenvalues --    0.01785   0.02238   0.02872   0.04400   0.05199
 Alpha virt. eigenvalues --    0.05719   0.06599   0.06819   0.07337   0.07796

 Mulliken charges:
               1
     1  Mg   0.435922
     2  C   -0.006121
     3  C   -0.070212
     4  C   -0.101214
     5  C   -0.057189
     6  N   -0.271165
     7  C    0.074288
     8  C   -0.001854
     9  C    0.002832
    10  C    0.131737
    11  C   -0.054446
    12  C   -0.011403
    13  C    0.011952
    14  C    0.461764
    15  O   -0.517890
    16  O   -0.280524
    17  N   -0.339489
    18  C    0.123996
    19  C    0.067559
    20  C   -0.043799
    21  C    0.137875
    22  C   -0.030475
    23  C    0.329403
    24  O   -0.533465
    25  C   -0.035617
    26  N   -0.270893
    27  C    0.182086
    28  C   -0.010952
    29  C   -0.007397
    30  C    0.099553
    31  C   -0.053630
    32  C   -0.040452
    33  C   -0.058960
    34  N   -0.296828
    35  C    0.077158
    36  C    0.012066
    37  C   -0.065607
    38  C    0.099380
    39  C   -0.034847
    40  C    0.336958
    41  O   -0.517984
    42  C    0.064807
    43  C    0.485586
    44  O   -0.528656
    45  O   -0.256116
    46  C    0.078327
    47  C    0.103573
    48  C   -0.091382
    49  C   -0.024364
    50  C   -0.043910
    51  C   -0.015248
    52  C   -0.036778
    53  C   -0.030415
    54  C   -0.003806
    55  C   -0.065084
    56  C   -0.039143
    57  C   -0.041813
    58  C   -0.032780
    59  C   -0.013442
    60  C   -0.063947
    61  C   -0.032963
    62  C   -0.041113
    63  C   -0.042494
    64  C   -0.007819
    65  C   -0.059940
    66  C   -0.057621
    67  H    0.025600
    68  H    0.018674
    69  H    0.021949
    70  H    0.038002
    71  H    0.036730
    72  H    0.024693
    73  H    0.019906
    74  H    0.027398
    75  H    0.021752
    76  H    0.032036
    77  H    0.041883
    78  H    0.031776
    79  H    0.041676
    80  H    0.033649
    81  H    0.041719
    82  H    0.041382
    83  H    0.038932
    84  H    0.027915
    85  H    0.044457
    86  H    0.033620
    87  H    0.024627
    88  H    0.023555
    89  H    0.026228
    90  H    0.015594
    91  H    0.021374
    92  H    0.023878
    93  H    0.025839
    94  H    0.012039
    95  H    0.043729
    96  H    0.029995
    97  H    0.014948
    98  H    0.053665
    99  H    0.032170
   100  H    0.038668
   101  H    0.042044
   102  H    0.074920
   103  H    0.053402
   104  H    0.028429
   105  H    0.031382
   106  H    0.021219
   107  H    0.024063
   108  H    0.021109
   109  H    0.026895
   110  H    0.012323
   111  H    0.022253
   112  H    0.021917
   113  H    0.007635
   114  H    0.020061
   115  H    0.013755
   116  H    0.010514
   117  H    0.029424
   118  H    0.011829
   119  H    0.025573
   120  H    0.009259
   121  H    0.019746
   122  H    0.024554
   123  H    0.020931
   124  H    0.022960
   125  H    0.016232
   126  H    0.016383
   127  H    0.018896
   128  H    0.029749
   129  H    0.016119
   130  H    0.011769
   131  H    0.021383
   132  H    0.017213
   133  H    0.023011
   134  H    0.022670
   135  H    0.011446
   136  H    0.024268
   137  H    0.024173
   138  H    0.012297
   139  H    0.026113
   140  H    0.006446
 Sum of Mulliken charges =  -0.00000

 Dipole moment (field-independent basis, Debye):
    X=              1.1135    Y=             -6.2066    Z=             -4.2412  Tot=              7.5993
 N-N= 4.376361116978D+03 E-N= 0.000000000000D+00  KE=-9.426779380857D+03
 Leave Link  601 at Wed May  4 00:23:05 2022, MaxMem=  6710886400 cpu:               0.8 elap:               0.1
 (Enter /sw/apps/gaussian-16.0/g16/l9999.exe)
 1\1\GINC-BP1-COMPUTE098\SP\RZINDO CIS\STO-3G\C55H74Mg1N4O6\OF15641\04-
 May-2022\0\\#p ZINDO=(nstates=5)\\step_1101_chromophore_8 ZINDO\\0,1\M
 g,0,45.97,2.404,47.728\C,0,43.58,4.924,47.203\C,0,43.382,0.052,47.812\
 C,0,48.238,0.045,47.69\C,0,48.383,4.821,47.181\N,0,43.841,2.521,47.624
 \C,0,43.042,3.639,47.341\C,0,41.506,3.312,47.234\C,0,41.366,1.819,47.6
 8\C,0,42.936,1.421,47.669\C,0,40.708,1.591,49.059\C,0,40.917,3.495,45.
 787\C,0,39.48,3.921,45.797\C,0,38.99,5.015,44.839\O,0,38.571,6.132,45.

 Normal termination of Gaussian 16 at Wed May  4 00:23:05 2022.
