 Gaussian 16, Revision A.03,
 Gaussian 16:  ES64L-G16RevA.03 25-Dec-2016

 ------------------------------
 #p blyp/Def2SVP td=(nstates=5)
 ------------------------------

 ------------------------------------------------
 step_1_chromophore_26 TDDFT with blyp functional
 ------------------------------------------------
 Symbolic Z-matrix:
 Charge =  0 Multiplicity = 1

                         Standard orientation:
 ---------------------------------------------------------------------
 Center     Atomic      Atomic             Coordinates (Angstroms)
 Number     Number       Type             X           Y           Z
 ---------------------------------------------------------------------
      1         12           0       -3.925370    1.430301    0.477774
      2          6           0       -4.585614   -1.959401   -0.205925
      3          6           0       -2.203491    0.330965    3.292096
      4          6           0       -2.858523    4.542439    0.995461
      5          6           0       -4.867114    2.156234   -2.782522
      6          7           0       -3.340539   -0.643807    1.299600
      7          6           0       -3.808075   -1.897639    0.957245
      8          6           0       -3.615755   -2.971603    2.007316
      9          6           0       -2.870645   -2.228309    3.141581
     10          6           0       -2.765051   -0.771635    2.582403
     11          6           0       -3.591854   -2.293849    4.548749
     12          6           0       -2.812550   -4.272216    1.556307
     13          6           0       -1.716159   -4.109103    0.490979
     14          6           0       -0.228591   -4.137879    0.951298
     15          8           0        0.178599   -3.914388    2.075681
     16          8           0        0.503983   -4.616958   -0.109104
     17          7           0       -2.734237    2.290095    1.916404
     18          6           0       -2.175519    1.696058    3.012160
     19          6           0       -1.527134    2.709998    3.855665
     20          6           0       -1.712235    3.963733    3.196425
     21          6           0       -2.467204    3.615748    1.953649
     22          6           0       -0.835533    2.392813    5.176215
     23          6           0       -1.041405    5.253605    3.800028
     24          8           0       -0.351069    5.124838    4.801481
     25          6           0       -1.191045    6.651382    3.064589
     26          7           0       -3.762436    3.039664   -0.752585
     27          6           0       -3.431393    4.303274   -0.268702
     28          6           0       -3.663784    5.438493   -1.417485
     29          6           0       -4.171691    4.509033   -2.648079
     30          6           0       -4.274904    3.161989   -2.008273
     31          6           0       -4.684960    6.531044   -0.983794
     32          6           0       -3.216887    4.482657   -3.917683
     33          6           0       -3.813851    4.770028   -5.304066
     34          7           0       -4.718119    0.371065   -1.168030
     35          6           0       -5.050254    0.762672   -2.439637
     36          6           0       -5.505122   -0.425187   -3.192655
     37          6           0       -5.435867   -1.501140   -2.267478
     38          6           0       -4.900834   -0.942640   -1.073133
     39          6           0       -5.930607   -0.493834   -4.633169
     40          6           0       -5.622690   -2.960812   -2.166032
     41          8           0       -6.114391   -3.802426   -2.932046
     42          6           0       -5.250078   -3.260708   -0.721724
     43          6           0       -6.350434   -3.734561    0.048265
     44          8           0       -7.224411   -2.956918    0.511667
     45          8           0       -6.289622   -5.130215    0.232115
     46          6           0       -7.253818   -5.750976    1.134753
     47          6           0        1.957538   -4.717879    0.174465
     48          6           0        2.602737   -3.458725   -0.193997
     49          6           0        2.971347   -2.990436   -1.427866
     50          6           0        2.666432   -3.769254   -2.761776
     51          6           0        3.837918   -1.712763   -1.644748
     52          6           0        3.568139   -0.680829   -2.819613
     53          6           0        4.933029    0.086050   -3.206062
     54          6           0        5.400956    1.103858   -2.087593
     55          6           0        5.806579    2.536088   -2.518438
     56          6           0        6.608342    0.413192   -1.390787
     57          6           0        7.032972    0.923784   -0.081345
     58          6           0        7.352747   -0.168982    0.995439
     59          6           0        8.843747   -0.232531    1.576770
     60          6           0        8.798735   -0.870713    3.041138
     61          6           0        9.868742   -0.906791    0.568909
     62          6           0       10.906517    0.033428   -0.074054
     63          6           0       12.289562   -0.574863    0.058839
     64          6           0       13.162664   -0.032632   -1.125538
     65          6           0       14.364363   -0.881118   -1.188307
     66          6           0       13.624180    1.439129   -0.756493
     67          1           0       -1.800463    0.066699    4.271655
     68          1           0       -2.664819    5.595926    1.205835
     69          1           0       -5.199172    2.477706   -3.771439
     70          1           0       -4.641037   -3.237489    2.261812
     71          1           0       -1.847296   -2.600491    3.109484
     72          1           0       -3.004159   -2.910490    5.228743
     73          1           0       -4.570864   -2.735977    4.361982
     74          1           0       -3.686672   -1.303053    4.994326
     75          1           0       -3.611669   -4.867138    1.112249
     76          1           0       -2.438946   -4.785031    2.442911
     77          1           0       -1.859953   -3.184639   -0.069284
     78          1           0       -1.860728   -4.882167   -0.262565
     79          1           0        0.253424    2.379152    5.130009
     80          1           0       -1.297484    1.534619    5.664437
     81          1           0       -1.082773    3.139953    5.930170
     82          1           0       -2.248678    6.770391    2.828104
     83          1           0       -0.579008    6.611179    2.163929
     84          1           0       -0.701435    7.477974    3.579495
     85          1           0       -2.715392    5.967284   -1.507743
     86          1           0       -5.178271    4.842812   -2.901067
     87          1           0       -5.660842    6.235087   -1.368150
     88          1           0       -4.381152    7.535497   -1.278765
     89          1           0       -4.765817    6.662095    0.095148
     90          1           0       -2.710741    3.516860   -3.904150
     91          1           0       -2.519576    5.284666   -3.675557
     92          1           0       -3.181114    4.394110   -6.108544
     93          1           0       -3.857769    5.858868   -5.313701
     94          1           0       -4.782669    4.270494   -5.284127
     95          1           0       -5.405889    0.338097   -5.102143
     96          1           0       -6.989886   -0.244266   -4.572251
     97          1           0       -5.826521   -1.471739   -5.104161
     98          1           0       -4.490808   -4.031258   -0.853545
     99          1           0       -8.304921   -5.713787    0.848450
    100          1           0       -7.167040   -5.313028    2.129556
    101          1           0       -6.889257   -6.760810    1.323696
    102          1           0        2.428419   -5.507360   -0.411641
    103          1           0        2.065153   -4.945131    1.234886
    104          1           0        2.925512   -2.822272    0.630754
    105          1           0        2.028794   -3.346770   -3.538545
    106          1           0        2.133925   -4.657377   -2.420973
    107          1           0        3.657603   -3.970382   -3.167714
    108          1           0        4.856930   -2.097718   -1.673377
    109          1           0        3.829168   -1.131732   -0.723091
    110          1           0        2.876786    0.005104   -2.330933
    111          1           0        3.155895   -1.118775   -3.728976
    112          1           0        4.800512    0.690381   -4.103717
    113          1           0        5.698254   -0.618661   -3.531391
    114          1           0        4.720652    1.196668   -1.240311
    115          1           0        6.882110    2.707975   -2.477049
    116          1           0        5.242434    3.206118   -1.869855
    117          1           0        5.688563    2.791671   -3.571431
    118          1           0        7.367153    0.697570   -2.120599
    119          1           0        6.422950   -0.661012   -1.426897
    120          1           0        6.168309    1.447617    0.326528
    121          1           0        7.948839    1.508870   -0.167858
    122          1           0        7.090546   -1.119209    0.529008
    123          1           0        6.652678   -0.005074    1.814874
    124          1           0        9.270972    0.747073    1.788913
    125          1           0        9.517823   -1.684704    3.139636
    126          1           0        7.790073   -1.158999    3.337432
    127          1           0        8.942090   -0.094068    3.792516
    128          1           0        9.326131   -1.258104   -0.309275
    129          1           0       10.272206   -1.805613    1.037150
    130          1           0       10.880061    0.959922    0.498719
    131          1           0       10.549096    0.333415   -1.059352
    132          1           0       12.154391   -1.653131   -0.026884
    133          1           0       12.854306   -0.414724    0.975972
    134          1           0       12.675521   -0.033257   -2.100298
    135          1           0       14.825135   -0.925332   -0.200892
    136          1           0       15.149118   -0.470154   -1.823132
    137          1           0       14.119610   -1.896276   -1.500984
    138          1           0       12.907124    1.768206   -0.004788
    139          1           0       13.570811    2.121665   -1.604784
    140          1           0       14.591327    1.509167   -0.258428
 ---------------------------------------------------------------------

 SCF Done:  E(RB-LYP) =  -3007.37792804     A.U. after   21 cycles

 Excitation energies and oscillator strengths:

 Excited State   1:      Singlet-A      1.8122 eV  684.16 nm  f=0.2960  <S**2>=0.000
     245 -> 248        0.18770
     246 -> 247        0.68946
     246 <- 247       -0.14581
 This state for optimization and/or second-order correction.
 Total Energy, E(TD-HF/TD-DFT) =  -3007.31133067
 Copying the excited state density for this state as the 1-particle RhoCI density.

 Excited State   2:      Singlet-A      2.0617 eV  601.37 nm  f=0.0517  <S**2>=0.000
     243 -> 247       -0.21810
     245 -> 247        0.60904
     246 -> 248       -0.24453

 Excited State   3:      Singlet-A      2.1596 eV  574.10 nm  f=0.0001  <S**2>=0.000
     243 -> 247       -0.23249
     244 -> 247        0.66681

 Excited State   4:      Singlet-A      2.1925 eV  565.48 nm  f=0.0080  <S**2>=0.000
     243 -> 247        0.62669
     244 -> 247        0.21885
     245 -> 247        0.18520
     246 -> 248       -0.13749

 Excited State   5:      Singlet-A      2.6042 eV  476.10 nm  f=0.0003  <S**2>=0.000
     240 -> 247        0.37123
     241 -> 247        0.60124

 The electronic state is 1-A.
 Alpha  occ. eigenvalues --  -46.27235 -18.82591 -18.82233 -18.77871 -18.76856
 Alpha  occ. eigenvalues --  -18.76196 -18.75896 -14.03302 -14.03244 -14.01231
 Alpha  occ. eigenvalues --  -14.00849 -10.04651 -10.04167 -10.00991  -9.99860
 Alpha  occ. eigenvalues --   -9.97957  -9.97680  -9.96993  -9.96476  -9.96259
 Alpha  occ. eigenvalues --   -9.96113  -9.96039  -9.95828  -9.95260  -9.95078
 Alpha  occ. eigenvalues --   -9.94309  -9.94275  -9.94087  -9.93986  -9.93660
 Alpha  occ. eigenvalues --   -9.93647  -9.93563  -9.93423  -9.93335  -9.93258
 Alpha  occ. eigenvalues --   -9.93218  -9.92858  -9.92853  -9.92831  -9.92801
 Alpha  occ. eigenvalues --   -9.92761  -9.92683  -9.92607  -9.92598  -9.92562
 Alpha  occ. eigenvalues --   -9.92492  -9.92482  -9.92395  -9.92249  -9.92243
 Alpha  occ. eigenvalues --   -9.92184  -9.92146  -9.91664  -9.91597  -9.91360
 Alpha  occ. eigenvalues --   -9.91115  -9.91106  -9.91090  -9.91029  -9.90898
 Alpha  occ. eigenvalues --   -9.90796  -9.90718  -9.90668  -9.90569  -9.90160
 Alpha  occ. eigenvalues --   -9.89944  -2.91957  -1.72341  -1.71859  -1.71674
 Alpha  occ. eigenvalues --   -0.97946  -0.96280  -0.91817  -0.90690  -0.90586
 Alpha  occ. eigenvalues --   -0.88840  -0.86404  -0.85732  -0.84888  -0.84116
 Alpha  occ. eigenvalues --   -0.75824  -0.73224  -0.72710  -0.72460  -0.72378
 Alpha  occ. eigenvalues --   -0.71938  -0.71265  -0.70153  -0.70080  -0.69535
 Alpha  occ. eigenvalues --   -0.68903  -0.68686  -0.68030  -0.67694  -0.67264
 Alpha  occ. eigenvalues --   -0.66499  -0.65807  -0.64908  -0.64828  -0.64280
 Alpha  occ. eigenvalues --   -0.63788  -0.62554  -0.62055  -0.61211  -0.60930
 Alpha  occ. eigenvalues --   -0.60427  -0.59756  -0.59540  -0.59086  -0.58754
 Alpha  occ. eigenvalues --   -0.58175  -0.57213  -0.56665  -0.55728  -0.54329
 Alpha  occ. eigenvalues --   -0.53916  -0.53778  -0.52383  -0.52171  -0.51630
 Alpha  occ. eigenvalues --   -0.51008  -0.50816  -0.50442  -0.50281  -0.49628
 Alpha  occ. eigenvalues --   -0.49376  -0.49214  -0.48904  -0.48603  -0.46430
 Alpha  occ. eigenvalues --   -0.45902  -0.45639  -0.45385  -0.45021  -0.44781
 Alpha  occ. eigenvalues --   -0.43838  -0.43440  -0.42914  -0.42472  -0.42190
 Alpha  occ. eigenvalues --   -0.41851  -0.41523  -0.41458  -0.41288  -0.41144
 Alpha  occ. eigenvalues --   -0.40963  -0.40750  -0.40462  -0.40322  -0.39968
 Alpha  occ. eigenvalues --   -0.39787  -0.39495  -0.39367  -0.39298  -0.38846
 Alpha  occ. eigenvalues --   -0.38532  -0.38307  -0.38215  -0.38110  -0.37966
 Alpha  occ. eigenvalues --   -0.37810  -0.37727  -0.37310  -0.37178  -0.36977
 Alpha  occ. eigenvalues --   -0.36946  -0.36612  -0.36439  -0.36232  -0.36218
 Alpha  occ. eigenvalues --   -0.36064  -0.35979  -0.35697  -0.35625  -0.35536
 Alpha  occ. eigenvalues --   -0.35310  -0.35187  -0.34861  -0.34684  -0.34602
 Alpha  occ. eigenvalues --   -0.34406  -0.34327  -0.34170  -0.34070  -0.33897
 Alpha  occ. eigenvalues --   -0.33752  -0.33426  -0.33234  -0.33092  -0.33010
 Alpha  occ. eigenvalues --   -0.32859  -0.32793  -0.32697  -0.32409  -0.32287
 Alpha  occ. eigenvalues --   -0.32198  -0.31731  -0.31533  -0.31266  -0.31213
 Alpha  occ. eigenvalues --   -0.31044  -0.30998  -0.30812  -0.30629  -0.30472
 Alpha  occ. eigenvalues --   -0.30240  -0.30188  -0.29863  -0.29815  -0.29717
 Alpha  occ. eigenvalues --   -0.29556  -0.29422  -0.29329  -0.28958  -0.28915
 Alpha  occ. eigenvalues --   -0.28888  -0.28686  -0.28328  -0.28082  -0.27862
 Alpha  occ. eigenvalues --   -0.27674  -0.27391  -0.27144  -0.26625  -0.26373
 Alpha  occ. eigenvalues --   -0.26079  -0.25973  -0.25924  -0.25831  -0.25549
 Alpha  occ. eigenvalues --   -0.25137  -0.25096  -0.24096  -0.23741  -0.23665
 Alpha  occ. eigenvalues --   -0.23322  -0.23034  -0.21852  -0.21637  -0.20702
 Alpha  occ. eigenvalues --   -0.20662  -0.20337  -0.18973  -0.18965  -0.17166
 Alpha  occ. eigenvalues --   -0.15439
 Alpha virt. eigenvalues --   -0.11104  -0.06817  -0.06162  -0.04800  -0.03886
 Alpha virt. eigenvalues --   -0.03264  -0.03237  -0.02568  -0.01656   0.00290
 Alpha virt. eigenvalues --    0.00920   0.02134   0.02565   0.02660   0.03020

 Mulliken charges:
               1
     1  Mg   0.719540
     2  C   -0.077451
     3  C   -0.066503
     4  C   -0.073130
     5  C   -0.083894
     6  N   -0.219540
     7  C   -0.123276
     8  C    0.021290
     9  C    0.051784
    10  C   -0.020502
    11  C    0.130098
    12  C    0.118162
    13  C    0.078870
    14  C    0.102290
    15  O   -0.179252
    16  O   -0.275419
    17  N   -0.272026
    18  C    0.135349
    19  C   -0.135672
    20  C   -0.014316
    21  C    0.155726
    22  C    0.201005
    23  C   -0.049189
    24  O   -0.156803
    25  C    0.111686
    26  N   -0.269735
    27  C    0.032530
    28  C   -0.009048
    29  C    0.032290
    30  C    0.039239
    31  C    0.112557
    32  C    0.076140
    33  C    0.075670
    34  N   -0.229011
    35  C    0.107383
    36  C   -0.198701
    37  C    0.017979
    38  C    0.194595
    39  C    0.186939
    40  C   -0.031858
    41  O   -0.143597
    42  C    0.092846
    43  C    0.161106
    44  O   -0.215624
    45  O   -0.287091
    46  C    0.233709
    47  C    0.353306
    48  C   -0.122961
    49  C   -0.126586
    50  C    0.107670
    51  C    0.066831
    52  C    0.087063
    53  C    0.105768
    54  C   -0.102066
    55  C    0.122278
    56  C    0.038921
    57  C    0.134241
    58  C    0.076038
    59  C   -0.076433
    60  C    0.090143
    61  C    0.102416
    62  C    0.083949
    63  C    0.070615
    64  C   -0.083116
    65  C    0.134970
    66  C    0.094874
    67  H   -0.066380
    68  H   -0.093081
    69  H   -0.074955
    70  H   -0.009604
    71  H   -0.004424
    72  H   -0.000427
    73  H   -0.008306
    74  H   -0.000749
    75  H   -0.023610
    76  H   -0.008818
    77  H    0.019529
    78  H    0.003583
    79  H    0.011138
    80  H   -0.023226
    81  H   -0.010055
    82  H    0.032416
    83  H    0.010060
    84  H   -0.009998
    85  H   -0.015459
    86  H   -0.024090
    87  H   -0.007810
    88  H   -0.009540
    89  H   -0.013411
    90  H   -0.006232
    91  H   -0.027314
    92  H    0.003544
    93  H   -0.001995
    94  H    0.001788
    95  H   -0.009159
    96  H    0.005471
    97  H    0.016218
    98  H   -0.011005
    99  H    0.027135
   100  H   -0.005133
   101  H    0.009411
   102  H    0.003012
   103  H   -0.009074
   104  H   -0.033191
   105  H    0.016370
   106  H   -0.012051
   107  H   -0.000250
   108  H    0.003525
   109  H   -0.023075
   110  H   -0.011416
   111  H   -0.015876
   112  H   -0.047044
   113  H   -0.027902
   114  H   -0.032947
   115  H   -0.023831
   116  H   -0.002338
   117  H   -0.024237
   118  H   -0.042540
   119  H   -0.028253
   120  H   -0.040838
   121  H   -0.025908
   122  H   -0.034000
   123  H   -0.035856
   124  H   -0.032698
   125  H   -0.009941
   126  H   -0.023356
   127  H   -0.022242
   128  H   -0.036679
   129  H   -0.029966
   130  H   -0.028721
   131  H   -0.022699
   132  H   -0.031407
   133  H   -0.025090
   134  H   -0.033226
   135  H   -0.033031
   136  H   -0.029510
   137  H   -0.025051
   138  H   -0.029789
   139  H   -0.011621
   140  H   -0.017830
 Sum of Mulliken charges =  -0.00000

 Dipole moment (field-independent basis, Debye):
    X=              1.2858    Y=              1.9689    Z=             -1.5586  Tot=              2.8212
 Quadrupole moment (field-independent basis, Debye-Ang):
   XX=           -418.4740   YY=           -383.6270   ZZ=           -411.6870
   XY=            -20.5125   XZ=            -20.5682   YZ=            -31.8762

 Normal termination of Gaussian 16 at Wed May  4 16:56:20 2022.
