 Gaussian 16, Revision A.03,
 Gaussian 16:  ES64L-G16RevA.03 25-Dec-2016

 -----------------------------------
 #p cam-b3lyp/Def2SVP td=(nstates=5)
 -----------------------------------

 -----------------------------------------------------
 step_1_chromophore_26 TDDFT with cam-b3lyp functional
 -----------------------------------------------------
 Symbolic Z-matrix:
 Charge =  0 Multiplicity = 1

                         Standard orientation:
 ---------------------------------------------------------------------
 Center     Atomic      Atomic             Coordinates (Angstroms)
 Number     Number       Type             X           Y           Z
 ---------------------------------------------------------------------
      1         12           0       -3.925370    1.430301    0.477774
      2          6           0       -4.585614   -1.959401   -0.205925
      3          6           0       -2.203491    0.330965    3.292096
      4          6           0       -2.858523    4.542439    0.995461
      5          6           0       -4.867114    2.156234   -2.782522
      6          7           0       -3.340539   -0.643807    1.299600
      7          6           0       -3.808075   -1.897639    0.957245
      8          6           0       -3.615755   -2.971603    2.007316
      9          6           0       -2.870645   -2.228309    3.141581
     10          6           0       -2.765051   -0.771635    2.582403
     11          6           0       -3.591854   -2.293849    4.548749
     12          6           0       -2.812550   -4.272216    1.556307
     13          6           0       -1.716159   -4.109103    0.490979
     14          6           0       -0.228591   -4.137879    0.951298
     15          8           0        0.178599   -3.914388    2.075681
     16          8           0        0.503983   -4.616958   -0.109104
     17          7           0       -2.734237    2.290095    1.916404
     18          6           0       -2.175519    1.696058    3.012160
     19          6           0       -1.527134    2.709998    3.855665
     20          6           0       -1.712235    3.963733    3.196425
     21          6           0       -2.467204    3.615748    1.953649
     22          6           0       -0.835533    2.392813    5.176215
     23          6           0       -1.041405    5.253605    3.800028
     24          8           0       -0.351069    5.124838    4.801481
     25          6           0       -1.191045    6.651382    3.064589
     26          7           0       -3.762436    3.039664   -0.752585
     27          6           0       -3.431393    4.303274   -0.268702
     28          6           0       -3.663784    5.438493   -1.417485
     29          6           0       -4.171691    4.509033   -2.648079
     30          6           0       -4.274904    3.161989   -2.008273
     31          6           0       -4.684960    6.531044   -0.983794
     32          6           0       -3.216887    4.482657   -3.917683
     33          6           0       -3.813851    4.770028   -5.304066
     34          7           0       -4.718119    0.371065   -1.168030
     35          6           0       -5.050254    0.762672   -2.439637
     36          6           0       -5.505122   -0.425187   -3.192655
     37          6           0       -5.435867   -1.501140   -2.267478
     38          6           0       -4.900834   -0.942640   -1.073133
     39          6           0       -5.930607   -0.493834   -4.633169
     40          6           0       -5.622690   -2.960812   -2.166032
     41          8           0       -6.114391   -3.802426   -2.932046
     42          6           0       -5.250078   -3.260708   -0.721724
     43          6           0       -6.350434   -3.734561    0.048265
     44          8           0       -7.224411   -2.956918    0.511667
     45          8           0       -6.289622   -5.130215    0.232115
     46          6           0       -7.253818   -5.750976    1.134753
     47          6           0        1.957538   -4.717879    0.174465
     48          6           0        2.602737   -3.458725   -0.193997
     49          6           0        2.971347   -2.990436   -1.427866
     50          6           0        2.666432   -3.769254   -2.761776
     51          6           0        3.837918   -1.712763   -1.644748
     52          6           0        3.568139   -0.680829   -2.819613
     53          6           0        4.933029    0.086050   -3.206062
     54          6           0        5.400956    1.103858   -2.087593
     55          6           0        5.806579    2.536088   -2.518438
     56          6           0        6.608342    0.413192   -1.390787
     57          6           0        7.032972    0.923784   -0.081345
     58          6           0        7.352747   -0.168982    0.995439
     59          6           0        8.843747   -0.232531    1.576770
     60          6           0        8.798735   -0.870713    3.041138
     61          6           0        9.868742   -0.906791    0.568909
     62          6           0       10.906517    0.033428   -0.074054
     63          6           0       12.289562   -0.574863    0.058839
     64          6           0       13.162664   -0.032632   -1.125538
     65          6           0       14.364363   -0.881118   -1.188307
     66          6           0       13.624180    1.439129   -0.756493
     67          1           0       -1.800463    0.066699    4.271655
     68          1           0       -2.664819    5.595926    1.205835
     69          1           0       -5.199172    2.477706   -3.771439
     70          1           0       -4.641037   -3.237489    2.261812
     71          1           0       -1.847296   -2.600491    3.109484
     72          1           0       -3.004159   -2.910490    5.228743
     73          1           0       -4.570864   -2.735977    4.361982
     74          1           0       -3.686672   -1.303053    4.994326
     75          1           0       -3.611669   -4.867138    1.112249
     76          1           0       -2.438946   -4.785031    2.442911
     77          1           0       -1.859953   -3.184639   -0.069284
     78          1           0       -1.860728   -4.882167   -0.262565
     79          1           0        0.253424    2.379152    5.130009
     80          1           0       -1.297484    1.534619    5.664437
     81          1           0       -1.082773    3.139953    5.930170
     82          1           0       -2.248678    6.770391    2.828104
     83          1           0       -0.579008    6.611179    2.163929
     84          1           0       -0.701435    7.477974    3.579495
     85          1           0       -2.715392    5.967284   -1.507743
     86          1           0       -5.178271    4.842812   -2.901067
     87          1           0       -5.660842    6.235087   -1.368150
     88          1           0       -4.381152    7.535497   -1.278765
     89          1           0       -4.765817    6.662095    0.095148
     90          1           0       -2.710741    3.516860   -3.904150
     91          1           0       -2.519576    5.284666   -3.675557
     92          1           0       -3.181114    4.394110   -6.108544
     93          1           0       -3.857769    5.858868   -5.313701
     94          1           0       -4.782669    4.270494   -5.284127
     95          1           0       -5.405889    0.338097   -5.102143
     96          1           0       -6.989886   -0.244266   -4.572251
     97          1           0       -5.826521   -1.471739   -5.104161
     98          1           0       -4.490808   -4.031258   -0.853545
     99          1           0       -8.304921   -5.713787    0.848450
    100          1           0       -7.167040   -5.313028    2.129556
    101          1           0       -6.889257   -6.760810    1.323696
    102          1           0        2.428419   -5.507360   -0.411641
    103          1           0        2.065153   -4.945131    1.234886
    104          1           0        2.925512   -2.822272    0.630754
    105          1           0        2.028794   -3.346770   -3.538545
    106          1           0        2.133925   -4.657377   -2.420973
    107          1           0        3.657603   -3.970382   -3.167714
    108          1           0        4.856930   -2.097718   -1.673377
    109          1           0        3.829168   -1.131732   -0.723091
    110          1           0        2.876786    0.005104   -2.330933
    111          1           0        3.155895   -1.118775   -3.728976
    112          1           0        4.800512    0.690381   -4.103717
    113          1           0        5.698254   -0.618661   -3.531391
    114          1           0        4.720652    1.196668   -1.240311
    115          1           0        6.882110    2.707975   -2.477049
    116          1           0        5.242434    3.206118   -1.869855
    117          1           0        5.688563    2.791671   -3.571431
    118          1           0        7.367153    0.697570   -2.120599
    119          1           0        6.422950   -0.661012   -1.426897
    120          1           0        6.168309    1.447617    0.326528
    121          1           0        7.948839    1.508870   -0.167858
    122          1           0        7.090546   -1.119209    0.529008
    123          1           0        6.652678   -0.005074    1.814874
    124          1           0        9.270972    0.747073    1.788913
    125          1           0        9.517823   -1.684704    3.139636
    126          1           0        7.790073   -1.158999    3.337432
    127          1           0        8.942090   -0.094068    3.792516
    128          1           0        9.326131   -1.258104   -0.309275
    129          1           0       10.272206   -1.805613    1.037150
    130          1           0       10.880061    0.959922    0.498719
    131          1           0       10.549096    0.333415   -1.059352
    132          1           0       12.154391   -1.653131   -0.026884
    133          1           0       12.854306   -0.414724    0.975972
    134          1           0       12.675521   -0.033257   -2.100298
    135          1           0       14.825135   -0.925332   -0.200892
    136          1           0       15.149118   -0.470154   -1.823132
    137          1           0       14.119610   -1.896276   -1.500984
    138          1           0       12.907124    1.768206   -0.004788
    139          1           0       13.570811    2.121665   -1.604784
    140          1           0       14.591327    1.509167   -0.258428
 ---------------------------------------------------------------------

 SCF Done:  E(RCAM-B3LYP) =  -3007.15525344     A.U. after   17 cycles

 Excitation energies and oscillator strengths:

 Excited State   1:      Singlet-A      1.7156 eV  722.69 nm  f=0.3600  <S**2>=0.000
     245 -> 248       -0.17996
     246 -> 247        0.68533
     245 <- 248       -0.10731
 This state for optimization and/or second-order correction.
 Total Energy, E(TD-HF/TD-DFT) =  -3007.09220623
 Copying the excited state density for this state as the 1-particle RhoCI density.

 Excited State   2:      Singlet-A      2.3115 eV  536.38 nm  f=0.0684  <S**2>=0.000
     245 -> 247        0.61640
     246 -> 248        0.33508

 Excited State   3:      Singlet-A      3.4905 eV  355.20 nm  f=0.5479  <S**2>=0.000
     241 -> 247        0.12330
     244 -> 247       -0.19415
     245 -> 247       -0.29326
     246 -> 248        0.57217
     246 -> 250       -0.13716
     245 <- 247        0.10024

 Excited State   4:      Singlet-A      3.5927 eV  345.10 nm  f=0.0463  <S**2>=0.000
     243 -> 247       -0.34978
     244 -> 247        0.57487
     246 -> 248        0.11577

 Excited State   5:      Singlet-A      3.6471 eV  339.96 nm  f=0.0073  <S**2>=0.000
     240 -> 247        0.35396
     240 -> 249        0.25527
     240 -> 251        0.12956
     241 -> 247        0.31998
     241 -> 249        0.24259
     243 -> 247        0.20232
     244 -> 247        0.14309

 The electronic state is 1-A.
 Alpha  occ. eigenvalues --  -46.88780 -19.25673 -19.25050 -19.20789 -19.20105
 Alpha  occ. eigenvalues --  -19.19525 -19.19060 -14.42442 -14.41949 -14.39816
 Alpha  occ. eigenvalues --  -14.39171 -10.39947 -10.39897 -10.36406 -10.35219
 Alpha  occ. eigenvalues --  -10.31997 -10.31779 -10.31765 -10.31120 -10.30834
 Alpha  occ. eigenvalues --  -10.30490 -10.30377 -10.29912 -10.29703 -10.29219
 Alpha  occ. eigenvalues --  -10.28519 -10.28258 -10.28220 -10.28140 -10.28042
 Alpha  occ. eigenvalues --  -10.27864 -10.27708 -10.27638 -10.27589 -10.27509
 Alpha  occ. eigenvalues --  -10.27360 -10.27211 -10.27073 -10.26920 -10.26606
 Alpha  occ. eigenvalues --  -10.26583 -10.26519 -10.26516 -10.26514 -10.26358
 Alpha  occ. eigenvalues --  -10.26274 -10.26072 -10.26035 -10.26021 -10.25925
 Alpha  occ. eigenvalues --  -10.25882 -10.25758 -10.25485 -10.25287 -10.25269
 Alpha  occ. eigenvalues --  -10.25015 -10.24831 -10.24745 -10.24691 -10.24531
 Alpha  occ. eigenvalues --  -10.24466 -10.24348 -10.24274 -10.24169 -10.23764
 Alpha  occ. eigenvalues --  -10.23496  -3.17406  -1.92264  -1.91877  -1.91711
 Alpha  occ. eigenvalues --   -1.16360  -1.14848  -1.10326  -1.08929  -1.08490
 Alpha  occ. eigenvalues --   -1.06894  -1.03994  -1.03413  -1.02463  -1.01685
 Alpha  occ. eigenvalues --   -0.92987  -0.90040  -0.89477  -0.89203  -0.89054
 Alpha  occ. eigenvalues --   -0.88644  -0.87921  -0.86694  -0.86623  -0.85951
 Alpha  occ. eigenvalues --   -0.85431  -0.85172  -0.84291  -0.83869  -0.83412
 Alpha  occ. eigenvalues --   -0.82542  -0.81838  -0.80966  -0.80772  -0.80186
 Alpha  occ. eigenvalues --   -0.79510  -0.78063  -0.77629  -0.76854  -0.76408
 Alpha  occ. eigenvalues --   -0.75737  -0.75093  -0.74805  -0.74325  -0.73961
 Alpha  occ. eigenvalues --   -0.73229  -0.72155  -0.71586  -0.70550  -0.68854
 Alpha  occ. eigenvalues --   -0.68475  -0.68312  -0.66894  -0.66584  -0.65701
 Alpha  occ. eigenvalues --   -0.65150  -0.64919  -0.64500  -0.64291  -0.63629
 Alpha  occ. eigenvalues --   -0.63234  -0.63122  -0.62831  -0.62308  -0.60117
 Alpha  occ. eigenvalues --   -0.59580  -0.59096  -0.58914  -0.58450  -0.58204
 Alpha  occ. eigenvalues --   -0.57201  -0.56852  -0.56179  -0.55762  -0.55367
 Alpha  occ. eigenvalues --   -0.54894  -0.54366  -0.54286  -0.54185  -0.53970
 Alpha  occ. eigenvalues --   -0.53883  -0.53705  -0.53490  -0.52976  -0.52540
 Alpha  occ. eigenvalues --   -0.52271  -0.52212  -0.52121  -0.51888  -0.51292
 Alpha  occ. eigenvalues --   -0.51100  -0.50875  -0.50808  -0.50591  -0.50456
 Alpha  occ. eigenvalues --   -0.50171  -0.50021  -0.49828  -0.49371  -0.49251
 Alpha  occ. eigenvalues --   -0.49202  -0.49010  -0.48938  -0.48877  -0.48448
 Alpha  occ. eigenvalues --   -0.48277  -0.48252  -0.48028  -0.47631  -0.47501
 Alpha  occ. eigenvalues --   -0.47373  -0.47226  -0.47042  -0.46546  -0.46420
 Alpha  occ. eigenvalues --   -0.46297  -0.46139  -0.46033  -0.45875  -0.45682
 Alpha  occ. eigenvalues --   -0.45570  -0.45064  -0.45001  -0.44809  -0.44785
 Alpha  occ. eigenvalues --   -0.44528  -0.44469  -0.44378  -0.44187  -0.44033
 Alpha  occ. eigenvalues --   -0.43844  -0.43644  -0.42894  -0.42877  -0.42753
 Alpha  occ. eigenvalues --   -0.42559  -0.42532  -0.42405  -0.42177  -0.42088
 Alpha  occ. eigenvalues --   -0.41900  -0.41433  -0.41361  -0.41127  -0.40917
 Alpha  occ. eigenvalues --   -0.40876  -0.40773  -0.40438  -0.40065  -0.39847
 Alpha  occ. eigenvalues --   -0.39780  -0.39708  -0.39531  -0.39122  -0.38868
 Alpha  occ. eigenvalues --   -0.38488  -0.38391  -0.37969  -0.37457  -0.37388
 Alpha  occ. eigenvalues --   -0.37003  -0.36916  -0.36736  -0.36632  -0.36570
 Alpha  occ. eigenvalues --   -0.36397  -0.35740  -0.34943  -0.34563  -0.34480
 Alpha  occ. eigenvalues --   -0.34261  -0.33647  -0.33044  -0.31291  -0.31062
 Alpha  occ. eigenvalues --   -0.30818  -0.30231  -0.30131  -0.29456  -0.23992
 Alpha  occ. eigenvalues --   -0.20661
 Alpha virt. eigenvalues --   -0.08027  -0.01651   0.00403   0.01795   0.02202
 Alpha virt. eigenvalues --    0.03602   0.04197   0.05206   0.05798   0.07346
 Alpha virt. eigenvalues --    0.07630   0.08710   0.08795   0.08920   0.09330

 Mulliken charges:
               1
     1  Mg   0.850449
     2  C   -0.100613
     3  C   -0.076921
     4  C   -0.100206
     5  C   -0.089483
     6  N   -0.279152
     7  C   -0.087627
     8  C   -0.023640
     9  C   -0.007522
    10  C   -0.000468
    11  C    0.072470
    12  C    0.066618
    13  C    0.007736
    14  C    0.187019
    15  O   -0.223696
    16  O   -0.339396
    17  N   -0.362266
    18  C    0.139943
    19  C   -0.140510
    20  C   -0.078881
    21  C    0.187635
    22  C    0.143550
    23  C    0.026220
    24  O   -0.197108
    25  C    0.035520
    26  N   -0.347530
    27  C    0.056015
    28  C   -0.054332
    29  C   -0.028075
    30  C    0.060597
    31  C    0.055339
    32  C    0.021710
    33  C    0.018602
    34  N   -0.317541
    35  C    0.106474
    36  C   -0.196278
    37  C   -0.058397
    38  C    0.233018
    39  C    0.136002
    40  C    0.071222
    41  O   -0.182992
    42  C    0.006548
    43  C    0.252654
    44  O   -0.249795
    45  O   -0.351503
    46  C    0.192973
    47  C    0.304346
    48  C   -0.147468
    49  C   -0.137455
    50  C    0.051685
    51  C    0.013163
    52  C    0.031716
    53  C    0.051133
    54  C   -0.153996
    55  C    0.060880
    56  C   -0.005959
    57  C    0.074408
    58  C    0.029451
    59  C   -0.132529
    60  C    0.034365
    61  C    0.049083
    62  C    0.033434
    63  C    0.012532
    64  C   -0.144732
    65  C    0.072032
    66  C    0.035967
    67  H   -0.029216
    68  H   -0.058557
    69  H   -0.041992
    70  H    0.021596
    71  H    0.032273
    72  H    0.024166
    73  H    0.015933
    74  H    0.023438
    75  H    0.006257
    76  H    0.023468
    77  H    0.051185
    78  H    0.038084
    79  H    0.040434
    80  H    0.002920
    81  H    0.020336
    82  H    0.054777
    83  H    0.038103
    84  H    0.025716
    85  H    0.017777
    86  H    0.011470
    87  H    0.016613
    88  H    0.015595
    89  H    0.011127
    90  H    0.023716
    91  H   -0.000370
    92  H    0.027677
    93  H    0.019461
    94  H    0.019177
    95  H    0.012978
    96  H    0.031107
    97  H    0.042096
    98  H    0.032982
    99  H    0.050570
   100  H    0.017281
   101  H    0.033516
   102  H    0.032034
   103  H    0.028498
   104  H   -0.000388
   105  H    0.039888
   106  H    0.012185
   107  H    0.022022
   108  H    0.027723
   109  H    0.003554
   110  H    0.017315
   111  H    0.011554
   112  H   -0.015884
   113  H    0.001506
   114  H   -0.004319
   115  H    0.000480
   116  H    0.021376
   117  H    0.001236
   118  H   -0.015853
   119  H   -0.004859
   120  H   -0.011508
   121  H    0.000861
   122  H   -0.007201
   123  H   -0.006900
   124  H   -0.001631
   125  H    0.012881
   126  H    0.001038
   127  H    0.002040
   128  H   -0.007909
   129  H   -0.002038
   130  H   -0.003359
   131  H    0.004620
   132  H   -0.002449
   133  H    0.003882
   134  H   -0.001357
   135  H   -0.009535
   136  H   -0.002381
   137  H    0.000907
   138  H   -0.006235
   139  H    0.013020
   140  H    0.007054
 Sum of Mulliken charges =  -0.00000

 Dipole moment (field-independent basis, Debye):
    X=              1.4720    Y=              2.2937    Z=             -1.0222  Tot=              2.9108
 Quadrupole moment (field-independent basis, Debye-Ang):
   XX=           -419.6897   YY=           -378.1306   ZZ=           -410.1808
   XY=            -20.6289   XZ=            -22.7038   YZ=            -32.0435

 Normal termination of Gaussian 16 at Wed May  4 15:36:10 2022.
