 Gaussian 16, Revision A.03,
 Gaussian 16:  ES64L-G16RevA.03 25-Dec-2016

 ---------------------------------
 #p PBE1PBE/Def2SVP td=(nstates=5)
 ---------------------------------

 ---------------------------------------------------
 step_1_chromophore_26 TDDFT with PBE1PBE functional
 ---------------------------------------------------
 Symbolic Z-matrix:
 Charge =  0 Multiplicity = 1

                         Standard orientation:
 ---------------------------------------------------------------------
 Center     Atomic      Atomic             Coordinates (Angstroms)
 Number     Number       Type             X           Y           Z
 ---------------------------------------------------------------------
      1         12           0       -3.925370    1.430301    0.477774
      2          6           0       -4.585614   -1.959401   -0.205925
      3          6           0       -2.203491    0.330965    3.292096
      4          6           0       -2.858523    4.542439    0.995461
      5          6           0       -4.867114    2.156234   -2.782522
      6          7           0       -3.340539   -0.643807    1.299600
      7          6           0       -3.808075   -1.897639    0.957245
      8          6           0       -3.615755   -2.971603    2.007316
      9          6           0       -2.870645   -2.228309    3.141581
     10          6           0       -2.765051   -0.771635    2.582403
     11          6           0       -3.591854   -2.293849    4.548749
     12          6           0       -2.812550   -4.272216    1.556307
     13          6           0       -1.716159   -4.109103    0.490979
     14          6           0       -0.228591   -4.137879    0.951298
     15          8           0        0.178599   -3.914388    2.075681
     16          8           0        0.503983   -4.616958   -0.109104
     17          7           0       -2.734237    2.290095    1.916404
     18          6           0       -2.175519    1.696058    3.012160
     19          6           0       -1.527134    2.709998    3.855665
     20          6           0       -1.712235    3.963733    3.196425
     21          6           0       -2.467204    3.615748    1.953649
     22          6           0       -0.835533    2.392813    5.176215
     23          6           0       -1.041405    5.253605    3.800028
     24          8           0       -0.351069    5.124838    4.801481
     25          6           0       -1.191045    6.651382    3.064589
     26          7           0       -3.762436    3.039664   -0.752585
     27          6           0       -3.431393    4.303274   -0.268702
     28          6           0       -3.663784    5.438493   -1.417485
     29          6           0       -4.171691    4.509033   -2.648079
     30          6           0       -4.274904    3.161989   -2.008273
     31          6           0       -4.684960    6.531044   -0.983794
     32          6           0       -3.216887    4.482657   -3.917683
     33          6           0       -3.813851    4.770028   -5.304066
     34          7           0       -4.718119    0.371065   -1.168030
     35          6           0       -5.050254    0.762672   -2.439637
     36          6           0       -5.505122   -0.425187   -3.192655
     37          6           0       -5.435867   -1.501140   -2.267478
     38          6           0       -4.900834   -0.942640   -1.073133
     39          6           0       -5.930607   -0.493834   -4.633169
     40          6           0       -5.622690   -2.960812   -2.166032
     41          8           0       -6.114391   -3.802426   -2.932046
     42          6           0       -5.250078   -3.260708   -0.721724
     43          6           0       -6.350434   -3.734561    0.048265
     44          8           0       -7.224411   -2.956918    0.511667
     45          8           0       -6.289622   -5.130215    0.232115
     46          6           0       -7.253818   -5.750976    1.134753
     47          6           0        1.957538   -4.717879    0.174465
     48          6           0        2.602737   -3.458725   -0.193997
     49          6           0        2.971347   -2.990436   -1.427866
     50          6           0        2.666432   -3.769254   -2.761776
     51          6           0        3.837918   -1.712763   -1.644748
     52          6           0        3.568139   -0.680829   -2.819613
     53          6           0        4.933029    0.086050   -3.206062
     54          6           0        5.400956    1.103858   -2.087593
     55          6           0        5.806579    2.536088   -2.518438
     56          6           0        6.608342    0.413192   -1.390787
     57          6           0        7.032972    0.923784   -0.081345
     58          6           0        7.352747   -0.168982    0.995439
     59          6           0        8.843747   -0.232531    1.576770
     60          6           0        8.798735   -0.870713    3.041138
     61          6           0        9.868742   -0.906791    0.568909
     62          6           0       10.906517    0.033428   -0.074054
     63          6           0       12.289562   -0.574863    0.058839
     64          6           0       13.162664   -0.032632   -1.125538
     65          6           0       14.364363   -0.881118   -1.188307
     66          6           0       13.624180    1.439129   -0.756493
     67          1           0       -1.800463    0.066699    4.271655
     68          1           0       -2.664819    5.595926    1.205835
     69          1           0       -5.199172    2.477706   -3.771439
     70          1           0       -4.641037   -3.237489    2.261812
     71          1           0       -1.847296   -2.600491    3.109484
     72          1           0       -3.004159   -2.910490    5.228743
     73          1           0       -4.570864   -2.735977    4.361982
     74          1           0       -3.686672   -1.303053    4.994326
     75          1           0       -3.611669   -4.867138    1.112249
     76          1           0       -2.438946   -4.785031    2.442911
     77          1           0       -1.859953   -3.184639   -0.069284
     78          1           0       -1.860728   -4.882167   -0.262565
     79          1           0        0.253424    2.379152    5.130009
     80          1           0       -1.297484    1.534619    5.664437
     81          1           0       -1.082773    3.139953    5.930170
     82          1           0       -2.248678    6.770391    2.828104
     83          1           0       -0.579008    6.611179    2.163929
     84          1           0       -0.701435    7.477974    3.579495
     85          1           0       -2.715392    5.967284   -1.507743
     86          1           0       -5.178271    4.842812   -2.901067
     87          1           0       -5.660842    6.235087   -1.368150
     88          1           0       -4.381152    7.535497   -1.278765
     89          1           0       -4.765817    6.662095    0.095148
     90          1           0       -2.710741    3.516860   -3.904150
     91          1           0       -2.519576    5.284666   -3.675557
     92          1           0       -3.181114    4.394110   -6.108544
     93          1           0       -3.857769    5.858868   -5.313701
     94          1           0       -4.782669    4.270494   -5.284127
     95          1           0       -5.405889    0.338097   -5.102143
     96          1           0       -6.989886   -0.244266   -4.572251
     97          1           0       -5.826521   -1.471739   -5.104161
     98          1           0       -4.490808   -4.031258   -0.853545
     99          1           0       -8.304921   -5.713787    0.848450
    100          1           0       -7.167040   -5.313028    2.129556
    101          1           0       -6.889257   -6.760810    1.323696
    102          1           0        2.428419   -5.507360   -0.411641
    103          1           0        2.065153   -4.945131    1.234886
    104          1           0        2.925512   -2.822272    0.630754
    105          1           0        2.028794   -3.346770   -3.538545
    106          1           0        2.133925   -4.657377   -2.420973
    107          1           0        3.657603   -3.970382   -3.167714
    108          1           0        4.856930   -2.097718   -1.673377
    109          1           0        3.829168   -1.131732   -0.723091
    110          1           0        2.876786    0.005104   -2.330933
    111          1           0        3.155895   -1.118775   -3.728976
    112          1           0        4.800512    0.690381   -4.103717
    113          1           0        5.698254   -0.618661   -3.531391
    114          1           0        4.720652    1.196668   -1.240311
    115          1           0        6.882110    2.707975   -2.477049
    116          1           0        5.242434    3.206118   -1.869855
    117          1           0        5.688563    2.791671   -3.571431
    118          1           0        7.367153    0.697570   -2.120599
    119          1           0        6.422950   -0.661012   -1.426897
    120          1           0        6.168309    1.447617    0.326528
    121          1           0        7.948839    1.508870   -0.167858
    122          1           0        7.090546   -1.119209    0.529008
    123          1           0        6.652678   -0.005074    1.814874
    124          1           0        9.270972    0.747073    1.788913
    125          1           0        9.517823   -1.684704    3.139636
    126          1           0        7.790073   -1.158999    3.337432
    127          1           0        8.942090   -0.094068    3.792516
    128          1           0        9.326131   -1.258104   -0.309275
    129          1           0       10.272206   -1.805613    1.037150
    130          1           0       10.880061    0.959922    0.498719
    131          1           0       10.549096    0.333415   -1.059352
    132          1           0       12.154391   -1.653131   -0.026884
    133          1           0       12.854306   -0.414724    0.975972
    134          1           0       12.675521   -0.033257   -2.100298
    135          1           0       14.825135   -0.925332   -0.200892
    136          1           0       15.149118   -0.470154   -1.823132
    137          1           0       14.119610   -1.896276   -1.500984
    138          1           0       12.907124    1.768206   -0.004788
    139          1           0       13.570811    2.121665   -1.604784
    140          1           0       14.591327    1.509167   -0.258428
 ---------------------------------------------------------------------

 SCF Done:  E(RPBE1PBE) =  -3005.34397718     A.U. after   15 cycles

 Excitation energies and oscillator strengths:

 Excited State   1:      Singlet-A      1.8653 eV  664.70 nm  f=0.3518  <S**2>=0.000
     245 -> 248        0.17349
     246 -> 247        0.69241
     246 <- 247       -0.10403
 This state for optimization and/or second-order correction.
 Total Energy, E(TD-HF/TD-DFT) =  -3005.27542966
 Copying the excited state density for this state as the 1-particle RhoCI density.

 Excited State   2:      Singlet-A      2.3110 eV  536.49 nm  f=0.0723  <S**2>=0.000
     245 -> 247        0.63115
     246 -> 248       -0.30700

 Excited State   3:      Singlet-A      3.1929 eV  388.31 nm  f=0.0327  <S**2>=0.000
     241 -> 247        0.59264
     241 -> 249       -0.19426
     243 -> 247        0.13418
     244 -> 247       -0.10957
     246 -> 248       -0.22177

 Excited State   4:      Singlet-A      3.2142 eV  385.74 nm  f=0.0008  <S**2>=0.000
     241 -> 247        0.16207
     243 -> 247       -0.26607
     244 -> 247        0.61180

 Excited State   5:      Singlet-A      3.2472 eV  381.82 nm  f=0.0266  <S**2>=0.000
     240 -> 247        0.10451
     243 -> 247        0.57271
     244 -> 247        0.22524
     246 -> 248        0.25201

 The electronic state is 1-A.
 Alpha  occ. eigenvalues --  -46.92202 -19.26296 -19.25739 -19.21042 -19.20305
 Alpha  occ. eigenvalues --  -19.19691 -19.19346 -14.41863 -14.41588 -14.39377
 Alpha  occ. eigenvalues --  -14.38880 -10.36955 -10.36850 -10.33541 -10.32413
 Alpha  occ. eigenvalues --  -10.29442 -10.29195 -10.29121 -10.28835 -10.28319
 Alpha  occ. eigenvalues --  -10.28316 -10.28244 -10.27809 -10.27288 -10.27066
 Alpha  occ. eigenvalues --  -10.26193 -10.26127 -10.25945 -10.25870 -10.25797
 Alpha  occ. eigenvalues --  -10.25756 -10.25499 -10.25333 -10.25260 -10.25047
 Alpha  occ. eigenvalues --  -10.25006 -10.24869 -10.24412 -10.24345 -10.24337
 Alpha  occ. eigenvalues --  -10.24298 -10.24209 -10.24141 -10.23987 -10.23918
 Alpha  occ. eigenvalues --  -10.23810 -10.23739 -10.23647 -10.23498 -10.23489
 Alpha  occ. eigenvalues --  -10.23417 -10.23298 -10.23021 -10.22920 -10.22883
 Alpha  occ. eigenvalues --  -10.22657 -10.22406 -10.22301 -10.22086 -10.22061
 Alpha  occ. eigenvalues --  -10.22030 -10.21759 -10.21674 -10.21660 -10.21313
 Alpha  occ. eigenvalues --  -10.20839  -3.14402  -1.87200  -1.86793  -1.86629
 Alpha  occ. eigenvalues --   -1.11133  -1.09558  -1.05012  -1.03700  -1.03339
 Alpha  occ. eigenvalues --   -1.01651  -0.98713  -0.98039  -0.97074  -0.96290
 Alpha  occ. eigenvalues --   -0.87384  -0.84110  -0.83582  -0.83381  -0.83356
 Alpha  occ. eigenvalues --   -0.82814  -0.82205  -0.80978  -0.80743  -0.80318
 Alpha  occ. eigenvalues --   -0.79675  -0.79378  -0.78538  -0.78119  -0.77639
 Alpha  occ. eigenvalues --   -0.76725  -0.76072  -0.75126  -0.74981  -0.74463
 Alpha  occ. eigenvalues --   -0.73694  -0.72420  -0.71910  -0.71092  -0.70723
 Alpha  occ. eigenvalues --   -0.69862  -0.69178  -0.69154  -0.68469  -0.68126
 Alpha  occ. eigenvalues --   -0.67516  -0.66622  -0.65998  -0.64871  -0.63362
 Alpha  occ. eigenvalues --   -0.62832  -0.62576  -0.61284  -0.60820  -0.60122
 Alpha  occ. eigenvalues --   -0.59563  -0.59382  -0.58926  -0.58811  -0.57769
 Alpha  occ. eigenvalues --   -0.57643  -0.57345  -0.56972  -0.56905  -0.54659
 Alpha  occ. eigenvalues --   -0.54050  -0.53567  -0.53444  -0.52991  -0.52630
 Alpha  occ. eigenvalues --   -0.51807  -0.51344  -0.50667  -0.50272  -0.49870
 Alpha  occ. eigenvalues --   -0.49458  -0.48834  -0.48768  -0.48731  -0.48443
 Alpha  occ. eigenvalues --   -0.48319  -0.48195  -0.48069  -0.47501  -0.47101
 Alpha  occ. eigenvalues --   -0.46812  -0.46684  -0.46659  -0.46392  -0.45810
 Alpha  occ. eigenvalues --   -0.45755  -0.45375  -0.45314  -0.45115  -0.44975
 Alpha  occ. eigenvalues --   -0.44783  -0.44630  -0.44378  -0.43925  -0.43842
 Alpha  occ. eigenvalues --   -0.43803  -0.43520  -0.43496  -0.43457  -0.43118
 Alpha  occ. eigenvalues --   -0.42855  -0.42755  -0.42695  -0.42240  -0.42078
 Alpha  occ. eigenvalues --   -0.42011  -0.41917  -0.41626  -0.41279  -0.41028
 Alpha  occ. eigenvalues --   -0.40995  -0.40901  -0.40759  -0.40550  -0.40394
 Alpha  occ. eigenvalues --   -0.40327  -0.39791  -0.39632  -0.39611  -0.39490
 Alpha  occ. eigenvalues --   -0.39312  -0.39211  -0.39047  -0.38885  -0.38784
 Alpha  occ. eigenvalues --   -0.38618  -0.38380  -0.37677  -0.37608  -0.37571
 Alpha  occ. eigenvalues --   -0.37340  -0.37226  -0.37195  -0.37083  -0.36908
 Alpha  occ. eigenvalues --   -0.36721  -0.36320  -0.36105  -0.35947  -0.35821
 Alpha  occ. eigenvalues --   -0.35645  -0.35523  -0.35367  -0.35052  -0.34722
 Alpha  occ. eigenvalues --   -0.34600  -0.34473  -0.34426  -0.33930  -0.33647
 Alpha  occ. eigenvalues --   -0.33375  -0.33345  -0.32770  -0.32406  -0.32312
 Alpha  occ. eigenvalues --   -0.32060  -0.31938  -0.31600  -0.31581  -0.31379
 Alpha  occ. eigenvalues --   -0.31206  -0.30640  -0.29919  -0.29660  -0.29447
 Alpha  occ. eigenvalues --   -0.28936  -0.28715  -0.28611  -0.26721  -0.26085
 Alpha  occ. eigenvalues --   -0.25861  -0.25543  -0.25491  -0.25198  -0.20893
 Alpha  occ. eigenvalues --   -0.18323
 Alpha virt. eigenvalues --   -0.10597  -0.05137  -0.03863  -0.02245  -0.01036
 Alpha virt. eigenvalues --   -0.00896  -0.00242   0.00747   0.01261   0.03312
 Alpha virt. eigenvalues --    0.03864   0.04899   0.05431   0.05589   0.05869

 Mulliken charges:
               1
     1  Mg   0.995285
     2  C   -0.116226
     3  C   -0.070428
     4  C   -0.093021
     5  C   -0.080588
     6  N   -0.375263
     7  C   -0.005774
     8  C   -0.092895
     9  C   -0.087851
    10  C    0.041913
    11  C    0.013236
    12  C    0.008199
    13  C   -0.065625
    14  C    0.255602
    15  O   -0.257653
    16  O   -0.366974
    17  N   -0.483900
    18  C    0.158285
    19  C   -0.166985
    20  C   -0.110775
    21  C    0.200745
    22  C    0.084183
    23  C    0.073354
    24  O   -0.230794
    25  C   -0.039610
    26  N   -0.450767
    27  C    0.088161
    28  C   -0.125943
    29  C   -0.098764
    30  C    0.091296
    31  C   -0.000206
    32  C   -0.038641
    33  C   -0.056769
    34  N   -0.446966
    35  C    0.132338
    36  C   -0.217667
    37  C   -0.097220
    38  C    0.286935
    39  C    0.080745
    40  C    0.161446
    41  O   -0.228740
    42  C   -0.103132
    43  C    0.344874
    44  O   -0.284330
    45  O   -0.384911
    46  C    0.138046
    47  C    0.243903
    48  C   -0.155468
    49  C   -0.168469
    50  C   -0.009880
    51  C   -0.048111
    52  C   -0.037325
    53  C   -0.006208
    54  C   -0.235178
    55  C    0.005199
    56  C   -0.064738
    57  C    0.010219
    58  C   -0.024653
    59  C   -0.217637
    60  C   -0.023809
    61  C    0.000343
    62  C   -0.026206
    63  C   -0.048457
    64  C   -0.241648
    65  C    0.010642
    66  C   -0.021940
    67  H    0.002171
    68  H   -0.022400
    69  H   -0.006003
    70  H    0.062656
    71  H    0.072626
    72  H    0.051401
    73  H    0.043068
    74  H    0.050950
    75  H    0.041666
    76  H    0.056017
    77  H    0.085228
    78  H    0.068970
    79  H    0.067544
    80  H    0.028826
    81  H    0.048109
    82  H    0.078483
    83  H    0.065231
    84  H    0.053245
    85  H    0.052358
    86  H    0.047878
    87  H    0.043358
    88  H    0.042936
    89  H    0.038462
    90  H    0.056472
    91  H    0.034557
    92  H    0.055781
    93  H    0.048001
    94  H    0.046050
    95  H    0.041094
    96  H    0.061126
    97  H    0.069301
    98  H    0.072390
    99  H    0.071926
   100  H    0.039296
   101  H    0.055067
   102  H    0.058538
   103  H    0.056257
   104  H    0.029653
   105  H    0.065492
   106  H    0.041002
   107  H    0.050022
   108  H    0.060532
   109  H    0.036152
   110  H    0.051154
   111  H    0.042945
   112  H    0.017720
   113  H    0.033031
   114  H    0.032922
   115  H    0.026073
   116  H    0.048184
   117  H    0.027717
   118  H    0.019949
   119  H    0.028505
   120  H    0.021679
   121  H    0.034325
   122  H    0.025547
   123  H    0.025404
   124  H    0.036104
   125  H    0.039347
   126  H    0.027746
   127  H    0.029488
   128  H    0.026909
   129  H    0.028217
   130  H    0.028674
   131  H    0.035133
   132  H    0.031538
   133  H    0.035628
   134  H    0.034916
   135  H    0.018690
   136  H    0.026636
   137  H    0.029969
   138  H    0.022894
   139  H    0.040831
   140  H    0.033831
 Sum of Mulliken charges =  -0.00000

 Dipole moment (field-independent basis, Debye):
    X=              1.3688    Y=              2.3126    Z=             -1.2849  Tot=              2.9787
 Quadrupole moment (field-independent basis, Debye-Ang):
   XX=           -416.3144   YY=           -374.8859   ZZ=           -405.9454
   XY=            -20.8799   XZ=            -21.3268   YZ=            -33.5365

 Normal termination of Gaussian 16 at Wed May  4 16:02:33 2022.
