 Gaussian 16, Revision A.03,
 Gaussian 16:  ES64L-G16RevA.03 25-Dec-2016

 --------------------------------
 #p wB97XD/Def2SVP td=(nstates=5)
 --------------------------------

 --------------------------------------------------
 step_1_chromophore_26 TDDFT with wB97XD functional
 --------------------------------------------------
 Symbolic Z-matrix:
 Charge =  0 Multiplicity = 1

                         Standard orientation:
 ---------------------------------------------------------------------
 Center     Atomic      Atomic             Coordinates (Angstroms)
 Number     Number       Type             X           Y           Z
 ---------------------------------------------------------------------
      1         12           0       -3.925370    1.430301    0.477774
      2          6           0       -4.585614   -1.959401   -0.205925
      3          6           0       -2.203491    0.330965    3.292096
      4          6           0       -2.858523    4.542439    0.995461
      5          6           0       -4.867114    2.156234   -2.782522
      6          7           0       -3.340539   -0.643807    1.299600
      7          6           0       -3.808075   -1.897639    0.957245
      8          6           0       -3.615755   -2.971603    2.007316
      9          6           0       -2.870645   -2.228309    3.141581
     10          6           0       -2.765051   -0.771635    2.582403
     11          6           0       -3.591854   -2.293849    4.548749
     12          6           0       -2.812550   -4.272216    1.556307
     13          6           0       -1.716159   -4.109103    0.490979
     14          6           0       -0.228591   -4.137879    0.951298
     15          8           0        0.178599   -3.914388    2.075681
     16          8           0        0.503983   -4.616958   -0.109104
     17          7           0       -2.734237    2.290095    1.916404
     18          6           0       -2.175519    1.696058    3.012160
     19          6           0       -1.527134    2.709998    3.855665
     20          6           0       -1.712235    3.963733    3.196425
     21          6           0       -2.467204    3.615748    1.953649
     22          6           0       -0.835533    2.392813    5.176215
     23          6           0       -1.041405    5.253605    3.800028
     24          8           0       -0.351069    5.124838    4.801481
     25          6           0       -1.191045    6.651382    3.064589
     26          7           0       -3.762436    3.039664   -0.752585
     27          6           0       -3.431393    4.303274   -0.268702
     28          6           0       -3.663784    5.438493   -1.417485
     29          6           0       -4.171691    4.509033   -2.648079
     30          6           0       -4.274904    3.161989   -2.008273
     31          6           0       -4.684960    6.531044   -0.983794
     32          6           0       -3.216887    4.482657   -3.917683
     33          6           0       -3.813851    4.770028   -5.304066
     34          7           0       -4.718119    0.371065   -1.168030
     35          6           0       -5.050254    0.762672   -2.439637
     36          6           0       -5.505122   -0.425187   -3.192655
     37          6           0       -5.435867   -1.501140   -2.267478
     38          6           0       -4.900834   -0.942640   -1.073133
     39          6           0       -5.930607   -0.493834   -4.633169
     40          6           0       -5.622690   -2.960812   -2.166032
     41          8           0       -6.114391   -3.802426   -2.932046
     42          6           0       -5.250078   -3.260708   -0.721724
     43          6           0       -6.350434   -3.734561    0.048265
     44          8           0       -7.224411   -2.956918    0.511667
     45          8           0       -6.289622   -5.130215    0.232115
     46          6           0       -7.253818   -5.750976    1.134753
     47          6           0        1.957538   -4.717879    0.174465
     48          6           0        2.602737   -3.458725   -0.193997
     49          6           0        2.971347   -2.990436   -1.427866
     50          6           0        2.666432   -3.769254   -2.761776
     51          6           0        3.837918   -1.712763   -1.644748
     52          6           0        3.568139   -0.680829   -2.819613
     53          6           0        4.933029    0.086050   -3.206062
     54          6           0        5.400956    1.103858   -2.087593
     55          6           0        5.806579    2.536088   -2.518438
     56          6           0        6.608342    0.413192   -1.390787
     57          6           0        7.032972    0.923784   -0.081345
     58          6           0        7.352747   -0.168982    0.995439
     59          6           0        8.843747   -0.232531    1.576770
     60          6           0        8.798735   -0.870713    3.041138
     61          6           0        9.868742   -0.906791    0.568909
     62          6           0       10.906517    0.033428   -0.074054
     63          6           0       12.289562   -0.574863    0.058839
     64          6           0       13.162664   -0.032632   -1.125538
     65          6           0       14.364363   -0.881118   -1.188307
     66          6           0       13.624180    1.439129   -0.756493
     67          1           0       -1.800463    0.066699    4.271655
     68          1           0       -2.664819    5.595926    1.205835
     69          1           0       -5.199172    2.477706   -3.771439
     70          1           0       -4.641037   -3.237489    2.261812
     71          1           0       -1.847296   -2.600491    3.109484
     72          1           0       -3.004159   -2.910490    5.228743
     73          1           0       -4.570864   -2.735977    4.361982
     74          1           0       -3.686672   -1.303053    4.994326
     75          1           0       -3.611669   -4.867138    1.112249
     76          1           0       -2.438946   -4.785031    2.442911
     77          1           0       -1.859953   -3.184639   -0.069284
     78          1           0       -1.860728   -4.882167   -0.262565
     79          1           0        0.253424    2.379152    5.130009
     80          1           0       -1.297484    1.534619    5.664437
     81          1           0       -1.082773    3.139953    5.930170
     82          1           0       -2.248678    6.770391    2.828104
     83          1           0       -0.579008    6.611179    2.163929
     84          1           0       -0.701435    7.477974    3.579495
     85          1           0       -2.715392    5.967284   -1.507743
     86          1           0       -5.178271    4.842812   -2.901067
     87          1           0       -5.660842    6.235087   -1.368150
     88          1           0       -4.381152    7.535497   -1.278765
     89          1           0       -4.765817    6.662095    0.095148
     90          1           0       -2.710741    3.516860   -3.904150
     91          1           0       -2.519576    5.284666   -3.675557
     92          1           0       -3.181114    4.394110   -6.108544
     93          1           0       -3.857769    5.858868   -5.313701
     94          1           0       -4.782669    4.270494   -5.284127
     95          1           0       -5.405889    0.338097   -5.102143
     96          1           0       -6.989886   -0.244266   -4.572251
     97          1           0       -5.826521   -1.471739   -5.104161
     98          1           0       -4.490808   -4.031258   -0.853545
     99          1           0       -8.304921   -5.713787    0.848450
    100          1           0       -7.167040   -5.313028    2.129556
    101          1           0       -6.889257   -6.760810    1.323696
    102          1           0        2.428419   -5.507360   -0.411641
    103          1           0        2.065153   -4.945131    1.234886
    104          1           0        2.925512   -2.822272    0.630754
    105          1           0        2.028794   -3.346770   -3.538545
    106          1           0        2.133925   -4.657377   -2.420973
    107          1           0        3.657603   -3.970382   -3.167714
    108          1           0        4.856930   -2.097718   -1.673377
    109          1           0        3.829168   -1.131732   -0.723091
    110          1           0        2.876786    0.005104   -2.330933
    111          1           0        3.155895   -1.118775   -3.728976
    112          1           0        4.800512    0.690381   -4.103717
    113          1           0        5.698254   -0.618661   -3.531391
    114          1           0        4.720652    1.196668   -1.240311
    115          1           0        6.882110    2.707975   -2.477049
    116          1           0        5.242434    3.206118   -1.869855
    117          1           0        5.688563    2.791671   -3.571431
    118          1           0        7.367153    0.697570   -2.120599
    119          1           0        6.422950   -0.661012   -1.426897
    120          1           0        6.168309    1.447617    0.326528
    121          1           0        7.948839    1.508870   -0.167858
    122          1           0        7.090546   -1.119209    0.529008
    123          1           0        6.652678   -0.005074    1.814874
    124          1           0        9.270972    0.747073    1.788913
    125          1           0        9.517823   -1.684704    3.139636
    126          1           0        7.790073   -1.158999    3.337432
    127          1           0        8.942090   -0.094068    3.792516
    128          1           0        9.326131   -1.258104   -0.309275
    129          1           0       10.272206   -1.805613    1.037150
    130          1           0       10.880061    0.959922    0.498719
    131          1           0       10.549096    0.333415   -1.059352
    132          1           0       12.154391   -1.653131   -0.026884
    133          1           0       12.854306   -0.414724    0.975972
    134          1           0       12.675521   -0.033257   -2.100298
    135          1           0       14.825135   -0.925332   -0.200892
    136          1           0       15.149118   -0.470154   -1.823132
    137          1           0       14.119610   -1.896276   -1.500984
    138          1           0       12.907124    1.768206   -0.004788
    139          1           0       13.570811    2.121665   -1.604784
    140          1           0       14.591327    1.509167   -0.258428
 ---------------------------------------------------------------------

 SCF Done:  E(RwB97XD) =  -3007.85521301     A.U. after   18 cycles

 Excitation energies and oscillator strengths:

 Excited State   1:      Singlet-A      1.6623 eV  745.84 nm  f=0.3587  <S**2>=0.000
     245 -> 248       -0.18530
     246 -> 247        0.68314
     245 <- 248       -0.11637
 This state for optimization and/or second-order correction.
 Total Energy, E(TD-HF/TD-DFT) =  -3007.79412295
 Copying the excited state density for this state as the 1-particle RhoCI density.

 Excited State   2:      Singlet-A      2.2627 eV  547.94 nm  f=0.0667  <S**2>=0.000
     245 -> 247        0.61508
     246 -> 248        0.33600

 Excited State   3:      Singlet-A      3.5189 eV  352.34 nm  f=0.5789  <S**2>=0.000
     241 -> 247        0.13700
     244 -> 247       -0.20751
     245 -> 247       -0.29480
     246 -> 248        0.57324
     245 <- 247        0.10740

 Excited State   4:      Singlet-A      3.6278 eV  341.77 nm  f=0.0458  <S**2>=0.000
     242 -> 247       -0.40745
     244 -> 247        0.52283
     246 -> 248        0.11612

 Excited State   5:      Singlet-A      3.6780 eV  337.10 nm  f=0.0111  <S**2>=0.000
     239 -> 247       -0.10889
     240 -> 247        0.18810
     240 -> 249        0.14655
     241 -> 247        0.41913
     241 -> 249        0.34761
     241 -> 250        0.16245
     242 -> 247        0.15199
     244 -> 247        0.17893

 The electronic state is 1-A.
 Alpha  occ. eigenvalues --  -46.95139 -19.30905 -19.30283 -19.25699 -19.25070
 Alpha  occ. eigenvalues --  -19.24560 -19.24123 -14.47098 -14.46526 -14.44424
 Alpha  occ. eigenvalues --  -14.43749 -10.43765 -10.43740 -10.40425 -10.39251
 Alpha  occ. eigenvalues --  -10.35880 -10.35729 -10.35634 -10.35202 -10.34914
 Alpha  occ. eigenvalues --  -10.34468 -10.34375 -10.33923 -10.33770 -10.33287
 Alpha  occ. eigenvalues --  -10.32540 -10.32457 -10.32263 -10.32107 -10.32091
 Alpha  occ. eigenvalues --  -10.31957 -10.31780 -10.31733 -10.31682 -10.31513
 Alpha  occ. eigenvalues --  -10.31413 -10.31214 -10.31024 -10.30961 -10.30634
 Alpha  occ. eigenvalues --  -10.30524 -10.30507 -10.30431 -10.30375 -10.30299
 Alpha  occ. eigenvalues --  -10.30165 -10.30079 -10.29908 -10.29860 -10.29826
 Alpha  occ. eigenvalues --  -10.29826 -10.29596 -10.29387 -10.29253 -10.29192
 Alpha  occ. eigenvalues --  -10.29064 -10.28767 -10.28659 -10.28511 -10.28432
 Alpha  occ. eigenvalues --  -10.28385 -10.28175 -10.28090 -10.28054 -10.27673
 Alpha  occ. eigenvalues --  -10.27287  -3.21205  -1.94751  -1.94344  -1.94180
 Alpha  occ. eigenvalues --   -1.18509  -1.17019  -1.12560  -1.11163  -1.10672
 Alpha  occ. eigenvalues --   -1.09090  -1.05999  -1.05465  -1.04459  -1.03710
 Alpha  occ. eigenvalues --   -0.94982  -0.91787  -0.91247  -0.91016  -0.90942
 Alpha  occ. eigenvalues --   -0.90471  -0.89830  -0.88578  -0.88419  -0.87883
 Alpha  occ. eigenvalues --   -0.87406  -0.87043  -0.86181  -0.85740  -0.85272
 Alpha  occ. eigenvalues --   -0.84378  -0.83740  -0.82883  -0.82648  -0.82110
 Alpha  occ. eigenvalues --   -0.81357  -0.79990  -0.79529  -0.78818  -0.78336
 Alpha  occ. eigenvalues --   -0.77552  -0.76861  -0.76762  -0.76145  -0.75788
 Alpha  occ. eigenvalues --   -0.75136  -0.74139  -0.73554  -0.72481  -0.70832
 Alpha  occ. eigenvalues --   -0.70392  -0.70199  -0.68898  -0.68452  -0.67616
 Alpha  occ. eigenvalues --   -0.67101  -0.66885  -0.66454  -0.66286  -0.65433
 Alpha  occ. eigenvalues --   -0.65123  -0.64992  -0.64640  -0.64300  -0.62121
 Alpha  occ. eigenvalues --   -0.61542  -0.61027  -0.60870  -0.60423  -0.60110
 Alpha  occ. eigenvalues --   -0.59187  -0.58821  -0.58121  -0.57725  -0.57283
 Alpha  occ. eigenvalues --   -0.56841  -0.56249  -0.56169  -0.56109  -0.55856
 Alpha  occ. eigenvalues --   -0.55743  -0.55588  -0.55435  -0.54879  -0.54426
 Alpha  occ. eigenvalues --   -0.54170  -0.54109  -0.54032  -0.53772  -0.53157
 Alpha  occ. eigenvalues --   -0.53050  -0.52842  -0.52719  -0.52480  -0.52366
 Alpha  occ. eigenvalues --   -0.52084  -0.51923  -0.51776  -0.51267  -0.51175
 Alpha  occ. eigenvalues --   -0.51136  -0.50882  -0.50861  -0.50781  -0.50355
 Alpha  occ. eigenvalues --   -0.50143  -0.50101  -0.49957  -0.49521  -0.49357
 Alpha  occ. eigenvalues --   -0.49259  -0.49135  -0.49026  -0.48472  -0.48280
 Alpha  occ. eigenvalues --   -0.48227  -0.48050  -0.47966  -0.47747  -0.47556
 Alpha  occ. eigenvalues --   -0.47482  -0.47000  -0.46852  -0.46721  -0.46686
 Alpha  occ. eigenvalues --   -0.46469  -0.46385  -0.46261  -0.46070  -0.45979
 Alpha  occ. eigenvalues --   -0.45754  -0.45561  -0.44878  -0.44735  -0.44683
 Alpha  occ. eigenvalues --   -0.44536  -0.44380  -0.44348  -0.44107  -0.44020
 Alpha  occ. eigenvalues --   -0.43831  -0.43350  -0.43258  -0.43033  -0.42812
 Alpha  occ. eigenvalues --   -0.42741  -0.42639  -0.42319  -0.41951  -0.41686
 Alpha  occ. eigenvalues --   -0.41684  -0.41532  -0.41435  -0.41001  -0.40717
 Alpha  occ. eigenvalues --   -0.40340  -0.40326  -0.39812  -0.39344  -0.39327
 Alpha  occ. eigenvalues --   -0.39025  -0.38913  -0.38688  -0.38608  -0.38399
 Alpha  occ. eigenvalues --   -0.38246  -0.37589  -0.36866  -0.36540  -0.36306
 Alpha  occ. eigenvalues --   -0.36166  -0.35474  -0.35323  -0.33389  -0.33114
 Alpha  occ. eigenvalues --   -0.32875  -0.32326  -0.32245  -0.31618  -0.25926
 Alpha  occ. eigenvalues --   -0.22473
 Alpha virt. eigenvalues --   -0.06354   0.00263   0.02462   0.04244   0.05058
 Alpha virt. eigenvalues --    0.05729   0.06411   0.07506   0.08102   0.10009
 Alpha virt. eigenvalues --    0.10481   0.11438   0.12122   0.12296   0.12623

 Mulliken charges:
               1
     1  Mg   0.985924
     2  C   -0.109463
     3  C   -0.084053
     4  C   -0.111729
     5  C   -0.096426
     6  N   -0.341901
     7  C   -0.044291
     8  C   -0.067208
     9  C   -0.061256
    10  C    0.026771
    11  C    0.026004
    12  C    0.025206
    13  C   -0.049500
    14  C    0.243675
    15  O   -0.254551
    16  O   -0.367314
    17  N   -0.448788
    18  C    0.153136
    19  C   -0.157427
    20  C   -0.114157
    21  C    0.207470
    22  C    0.096192
    23  C    0.069280
    24  O   -0.226472
    25  C   -0.025811
    26  N   -0.422108
    27  C    0.079598
    28  C   -0.103309
    29  C   -0.075310
    30  C    0.085271
    31  C    0.009952
    32  C   -0.023975
    33  C   -0.038112
    34  N   -0.406180
    35  C    0.118733
    36  C   -0.212692
    37  C   -0.096777
    38  C    0.262806
    39  C    0.092501
    40  C    0.144700
    41  O   -0.218814
    42  C   -0.061030
    43  C    0.316554
    44  O   -0.277474
    45  O   -0.382449
    46  C    0.152143
    47  C    0.264615
    48  C   -0.166421
    49  C   -0.161302
    50  C    0.004112
    51  C   -0.027414
    52  C   -0.019413
    53  C    0.011724
    54  C   -0.208019
    55  C    0.014481
    56  C   -0.034576
    57  C    0.025189
    58  C   -0.005776
    59  C   -0.189922
    60  C   -0.010639
    61  C    0.012127
    62  C   -0.009699
    63  C   -0.028656
    64  C   -0.210704
    65  C    0.022479
    66  C   -0.012068
    67  H   -0.005015
    68  H   -0.035641
    69  H   -0.016649
    70  H    0.047539
    71  H    0.058924
    72  H    0.046678
    73  H    0.037559
    74  H    0.043701
    75  H    0.030014
    76  H    0.049219
    77  H    0.075721
    78  H    0.064596
    79  H    0.065469
    80  H    0.024171
    81  H    0.043634
    82  H    0.073721
    83  H    0.060310
    84  H    0.052424
    85  H    0.043851
    86  H    0.035887
    87  H    0.037575
    88  H    0.038116
    89  H    0.031799
    90  H    0.048015
    91  H    0.024521
    92  H    0.050943
    93  H    0.041429
    94  H    0.037919
    95  H    0.034041
    96  H    0.054574
    97  H    0.065901
    98  H    0.062285
    99  H    0.069032
   100  H    0.034422
   101  H    0.051977
   102  H    0.054160
   103  H    0.052354
   104  H    0.026718
   105  H    0.061364
   106  H    0.034093
   107  H    0.043845
   108  H    0.049146
   109  H    0.025664
   110  H    0.042937
   111  H    0.036034
   112  H    0.009593
   113  H    0.024228
   114  H    0.017135
   115  H    0.019581
   116  H    0.043499
   117  H    0.022590
   118  H    0.006006
   119  H    0.008558
   120  H    0.012460
   121  H    0.024562
   122  H    0.014285
   123  H    0.017322
   124  H    0.022922
   125  H    0.033810
   126  H    0.021066
   127  H    0.023814
   128  H    0.016426
   129  H    0.018909
   130  H    0.015691
   131  H    0.027963
   132  H    0.020316
   133  H    0.027258
   134  H    0.025800
   135  H    0.010143
   136  H    0.020993
   137  H    0.024098
   138  H    0.013990
   139  H    0.036182
   140  H    0.028372
 Sum of Mulliken charges =  -0.00000

 Dipole moment (field-independent basis, Debye):
    X=              1.4909    Y=              2.3720    Z=             -0.9457  Tot=              2.9569
 Quadrupole moment (field-independent basis, Debye-Ang):
   XX=           -416.5930   YY=           -373.5367   ZZ=           -405.5658
   XY=            -20.5044   XZ=            -22.7482   YZ=            -32.4417

 Normal termination of Gaussian 16 at Wed May  4 16:40:46 2022.
