 Gaussian 16, Revision A.03,
 Gaussian 16:  ES64L-G16RevA.03 25-Dec-2016

 --------------------
 #p ZINDO=(nstates=5)
 --------------------

 ---------------------------
 step_1_chromophore_26 ZINDO
 ---------------------------
 Symbolic Z-matrix:
 Charge =  0 Multiplicity = 1

                         Standard orientation:
 ---------------------------------------------------------------------
 Center     Atomic      Atomic             Coordinates (Angstroms)
 Number     Number       Type             X           Y           Z
 ---------------------------------------------------------------------
      1         12           0       -3.925370    1.430301    0.477774
      2          6           0       -4.585614   -1.959401   -0.205925
      3          6           0       -2.203491    0.330965    3.292096
      4          6           0       -2.858523    4.542439    0.995461
      5          6           0       -4.867114    2.156234   -2.782522
      6          7           0       -3.340539   -0.643807    1.299600
      7          6           0       -3.808075   -1.897639    0.957245
      8          6           0       -3.615755   -2.971603    2.007316
      9          6           0       -2.870645   -2.228309    3.141581
     10          6           0       -2.765051   -0.771635    2.582403
     11          6           0       -3.591854   -2.293849    4.548749
     12          6           0       -2.812550   -4.272216    1.556307
     13          6           0       -1.716159   -4.109103    0.490979
     14          6           0       -0.228591   -4.137879    0.951298
     15          8           0        0.178599   -3.914388    2.075681
     16          8           0        0.503983   -4.616958   -0.109104
     17          7           0       -2.734237    2.290095    1.916404
     18          6           0       -2.175519    1.696058    3.012160
     19          6           0       -1.527134    2.709998    3.855665
     20          6           0       -1.712235    3.963733    3.196425
     21          6           0       -2.467204    3.615748    1.953649
     22          6           0       -0.835533    2.392813    5.176215
     23          6           0       -1.041405    5.253605    3.800028
     24          8           0       -0.351069    5.124838    4.801481
     25          6           0       -1.191045    6.651382    3.064589
     26          7           0       -3.762436    3.039664   -0.752585
     27          6           0       -3.431393    4.303274   -0.268702
     28          6           0       -3.663784    5.438493   -1.417485
     29          6           0       -4.171691    4.509033   -2.648079
     30          6           0       -4.274904    3.161989   -2.008273
     31          6           0       -4.684960    6.531044   -0.983794
     32          6           0       -3.216887    4.482657   -3.917683
     33          6           0       -3.813851    4.770028   -5.304066
     34          7           0       -4.718119    0.371065   -1.168030
     35          6           0       -5.050254    0.762672   -2.439637
     36          6           0       -5.505122   -0.425187   -3.192655
     37          6           0       -5.435867   -1.501140   -2.267478
     38          6           0       -4.900834   -0.942640   -1.073133
     39          6           0       -5.930607   -0.493834   -4.633169
     40          6           0       -5.622690   -2.960812   -2.166032
     41          8           0       -6.114391   -3.802426   -2.932046
     42          6           0       -5.250078   -3.260708   -0.721724
     43          6           0       -6.350434   -3.734561    0.048265
     44          8           0       -7.224411   -2.956918    0.511667
     45          8           0       -6.289622   -5.130215    0.232115
     46          6           0       -7.253818   -5.750976    1.134753
     47          6           0        1.957538   -4.717879    0.174465
     48          6           0        2.602737   -3.458725   -0.193997
     49          6           0        2.971347   -2.990436   -1.427866
     50          6           0        2.666432   -3.769254   -2.761776
     51          6           0        3.837918   -1.712763   -1.644748
     52          6           0        3.568139   -0.680829   -2.819613
     53          6           0        4.933029    0.086050   -3.206062
     54          6           0        5.400956    1.103858   -2.087593
     55          6           0        5.806579    2.536088   -2.518438
     56          6           0        6.608342    0.413192   -1.390787
     57          6           0        7.032972    0.923784   -0.081345
     58          6           0        7.352747   -0.168982    0.995439
     59          6           0        8.843747   -0.232531    1.576770
     60          6           0        8.798735   -0.870713    3.041138
     61          6           0        9.868742   -0.906791    0.568909
     62          6           0       10.906517    0.033428   -0.074054
     63          6           0       12.289562   -0.574863    0.058839
     64          6           0       13.162664   -0.032632   -1.125538
     65          6           0       14.364363   -0.881118   -1.188307
     66          6           0       13.624180    1.439129   -0.756493
     67          1           0       -1.800463    0.066699    4.271655
     68          1           0       -2.664819    5.595926    1.205835
     69          1           0       -5.199172    2.477706   -3.771439
     70          1           0       -4.641037   -3.237489    2.261812
     71          1           0       -1.847296   -2.600491    3.109484
     72          1           0       -3.004159   -2.910490    5.228743
     73          1           0       -4.570864   -2.735977    4.361982
     74          1           0       -3.686672   -1.303053    4.994326
     75          1           0       -3.611669   -4.867138    1.112249
     76          1           0       -2.438946   -4.785031    2.442911
     77          1           0       -1.859953   -3.184639   -0.069284
     78          1           0       -1.860728   -4.882167   -0.262565
     79          1           0        0.253424    2.379152    5.130009
     80          1           0       -1.297484    1.534619    5.664437
     81          1           0       -1.082773    3.139953    5.930170
     82          1           0       -2.248678    6.770391    2.828104
     83          1           0       -0.579008    6.611179    2.163929
     84          1           0       -0.701435    7.477974    3.579495
     85          1           0       -2.715392    5.967284   -1.507743
     86          1           0       -5.178271    4.842812   -2.901067
     87          1           0       -5.660842    6.235087   -1.368150
     88          1           0       -4.381152    7.535497   -1.278765
     89          1           0       -4.765817    6.662095    0.095148
     90          1           0       -2.710741    3.516860   -3.904150
     91          1           0       -2.519576    5.284666   -3.675557
     92          1           0       -3.181114    4.394110   -6.108544
     93          1           0       -3.857769    5.858868   -5.313701
     94          1           0       -4.782669    4.270494   -5.284127
     95          1           0       -5.405889    0.338097   -5.102143
     96          1           0       -6.989886   -0.244266   -4.572251
     97          1           0       -5.826521   -1.471739   -5.104161
     98          1           0       -4.490808   -4.031258   -0.853545
     99          1           0       -8.304921   -5.713787    0.848450
    100          1           0       -7.167040   -5.313028    2.129556
    101          1           0       -6.889257   -6.760810    1.323696
    102          1           0        2.428419   -5.507360   -0.411641
    103          1           0        2.065153   -4.945131    1.234886
    104          1           0        2.925512   -2.822272    0.630754
    105          1           0        2.028794   -3.346770   -3.538545
    106          1           0        2.133925   -4.657377   -2.420973
    107          1           0        3.657603   -3.970382   -3.167714
    108          1           0        4.856930   -2.097718   -1.673377
    109          1           0        3.829168   -1.131732   -0.723091
    110          1           0        2.876786    0.005104   -2.330933
    111          1           0        3.155895   -1.118775   -3.728976
    112          1           0        4.800512    0.690381   -4.103717
    113          1           0        5.698254   -0.618661   -3.531391
    114          1           0        4.720652    1.196668   -1.240311
    115          1           0        6.882110    2.707975   -2.477049
    116          1           0        5.242434    3.206118   -1.869855
    117          1           0        5.688563    2.791671   -3.571431
    118          1           0        7.367153    0.697570   -2.120599
    119          1           0        6.422950   -0.661012   -1.426897
    120          1           0        6.168309    1.447617    0.326528
    121          1           0        7.948839    1.508870   -0.167858
    122          1           0        7.090546   -1.119209    0.529008
    123          1           0        6.652678   -0.005074    1.814874
    124          1           0        9.270972    0.747073    1.788913
    125          1           0        9.517823   -1.684704    3.139636
    126          1           0        7.790073   -1.158999    3.337432
    127          1           0        8.942090   -0.094068    3.792516
    128          1           0        9.326131   -1.258104   -0.309275
    129          1           0       10.272206   -1.805613    1.037150
    130          1           0       10.880061    0.959922    0.498719
    131          1           0       10.549096    0.333415   -1.059352
    132          1           0       12.154391   -1.653131   -0.026884
    133          1           0       12.854306   -0.414724    0.975972
    134          1           0       12.675521   -0.033257   -2.100298
    135          1           0       14.825135   -0.925332   -0.200892
    136          1           0       15.149118   -0.470154   -1.823132
    137          1           0       14.119610   -1.896276   -1.500984
    138          1           0       12.907124    1.768206   -0.004788
    139          1           0       13.570811    2.121665   -1.604784
    140          1           0       14.591327    1.509167   -0.258428
 ---------------------------------------------------------------------

 SCF Done:  E(RZINDO/S) =  -473.811839729     A.U. after   20 cycles

 Excitation energies and oscillator strengths:

 Excited State   1:      Singlet-A      1.2492 eV  992.51 nm  f=0.5658  <S**2>=0.000
     175 ->178         0.18661
     176 ->177         0.66406
 This state for optimization and/or second-order correction.
 Total Energy, E(CIS/TDA) =  -473.765932546
 Copying the excited state density for this state as the 1-particle RhoCI density.

 Excited State   2:      Singlet-A      1.9012 eV  652.15 nm  f=0.0074  <S**2>=0.000
     175 ->177         0.50829
     176 ->178        -0.46778

 Excited State   3:      Singlet-A      2.8646 eV  432.81 nm  f=0.1753  <S**2>=0.000
     175 ->177        -0.18560
     176 ->178        -0.21526
     176 ->179         0.58616
     176 ->180        -0.14210
     176 ->183        -0.13891

 Excited State   4:      Singlet-A      2.9394 eV  421.81 nm  f=0.2399  <S**2>=0.000
     175 ->177         0.19567
     176 ->178         0.21977
     176 ->179         0.23312
     176 ->180         0.26669
     176 ->181         0.51375

 Excited State   5:      Singlet-A      3.0224 eV  410.22 nm  f=0.1716  <S**2>=0.000
     169 ->177         0.25726
     169 ->178        -0.12512
     169 ->179         0.35692
     169 ->180        -0.14827
     169 ->183        -0.18229
     169 ->186         0.12068
     169 ->187        -0.11957
     175 ->177         0.16247
     176 ->178         0.18900
     176 ->181        -0.22623

 The electronic state is 1-A.
 Alpha  occ. eigenvalues --   -1.83849  -1.80306  -1.77887  -1.73336  -1.70157
 Alpha  occ. eigenvalues --   -1.69201  -1.64996  -1.61782  -1.58141  -1.57689
 Alpha  occ. eigenvalues --   -1.52947  -1.50883  -1.48167  -1.47335  -1.46107
 Alpha  occ. eigenvalues --   -1.43222  -1.42548  -1.38901  -1.37725  -1.37588
 Alpha  occ. eigenvalues --   -1.35132  -1.33104  -1.32655  -1.29997  -1.28480
 Alpha  occ. eigenvalues --   -1.27416  -1.26039  -1.22471  -1.20679  -1.17710
 Alpha  occ. eigenvalues --   -1.17310  -1.15421  -1.14876  -1.13761  -1.13093
 Alpha  occ. eigenvalues --   -1.11541  -1.10156  -1.09245  -1.04872  -1.03545
 Alpha  occ. eigenvalues --   -1.02707  -1.00846  -1.00050  -0.96895  -0.95808
 Alpha  occ. eigenvalues --   -0.95668  -0.93969  -0.93024  -0.92260  -0.91597
 Alpha  occ. eigenvalues --   -0.90696  -0.90161  -0.89516  -0.88569  -0.87032
 Alpha  occ. eigenvalues --   -0.85688  -0.84549  -0.83184  -0.81289  -0.79815
 Alpha  occ. eigenvalues --   -0.79452  -0.78593  -0.77341  -0.76801  -0.76548
 Alpha  occ. eigenvalues --   -0.76270  -0.75731  -0.74722  -0.74512  -0.73056
 Alpha  occ. eigenvalues --   -0.72438  -0.72073  -0.71999  -0.71403  -0.70794
 Alpha  occ. eigenvalues --   -0.70610  -0.69205  -0.69071  -0.68200  -0.67638
 Alpha  occ. eigenvalues --   -0.67333  -0.66414  -0.66121  -0.65576  -0.65141
 Alpha  occ. eigenvalues --   -0.65091  -0.64665  -0.63938  -0.63334  -0.63173
 Alpha  occ. eigenvalues --   -0.63113  -0.62764  -0.62468  -0.62219  -0.61895
 Alpha  occ. eigenvalues --   -0.61432  -0.61061  -0.60341  -0.60160  -0.59460
 Alpha  occ. eigenvalues --   -0.59225  -0.58814  -0.58550  -0.58152  -0.57988
 Alpha  occ. eigenvalues --   -0.57670  -0.57525  -0.57366  -0.56706  -0.56109
 Alpha  occ. eigenvalues --   -0.55939  -0.55697  -0.55414  -0.55175  -0.54892
 Alpha  occ. eigenvalues --   -0.54410  -0.53887  -0.53383  -0.53086  -0.52784
 Alpha  occ. eigenvalues --   -0.52616  -0.52530  -0.51943  -0.51668  -0.51413
 Alpha  occ. eigenvalues --   -0.51136  -0.50777  -0.50432  -0.50352  -0.50280
 Alpha  occ. eigenvalues --   -0.50035  -0.49768  -0.49534  -0.49161  -0.48980
 Alpha  occ. eigenvalues --   -0.48762  -0.48579  -0.48250  -0.48073  -0.47617
 Alpha  occ. eigenvalues --   -0.47570  -0.47008  -0.46831  -0.46786  -0.46606
 Alpha  occ. eigenvalues --   -0.46527  -0.46226  -0.46113  -0.45818  -0.45502
 Alpha  occ. eigenvalues --   -0.45388  -0.44882  -0.44631  -0.44369  -0.44253
 Alpha  occ. eigenvalues --   -0.43641  -0.43345  -0.43137  -0.42365  -0.42247
 Alpha  occ. eigenvalues --   -0.41667  -0.41457  -0.41216  -0.39554  -0.38878
 Alpha  occ. eigenvalues --   -0.38556  -0.37621  -0.35905  -0.35001  -0.34680
 Alpha  occ. eigenvalues --   -0.33483  -0.32498  -0.32319  -0.31904  -0.26571
 Alpha  occ. eigenvalues --   -0.21307
 Alpha virt. eigenvalues --   -0.07942  -0.02207  -0.00564   0.00969   0.01248
 Alpha virt. eigenvalues --    0.01456   0.02287   0.02848   0.04568   0.04579
 Alpha virt. eigenvalues --    0.05999   0.06305   0.07808   0.07999   0.08111

 Mulliken charges:
               1
     1  Mg   0.440114
     2  C   -0.030747
     3  C   -0.062152
     4  C   -0.090512
     5  C   -0.085629
     6  N   -0.291998
     7  C    0.099074
     8  C    0.005136
     9  C    0.003068
    10  C    0.125931
    11  C   -0.049502
    12  C   -0.024371
    13  C    0.005187
    14  C    0.470730
    15  O   -0.509675
    16  O   -0.265663
    17  N   -0.312909
    18  C    0.119013
    19  C    0.043643
    20  C   -0.069566
    21  C    0.156024
    22  C   -0.037192
    23  C    0.323086
    24  O   -0.504908
    25  C   -0.032337
    26  N   -0.276888
    27  C    0.124621
    28  C   -0.007956
    29  C    0.002420
    30  C    0.124736
    31  C   -0.054365
    32  C   -0.032173
    33  C   -0.057233
    34  N   -0.305804
    35  C    0.077112
    36  C    0.015692
    37  C   -0.067519
    38  C    0.119010
    39  C   -0.040069
    40  C    0.338210
    41  O   -0.531648
    42  C    0.059272
    43  C    0.501330
    44  O   -0.533855
    45  O   -0.270552
    46  C    0.076696
    47  C    0.113150
    48  C   -0.074225
    49  C   -0.018187
    50  C   -0.054312
    51  C   -0.027522
    52  C   -0.033511
    53  C   -0.036653
    54  C   -0.019252
    55  C   -0.058864
    56  C   -0.039373
    57  C   -0.035645
    58  C   -0.041863
    59  C   -0.023212
    60  C   -0.068124
    61  C   -0.042642
    62  C   -0.031853
    63  C   -0.026786
    64  C   -0.013854
    65  C   -0.050095
    66  C   -0.065327
    67  H    0.026704
    68  H    0.024006
    69  H    0.021679
    70  H    0.040125
    71  H    0.048816
    72  H    0.023750
    73  H    0.027660
    74  H    0.028334
    75  H    0.016464
    76  H    0.035193
    77  H    0.047163
    78  H    0.036956
    79  H    0.049737
    80  H    0.020052
    81  H    0.032245
    82  H    0.041251
    83  H    0.035423
    84  H    0.042156
    85  H    0.036208
    86  H    0.034496
    87  H    0.026262
    88  H    0.020349
    89  H    0.018436
    90  H    0.026962
    91  H    0.013206
    92  H    0.026982
    93  H    0.023705
    94  H    0.027084
    95  H    0.024701
    96  H    0.034036
    97  H    0.043830
    98  H    0.042808
    99  H    0.057739
   100  H    0.031032
   101  H    0.029578
   102  H    0.039024
   103  H    0.050150
   104  H    0.027382
   105  H    0.035610
   106  H    0.019193
   107  H    0.028201
   108  H    0.026462
   109  H    0.017465
   110  H    0.026282
   111  H    0.028169
   112  H    0.007733
   113  H    0.026371
   114  H    0.024037
   115  H    0.018961
   116  H    0.021996
   117  H    0.017827
   118  H    0.009806
   119  H    0.021737
   120  H    0.020689
   121  H    0.024635
   122  H    0.020022
   123  H    0.015635
   124  H    0.022115
   125  H    0.025532
   126  H    0.019083
   127  H    0.015430
   128  H    0.010026
   129  H    0.024223
   130  H    0.012913
   131  H    0.028932
   132  H    0.012276
   133  H    0.032535
   134  H    0.028282
   135  H    0.012860
   136  H    0.008741
   137  H    0.011086
   138  H    0.012481
   139  H    0.019831
   140  H    0.024411
 Sum of Mulliken charges =  -0.00000

 Dipole moment (field-independent basis, Debye):
    X=              2.1604    Y=              3.4207    Z=             -0.5873  Tot=              4.0882
 N-N= 4.498488132416D+03 E-N= 0.000000000000D+00  KE=-9.671074133674D+03
 Leave Link  601 at Wed May  4 16:56:28 2022, MaxMem=  6710886400 cpu:               4.9 elap:               0.2
 (Enter /sw/apps/gaussian-16.0/g16/l9999.exe)
 1\1\GINC-BP1-COMPUTE219\SP\RZINDO CIS\STO-3G\C55H74Mg1N4O6\OF15641\04-
 May-2022\0\\#p ZINDO=(nstates=5)\\step_1_chromophore_26 ZINDO\\0,1\Mg,
 0,-9.126,18.73,43.07\C,0,-5.623,18.445,42.867\C,0,-8.711,22.083,42.246
 \C,0,-12.431,19.033,42.793\C,0,-9.303,15.266,42.957\N,0,-7.32,20.025,4
 2.453\C,0,-5.967,19.766,42.554\C,0,-5.07,20.986,42.549\C,0,-6.066,22.1
 57,42.373\C,0,-7.448,21.426,42.335\C,0,-5.986,23.258,43.507\C,0,-3.936
 ,21.031,41.43\C,0,-4.226,20.351,40.082\C,0,-4.566,21.252,38.858\O,0,-4

 Normal termination of Gaussian 16 at Wed May  4 16:56:28 2022.
