 Gaussian 16, Revision A.03,
 Gaussian 16:  ES64L-G16RevA.03 25-Dec-2016

 ------------------------------
 #p blyp/Def2SVP td=(nstates=5)
 ------------------------------

 ---------------------------------------------------
 step_1301_chromophore_10 TDDFT with blyp functional
 ---------------------------------------------------
 Symbolic Z-matrix:
 Charge =  0 Multiplicity = 1

                         Standard orientation:
 ---------------------------------------------------------------------
 Center     Atomic      Atomic             Coordinates (Angstroms)
 Number     Number       Type             X           Y           Z
 ---------------------------------------------------------------------
      1         12           0        5.470859    0.866492    0.014753
      2          6           0        3.984041   -2.326642    0.459870
      3          6           0        2.634547    1.987945   -1.604373
      4          6           0        6.953374    3.892268   -0.641246
      5          6           0        8.392173   -0.191812    1.472204
      6          7           0        3.617235   -0.153027   -0.544260
      7          6           0        3.144228   -1.420587   -0.284675
      8          6           0        1.788538   -1.712719   -0.827907
      9          6           0        1.561735   -0.351931   -1.637464
     10          6           0        2.677989    0.566184   -1.267633
     11          6           0        1.241624   -0.439427   -3.181807
     12          6           0        0.878874   -1.857740    0.373653
     13          6           0        0.068378   -3.160714    0.530911
     14          6           0       -1.469332   -3.090898    0.657208
     15          8           0       -2.156008   -2.373449    1.371102
     16          8           0       -2.034265   -4.119778   -0.053274
     17          7           0        4.888002    2.716734   -0.871867
     18          6           0        3.649223    2.977729   -1.458106
     19          6           0        3.635762    4.423511   -1.895335
     20          6           0        4.871996    4.940538   -1.480782
     21          6           0        5.623541    3.841824   -0.992895
     22          6           0        2.496392    5.143726   -2.562321
     23          6           0        5.295309    6.414289   -1.661749
     24          8           0        6.482349    6.680491   -1.485532
     25          6           0        4.336755    7.578824   -1.968135
     26          7           0        7.447692    1.699156    0.242728
     27          6           0        7.823437    2.942746   -0.132937
     28          6           0        9.343390    3.243471    0.184790
     29          6           0        9.676569    1.999952    1.132473
     30          6           0        8.417305    1.075240    0.935676
     31          6           0       10.210450    3.470966   -1.012671
     32          6           0       10.069246    2.341913    2.606474
     33          6           0        8.996781    2.907444    3.515855
     34          7           0        6.155388   -0.872229    0.793532
     35          6           0        7.376215   -1.169796    1.352546
     36          6           0        7.335480   -2.555362    1.846555
     37          6           0        6.015004   -2.994719    1.527168
     38          6           0        5.379680   -1.997787    0.849961
     39          6           0        8.464011   -3.309679    2.492741
     40          6           0        5.167989   -4.170566    1.602048
     41          8           0        5.380838   -5.274704    2.129922
     42          6           0        3.807080   -3.733192    0.996528
     43          6           0        3.719655   -4.699542   -0.186123
     44          8           0        4.506018   -4.756589   -1.115552
     45          8           0        2.696010   -5.522306   -0.076490
     46          6           0        2.502431   -6.589112   -1.095807
     47          6           0       -3.399201   -4.527522    0.148305
     48          6           0       -4.351498   -3.853855   -0.781392
     49          6           0       -5.462726   -4.373389   -1.304141
     50          6           0       -5.925901   -5.796317   -1.234143
     51          6           0       -6.311015   -3.409799   -2.117300
     52          6           0       -7.351365   -2.626141   -1.391793
     53          6           0       -8.682864   -2.891991   -2.065770
     54          6           0       -9.831063   -2.585305   -1.086924
     55          6           0      -11.095439   -3.426288   -1.283333
     56          6           0      -10.200388   -1.099073   -1.092429
     57          6           0      -11.099259   -0.623958    0.032571
     58          6           0      -10.412073    0.264870    1.152429
     59          6           0      -10.546386    1.821364    1.047536
     60          6           0       -9.365174    2.537145    1.737172
     61          6           0      -11.808731    2.289793    1.748325
     62          6           0      -12.515689    3.407044    0.946663
     63          6           0      -13.964707    3.754731    1.448445
     64          6           0      -14.181852    5.302101    1.427108
     65          6           0      -14.270183    5.920411    2.828012
     66          6           0      -15.415138    5.640667    0.555775
     67          1           0        1.786104    2.413109   -2.143550
     68          1           0        7.497112    4.803498   -0.900654
     69          1           0        9.291027   -0.426875    2.046041
     70          1           0        1.925006   -2.544686   -1.518400
     71          1           0        0.769905    0.160497   -1.090629
     72          1           0        1.863227    0.270601   -3.727264
     73          1           0        0.216699   -0.093209   -3.320110
     74          1           0        1.362475   -1.430507   -3.618725
     75          1           0        0.104200   -1.089561    0.374977
     76          1           0        1.366482   -1.751358    1.342386
     77          1           0        0.313976   -3.587353    1.504103
     78          1           0        0.507928   -3.897358   -0.142114
     79          1           0        1.941620    5.769354   -1.862680
     80          1           0        1.705577    4.436484   -2.811110
     81          1           0        2.889909    5.493501   -3.515754
     82          1           0        3.755700    7.489408   -2.885988
     83          1           0        4.935369    8.489528   -1.961569
     84          1           0        3.658454    7.623046   -1.115145
     85          1           0        9.368624    4.193465    0.718860
     86          1           0       10.494889    1.418606    0.708723
     87          1           0       10.351591    2.568482   -1.607292
     88          1           0       11.179475    3.841727   -0.677587
     89          1           0        9.898266    4.210158   -1.750606
     90          1           0       10.851845    3.082027    2.438336
     91          1           0       10.512831    1.447728    3.044658
     92          1           0        8.013504    2.841513    3.049297
     93          1           0        9.197635    3.954785    3.741451
     94          1           0        8.836290    2.327112    4.424893
     95          1           0        8.144054   -3.819072    3.402130
     96          1           0        9.286708   -2.618819    2.674083
     97          1           0        8.835497   -4.154811    1.911899
     98          1           0        3.017970   -3.945869    1.718008
     99          1           0        2.699024   -6.354902   -2.142543
    100          1           0        1.457114   -6.894670   -1.121058
    101          1           0        3.166886   -7.431444   -0.903456
    102          1           0       -3.692664   -4.200537    1.146119
    103          1           0       -3.478976   -5.612607    0.218713
    104          1           0       -4.098755   -2.830337   -1.057010
    105          1           0       -5.246045   -6.591501   -1.540010
    106          1           0       -6.944121   -5.864024   -1.615878
    107          1           0       -6.021930   -5.992633   -0.166406
    108          1           0       -6.769122   -4.077738   -2.846886
    109          1           0       -5.572271   -2.885678   -2.724872
    110          1           0       -7.081314   -1.571378   -1.340147
    111          1           0       -7.355916   -3.016522   -0.373607
    112          1           0       -8.852413   -3.817404   -2.617585
    113          1           0       -8.686587   -2.110395   -2.826319
    114          1           0       -9.480789   -2.834432   -0.085605
    115          1           0      -12.008866   -2.834879   -1.357204
    116          1           0      -11.251252   -4.056159   -0.408207
    117          1           0      -11.127136   -4.036508   -2.185568
    118          1           0      -10.660668   -0.929934   -2.065383
    119          1           0       -9.248945   -0.581860   -0.971467
    120          1           0      -11.377244   -1.557955    0.519770
    121          1           0      -11.986947   -0.160221   -0.396893
    122          1           0       -9.354771    0.014929    1.060195
    123          1           0      -10.829368   -0.110943    2.086951
    124          1           0      -10.504698    2.096739   -0.005681
    125          1           0       -8.489219    1.893816    1.656314
    126          1           0       -9.625549    2.809302    2.760521
    127          1           0       -9.109749    3.350255    1.058716
    128          1           0      -11.706515    2.500338    2.813166
    129          1           0      -12.435736    1.405788    1.632345
    130          1           0      -12.748413    3.020728   -0.045843
    131          1           0      -11.920828    4.315370    0.847640
    132          1           0      -14.166655    3.292609    2.414899
    133          1           0      -14.630104    3.289212    0.720827
    134          1           0      -13.318052    5.862276    1.072333
    135          1           0      -14.354176    6.995528    2.671492
    136          1           0      -13.359854    5.746377    3.401004
    137          1           0      -15.156076    5.567125    3.355398
    138          1           0      -15.188786    6.539884   -0.018075
    139          1           0      -16.275467    5.966059    1.139562
    140          1           0      -15.770370    4.806507   -0.049178
 ---------------------------------------------------------------------

 SCF Done:  E(RB-LYP) =  -3007.38772761     A.U. after   21 cycles

 Excitation energies and oscillator strengths:

 Excited State   1:      Singlet-A      1.8083 eV  685.63 nm  f=0.3000  <S**2>=0.000
     245 -> 248        0.20137
     246 -> 247        0.68784
     246 <- 247       -0.14808
 This state for optimization and/or second-order correction.
 Total Energy, E(TD-HF/TD-DFT) =  -3007.32127242
 Copying the excited state density for this state as the 1-particle RhoCI density.

 Excited State   2:      Singlet-A      1.9983 eV  620.46 nm  f=0.0359  <S**2>=0.000
     244 -> 247        0.52788
     245 -> 247       -0.43580
     246 -> 248        0.15927

 Excited State   3:      Singlet-A      2.0181 eV  614.37 nm  f=0.0486  <S**2>=0.000
     244 -> 247        0.46935
     245 -> 247        0.48472
     246 -> 248       -0.19194

 Excited State   4:      Singlet-A      2.1378 eV  579.97 nm  f=0.0003  <S**2>=0.000
     243 -> 247        0.70459

 Excited State   5:      Singlet-A      2.2960 eV  540.01 nm  f=0.0001  <S**2>=0.000
     242 -> 247        0.70702

 The electronic state is 1-A.
 Alpha  occ. eigenvalues --  -46.26643 -18.82934 -18.81338 -18.77013 -18.76041
 Alpha  occ. eigenvalues --  -18.75630 -18.75324 -14.03602 -14.02569 -14.01006
 Alpha  occ. eigenvalues --  -14.00375 -10.04610 -10.03641 -10.00740  -9.99249
 Alpha  occ. eigenvalues --   -9.98281  -9.97576  -9.97340  -9.96986  -9.96172
 Alpha  occ. eigenvalues --   -9.95677  -9.95599  -9.95185  -9.95067  -9.94588
 Alpha  occ. eigenvalues --   -9.94320  -9.94281  -9.94249  -9.94221  -9.94151
 Alpha  occ. eigenvalues --   -9.93786  -9.93752  -9.93701  -9.93631  -9.93544
 Alpha  occ. eigenvalues --   -9.93368  -9.93196  -9.92966  -9.92813  -9.92649
 Alpha  occ. eigenvalues --   -9.92554  -9.92431  -9.92236  -9.92134  -9.91798
 Alpha  occ. eigenvalues --   -9.91765  -9.91687  -9.91448  -9.91420  -9.91381
 Alpha  occ. eigenvalues --   -9.91351  -9.91133  -9.91066  -9.91003  -9.90938
 Alpha  occ. eigenvalues --   -9.90920  -9.90904  -9.90773  -9.90710  -9.90697
 Alpha  occ. eigenvalues --   -9.90651  -9.90623  -9.90618  -9.90564  -9.90340
 Alpha  occ. eigenvalues --   -9.90145  -2.91267  -1.71707  -1.71126  -1.70990
 Alpha  occ. eigenvalues --   -0.99107  -0.97833  -0.91852  -0.90071  -0.89744
 Alpha  occ. eigenvalues --   -0.89225  -0.86134  -0.85614  -0.85231  -0.84582
 Alpha  occ. eigenvalues --   -0.75092  -0.74454  -0.73292  -0.73007  -0.72261
 Alpha  occ. eigenvalues --   -0.71767  -0.71407  -0.70863  -0.70704  -0.70546
 Alpha  occ. eigenvalues --   -0.69363  -0.68827  -0.68442  -0.67595  -0.67397
 Alpha  occ. eigenvalues --   -0.66340  -0.65899  -0.65339  -0.65204  -0.64567
 Alpha  occ. eigenvalues --   -0.64247  -0.63063  -0.62572  -0.61865  -0.61172
 Alpha  occ. eigenvalues --   -0.60823  -0.60007  -0.59671  -0.59387  -0.58894
 Alpha  occ. eigenvalues --   -0.58377  -0.57156  -0.56777  -0.55621  -0.54826
 Alpha  occ. eigenvalues --   -0.53801  -0.53560  -0.52689  -0.52441  -0.51422
 Alpha  occ. eigenvalues --   -0.51315  -0.50720  -0.50511  -0.50092  -0.49760
 Alpha  occ. eigenvalues --   -0.49334  -0.49010  -0.48805  -0.48048  -0.47027
 Alpha  occ. eigenvalues --   -0.46497  -0.45722  -0.45392  -0.44852  -0.44642
 Alpha  occ. eigenvalues --   -0.44400  -0.43585  -0.42838  -0.42572  -0.42330
 Alpha  occ. eigenvalues --   -0.42203  -0.41834  -0.41674  -0.41541  -0.41402
 Alpha  occ. eigenvalues --   -0.40814  -0.40748  -0.40727  -0.40322  -0.40191
 Alpha  occ. eigenvalues --   -0.40056  -0.39631  -0.39596  -0.39545  -0.39142
 Alpha  occ. eigenvalues --   -0.38991  -0.38788  -0.38510  -0.38439  -0.38083
 Alpha  occ. eigenvalues --   -0.37707  -0.37541  -0.37368  -0.37245  -0.37132
 Alpha  occ. eigenvalues --   -0.36953  -0.36777  -0.36681  -0.36653  -0.36518
 Alpha  occ. eigenvalues --   -0.36341  -0.36145  -0.35922  -0.35785  -0.35517
 Alpha  occ. eigenvalues --   -0.35397  -0.35214  -0.35102  -0.34661  -0.34398
 Alpha  occ. eigenvalues --   -0.34310  -0.34279  -0.33942  -0.33910  -0.33628
 Alpha  occ. eigenvalues --   -0.33436  -0.33432  -0.33361  -0.33293  -0.33185
 Alpha  occ. eigenvalues --   -0.32912  -0.32690  -0.32595  -0.32483  -0.32334
 Alpha  occ. eigenvalues --   -0.32255  -0.32128  -0.31755  -0.31554  -0.31048
 Alpha  occ. eigenvalues --   -0.30934  -0.30871  -0.30804  -0.30730  -0.30675
 Alpha  occ. eigenvalues --   -0.30583  -0.30289  -0.30199  -0.29735  -0.29559
 Alpha  occ. eigenvalues --   -0.29422  -0.29348  -0.29139  -0.28990  -0.28942
 Alpha  occ. eigenvalues --   -0.28768  -0.28318  -0.28256  -0.28004  -0.27813
 Alpha  occ. eigenvalues --   -0.27345  -0.27333  -0.27018  -0.26350  -0.26347
 Alpha  occ. eigenvalues --   -0.26081  -0.26002  -0.25839  -0.25395  -0.25364
 Alpha  occ. eigenvalues --   -0.25248  -0.24554  -0.24218  -0.23659  -0.23441
 Alpha  occ. eigenvalues --   -0.23234  -0.22282  -0.21900  -0.21371  -0.20674
 Alpha  occ. eigenvalues --   -0.19808  -0.19677  -0.18985  -0.18526  -0.16929
 Alpha  occ. eigenvalues --   -0.15531
 Alpha virt. eigenvalues --   -0.11240  -0.06558  -0.06189  -0.04618  -0.02795
 Alpha virt. eigenvalues --   -0.01803  -0.01652  -0.01119  -0.00947   0.00024
 Alpha virt. eigenvalues --    0.01419   0.01507   0.02602   0.02831   0.02866

 Mulliken charges:
               1
     1  Mg   0.697191
     2  C    0.014644
     3  C   -0.060009
     4  C   -0.076617
     5  C   -0.077156
     6  N   -0.229295
     7  C   -0.119339
     8  C    0.074615
     9  C    0.014670
    10  C    0.046007
    11  C    0.142583
    12  C    0.125005
    13  C    0.105786
    14  C    0.073894
    15  O   -0.188415
    16  O   -0.265617
    17  N   -0.262279
    18  C    0.089704
    19  C   -0.169700
    20  C    0.053305
    21  C    0.124258
    22  C    0.193455
    23  C   -0.074882
    24  O   -0.165020
    25  C    0.142002
    26  N   -0.192025
    27  C   -0.016098
    28  C    0.040868
    29  C    0.026847
    30  C    0.007454
    31  C    0.123992
    32  C    0.086124
    33  C    0.073946
    34  N   -0.296700
    35  C    0.140689
    36  C   -0.158736
    37  C    0.099167
    38  C    0.088704
    39  C    0.172732
    40  C   -0.062986
    41  O   -0.156562
    42  C    0.075520
    43  C    0.063874
    44  O   -0.190001
    45  O   -0.226923
    46  C    0.213628
    47  C    0.329349
    48  C   -0.076775
    49  C   -0.211654
    50  C    0.163578
    51  C    0.130738
    52  C    0.125815
    53  C    0.107441
    54  C   -0.088299
    55  C    0.115456
    56  C    0.080985
    57  C    0.096814
    58  C    0.093179
    59  C   -0.077443
    60  C    0.135797
    61  C    0.122689
    62  C    0.030177
    63  C    0.129553
    64  C   -0.089165
    65  C    0.090061
    66  C    0.102512
    67  H   -0.068684
    68  H   -0.047367
    69  H   -0.068747
    70  H   -0.003639
    71  H   -0.025418
    72  H   -0.005820
    73  H   -0.008148
    74  H    0.000796
    75  H   -0.012469
    76  H   -0.004597
    77  H    0.007654
    78  H   -0.014295
    79  H    0.013961
    80  H   -0.038314
    81  H    0.020189
    82  H    0.009964
    83  H   -0.002257
    84  H    0.005196
    85  H   -0.027104
    86  H   -0.036989
    87  H   -0.016591
    88  H   -0.013715
    89  H   -0.003646
    90  H   -0.019253
    91  H   -0.017478
    92  H   -0.004847
    93  H   -0.003056
    94  H   -0.009900
    95  H    0.001193
    96  H   -0.020675
    97  H    0.004721
    98  H   -0.009593
    99  H    0.012522
   100  H    0.017640
   101  H    0.025709
   102  H   -0.011127
   103  H   -0.019446
   104  H   -0.040594
   105  H    0.012079
   106  H   -0.015738
   107  H   -0.012629
   108  H   -0.051892
   109  H   -0.031066
   110  H   -0.010817
   111  H   -0.027982
   112  H   -0.026799
   113  H   -0.040519
   114  H   -0.046374
   115  H   -0.023735
   116  H   -0.017880
   117  H   -0.024673
   118  H   -0.036622
   119  H   -0.046617
   120  H   -0.042827
   121  H   -0.031796
   122  H   -0.040753
   123  H   -0.031380
   124  H   -0.044515
   125  H   -0.033964
   126  H   -0.006590
   127  H   -0.023981
   128  H   -0.022637
   129  H   -0.046297
   130  H   -0.030978
   131  H   -0.025077
   132  H   -0.032296
   133  H   -0.040048
   134  H   -0.028398
   135  H   -0.023017
   136  H   -0.016014
   137  H   -0.014088
   138  H   -0.021815
   139  H   -0.028479
   140  H   -0.012672
 Sum of Mulliken charges =  -0.00000

 Dipole moment (field-independent basis, Debye):
    X=             -3.6499    Y=              1.6984    Z=             -2.3695  Tot=              4.6712
 Quadrupole moment (field-independent basis, Debye-Ang):
   XX=           -405.2124   YY=           -405.6130   ZZ=           -404.3463
   XY=             25.2736   XZ=             14.1226   YZ=              8.0194

 Normal termination of Gaussian 16 at Wed May  4 03:16:56 2022.
