 Gaussian 16, Revision A.03,
 Gaussian 16:  ES64L-G16RevA.03 25-Dec-2016

 -----------------------------------
 #p cam-b3lyp/Def2SVP td=(nstates=5)
 -----------------------------------

 --------------------------------------------------------
 step_1301_chromophore_10 TDDFT with cam-b3lyp functional
 --------------------------------------------------------
 Symbolic Z-matrix:
 Charge =  0 Multiplicity = 1

                         Standard orientation:
 ---------------------------------------------------------------------
 Center     Atomic      Atomic             Coordinates (Angstroms)
 Number     Number       Type             X           Y           Z
 ---------------------------------------------------------------------
      1         12           0        5.470859    0.866492    0.014753
      2          6           0        3.984041   -2.326642    0.459870
      3          6           0        2.634547    1.987945   -1.604373
      4          6           0        6.953374    3.892268   -0.641246
      5          6           0        8.392173   -0.191812    1.472204
      6          7           0        3.617235   -0.153027   -0.544260
      7          6           0        3.144228   -1.420587   -0.284675
      8          6           0        1.788538   -1.712719   -0.827907
      9          6           0        1.561735   -0.351931   -1.637464
     10          6           0        2.677989    0.566184   -1.267633
     11          6           0        1.241624   -0.439427   -3.181807
     12          6           0        0.878874   -1.857740    0.373653
     13          6           0        0.068378   -3.160714    0.530911
     14          6           0       -1.469332   -3.090898    0.657208
     15          8           0       -2.156008   -2.373449    1.371102
     16          8           0       -2.034265   -4.119778   -0.053274
     17          7           0        4.888002    2.716734   -0.871867
     18          6           0        3.649223    2.977729   -1.458106
     19          6           0        3.635762    4.423511   -1.895335
     20          6           0        4.871996    4.940538   -1.480782
     21          6           0        5.623541    3.841824   -0.992895
     22          6           0        2.496392    5.143726   -2.562321
     23          6           0        5.295309    6.414289   -1.661749
     24          8           0        6.482349    6.680491   -1.485532
     25          6           0        4.336755    7.578824   -1.968135
     26          7           0        7.447692    1.699156    0.242728
     27          6           0        7.823437    2.942746   -0.132937
     28          6           0        9.343390    3.243471    0.184790
     29          6           0        9.676569    1.999952    1.132473
     30          6           0        8.417305    1.075240    0.935676
     31          6           0       10.210450    3.470966   -1.012671
     32          6           0       10.069246    2.341913    2.606474
     33          6           0        8.996781    2.907444    3.515855
     34          7           0        6.155388   -0.872229    0.793532
     35          6           0        7.376215   -1.169796    1.352546
     36          6           0        7.335480   -2.555362    1.846555
     37          6           0        6.015004   -2.994719    1.527168
     38          6           0        5.379680   -1.997787    0.849961
     39          6           0        8.464011   -3.309679    2.492741
     40          6           0        5.167989   -4.170566    1.602048
     41          8           0        5.380838   -5.274704    2.129922
     42          6           0        3.807080   -3.733192    0.996528
     43          6           0        3.719655   -4.699542   -0.186123
     44          8           0        4.506018   -4.756589   -1.115552
     45          8           0        2.696010   -5.522306   -0.076490
     46          6           0        2.502431   -6.589112   -1.095807
     47          6           0       -3.399201   -4.527522    0.148305
     48          6           0       -4.351498   -3.853855   -0.781392
     49          6           0       -5.462726   -4.373389   -1.304141
     50          6           0       -5.925901   -5.796317   -1.234143
     51          6           0       -6.311015   -3.409799   -2.117300
     52          6           0       -7.351365   -2.626141   -1.391793
     53          6           0       -8.682864   -2.891991   -2.065770
     54          6           0       -9.831063   -2.585305   -1.086924
     55          6           0      -11.095439   -3.426288   -1.283333
     56          6           0      -10.200388   -1.099073   -1.092429
     57          6           0      -11.099259   -0.623958    0.032571
     58          6           0      -10.412073    0.264870    1.152429
     59          6           0      -10.546386    1.821364    1.047536
     60          6           0       -9.365174    2.537145    1.737172
     61          6           0      -11.808731    2.289793    1.748325
     62          6           0      -12.515689    3.407044    0.946663
     63          6           0      -13.964707    3.754731    1.448445
     64          6           0      -14.181852    5.302101    1.427108
     65          6           0      -14.270183    5.920411    2.828012
     66          6           0      -15.415138    5.640667    0.555775
     67          1           0        1.786104    2.413109   -2.143550
     68          1           0        7.497112    4.803498   -0.900654
     69          1           0        9.291027   -0.426875    2.046041
     70          1           0        1.925006   -2.544686   -1.518400
     71          1           0        0.769905    0.160497   -1.090629
     72          1           0        1.863227    0.270601   -3.727264
     73          1           0        0.216699   -0.093209   -3.320110
     74          1           0        1.362475   -1.430507   -3.618725
     75          1           0        0.104200   -1.089561    0.374977
     76          1           0        1.366482   -1.751358    1.342386
     77          1           0        0.313976   -3.587353    1.504103
     78          1           0        0.507928   -3.897358   -0.142114
     79          1           0        1.941620    5.769354   -1.862680
     80          1           0        1.705577    4.436484   -2.811110
     81          1           0        2.889909    5.493501   -3.515754
     82          1           0        3.755700    7.489408   -2.885988
     83          1           0        4.935369    8.489528   -1.961569
     84          1           0        3.658454    7.623046   -1.115145
     85          1           0        9.368624    4.193465    0.718860
     86          1           0       10.494889    1.418606    0.708723
     87          1           0       10.351591    2.568482   -1.607292
     88          1           0       11.179475    3.841727   -0.677587
     89          1           0        9.898266    4.210158   -1.750606
     90          1           0       10.851845    3.082027    2.438336
     91          1           0       10.512831    1.447728    3.044658
     92          1           0        8.013504    2.841513    3.049297
     93          1           0        9.197635    3.954785    3.741451
     94          1           0        8.836290    2.327112    4.424893
     95          1           0        8.144054   -3.819072    3.402130
     96          1           0        9.286708   -2.618819    2.674083
     97          1           0        8.835497   -4.154811    1.911899
     98          1           0        3.017970   -3.945869    1.718008
     99          1           0        2.699024   -6.354902   -2.142543
    100          1           0        1.457114   -6.894670   -1.121058
    101          1           0        3.166886   -7.431444   -0.903456
    102          1           0       -3.692664   -4.200537    1.146119
    103          1           0       -3.478976   -5.612607    0.218713
    104          1           0       -4.098755   -2.830337   -1.057010
    105          1           0       -5.246045   -6.591501   -1.540010
    106          1           0       -6.944121   -5.864024   -1.615878
    107          1           0       -6.021930   -5.992633   -0.166406
    108          1           0       -6.769122   -4.077738   -2.846886
    109          1           0       -5.572271   -2.885678   -2.724872
    110          1           0       -7.081314   -1.571378   -1.340147
    111          1           0       -7.355916   -3.016522   -0.373607
    112          1           0       -8.852413   -3.817404   -2.617585
    113          1           0       -8.686587   -2.110395   -2.826319
    114          1           0       -9.480789   -2.834432   -0.085605
    115          1           0      -12.008866   -2.834879   -1.357204
    116          1           0      -11.251252   -4.056159   -0.408207
    117          1           0      -11.127136   -4.036508   -2.185568
    118          1           0      -10.660668   -0.929934   -2.065383
    119          1           0       -9.248945   -0.581860   -0.971467
    120          1           0      -11.377244   -1.557955    0.519770
    121          1           0      -11.986947   -0.160221   -0.396893
    122          1           0       -9.354771    0.014929    1.060195
    123          1           0      -10.829368   -0.110943    2.086951
    124          1           0      -10.504698    2.096739   -0.005681
    125          1           0       -8.489219    1.893816    1.656314
    126          1           0       -9.625549    2.809302    2.760521
    127          1           0       -9.109749    3.350255    1.058716
    128          1           0      -11.706515    2.500338    2.813166
    129          1           0      -12.435736    1.405788    1.632345
    130          1           0      -12.748413    3.020728   -0.045843
    131          1           0      -11.920828    4.315370    0.847640
    132          1           0      -14.166655    3.292609    2.414899
    133          1           0      -14.630104    3.289212    0.720827
    134          1           0      -13.318052    5.862276    1.072333
    135          1           0      -14.354176    6.995528    2.671492
    136          1           0      -13.359854    5.746377    3.401004
    137          1           0      -15.156076    5.567125    3.355398
    138          1           0      -15.188786    6.539884   -0.018075
    139          1           0      -16.275467    5.966059    1.139562
    140          1           0      -15.770370    4.806507   -0.049178
 ---------------------------------------------------------------------

 SCF Done:  E(RCAM-B3LYP) =  -3007.18531319     A.U. after   19 cycles

 Excitation energies and oscillator strengths:

 Excited State   1:      Singlet-A      1.7350 eV  714.59 nm  f=0.3730  <S**2>=0.000
     245 -> 248        0.18294
     246 -> 247        0.68515
     245 <- 248        0.10785
 This state for optimization and/or second-order correction.
 Total Energy, E(TD-HF/TD-DFT) =  -3007.12155206
 Copying the excited state density for this state as the 1-particle RhoCI density.

 Excited State   2:      Singlet-A      2.2305 eV  555.86 nm  f=0.1189  <S**2>=0.000
     245 -> 247        0.63835
     246 -> 248       -0.29239

 Excited State   3:      Singlet-A      3.3801 eV  366.80 nm  f=0.0061  <S**2>=0.000
     242 -> 247       -0.20369
     244 -> 247        0.66400

 Excited State   4:      Singlet-A      3.5295 eV  351.28 nm  f=0.5346  <S**2>=0.000
     240 -> 247       -0.19943
     242 -> 247        0.23903
     245 -> 247        0.23591
     246 -> 248        0.57566
     245 <- 247       -0.10014

 Excited State   5:      Singlet-A      3.6369 eV  340.90 nm  f=0.2056  <S**2>=0.000
     239 -> 249        0.12580
     240 -> 247       -0.29093
     240 -> 249        0.12102
     241 -> 247        0.23284
     241 -> 249        0.13365
     241 -> 250        0.14792
     242 -> 247        0.41260
     244 -> 247        0.11332
     245 -> 247       -0.15567
     246 -> 248       -0.22605

 The electronic state is 1-A.
 Alpha  occ. eigenvalues --  -46.88112 -19.25805 -19.24136 -19.19970 -19.19659
 Alpha  occ. eigenvalues --  -19.18509 -19.18191 -14.42521 -14.41392 -14.39669
 Alpha  occ. eigenvalues --  -14.38480 -10.39942 -10.38823 -10.36323 -10.34318
 Alpha  occ. eigenvalues --  -10.32299 -10.32277 -10.31533 -10.31299 -10.31154
 Alpha  occ. eigenvalues --  -10.30396 -10.29781 -10.29644 -10.29362 -10.28879
 Alpha  occ. eigenvalues --  -10.28563 -10.28522 -10.28464 -10.28260 -10.28207
 Alpha  occ. eigenvalues --  -10.28079 -10.27974 -10.27767 -10.27650 -10.27433
 Alpha  occ. eigenvalues --  -10.27432 -10.27217 -10.27217 -10.27088 -10.26814
 Alpha  occ. eigenvalues --  -10.26246 -10.26209 -10.26113 -10.26046 -10.25442
 Alpha  occ. eigenvalues --  -10.25397 -10.25127 -10.25079 -10.25053 -10.25051
 Alpha  occ. eigenvalues --  -10.24919 -10.24907 -10.24882 -10.24789 -10.24777
 Alpha  occ. eigenvalues --  -10.24619 -10.24587 -10.24581 -10.24402 -10.24335
 Alpha  occ. eigenvalues --  -10.24260 -10.24247 -10.24207 -10.24163 -10.23921
 Alpha  occ. eigenvalues --  -10.23739  -3.16642  -1.91560  -1.91077  -1.90961
 Alpha  occ. eigenvalues --   -1.17561  -1.16271  -1.10626  -1.08126  -1.07571
 Alpha  occ. eigenvalues --   -1.07051  -1.03923  -1.03323  -1.02878  -1.01892
 Alpha  occ. eigenvalues --   -0.92016  -0.91378  -0.90070  -0.89807  -0.88993
 Alpha  occ. eigenvalues --   -0.88635  -0.88047  -0.87674  -0.87469  -0.87136
 Alpha  occ. eigenvalues --   -0.85731  -0.85081  -0.84638  -0.83613  -0.83541
 Alpha  occ. eigenvalues --   -0.82330  -0.81954  -0.81612  -0.81019  -0.80518
 Alpha  occ. eigenvalues --   -0.80063  -0.79059  -0.78120  -0.77314  -0.76559
 Alpha  occ. eigenvalues --   -0.76145  -0.75366  -0.74930  -0.74666  -0.74096
 Alpha  occ. eigenvalues --   -0.73479  -0.72051  -0.71673  -0.70408  -0.69423
 Alpha  occ. eigenvalues --   -0.68369  -0.68047  -0.67232  -0.66832  -0.65682
 Alpha  occ. eigenvalues --   -0.65608  -0.64636  -0.64412  -0.64121  -0.63758
 Alpha  occ. eigenvalues --   -0.63135  -0.62898  -0.62436  -0.61864  -0.60911
 Alpha  occ. eigenvalues --   -0.60015  -0.59268  -0.58877  -0.58268  -0.57991
 Alpha  occ. eigenvalues --   -0.57935  -0.57075  -0.55881  -0.55792  -0.55487
 Alpha  occ. eigenvalues --   -0.55341  -0.54816  -0.54625  -0.54362  -0.54237
 Alpha  occ. eigenvalues --   -0.53920  -0.53724  -0.53441  -0.53000  -0.52891
 Alpha  occ. eigenvalues --   -0.52794  -0.52412  -0.52268  -0.52118  -0.51847
 Alpha  occ. eigenvalues --   -0.51555  -0.51430  -0.51145  -0.51053  -0.50621
 Alpha  occ. eigenvalues --   -0.49980  -0.49924  -0.49752  -0.49702  -0.49516
 Alpha  occ. eigenvalues --   -0.49352  -0.49127  -0.48939  -0.48835  -0.48666
 Alpha  occ. eigenvalues --   -0.48582  -0.48493  -0.48250  -0.48102  -0.47926
 Alpha  occ. eigenvalues --   -0.47498  -0.47373  -0.47041  -0.46717  -0.46335
 Alpha  occ. eigenvalues --   -0.46127  -0.46055  -0.45852  -0.45599  -0.45469
 Alpha  occ. eigenvalues --   -0.45344  -0.45219  -0.45097  -0.45022  -0.44799
 Alpha  occ. eigenvalues --   -0.44626  -0.44279  -0.44224  -0.44066  -0.43933
 Alpha  occ. eigenvalues --   -0.43814  -0.43598  -0.43521  -0.43257  -0.42797
 Alpha  occ. eigenvalues --   -0.42660  -0.42318  -0.42278  -0.42186  -0.42063
 Alpha  occ. eigenvalues --   -0.41864  -0.41661  -0.41499  -0.41392  -0.41080
 Alpha  occ. eigenvalues --   -0.40650  -0.40481  -0.40378  -0.40149  -0.40089
 Alpha  occ. eigenvalues --   -0.39999  -0.39412  -0.39256  -0.38979  -0.38803
 Alpha  occ. eigenvalues --   -0.38246  -0.38180  -0.37869  -0.37673  -0.37131
 Alpha  occ. eigenvalues --   -0.36853  -0.36834  -0.36715  -0.36476  -0.36335
 Alpha  occ. eigenvalues --   -0.36107  -0.35219  -0.34907  -0.34482  -0.33994
 Alpha  occ. eigenvalues --   -0.33817  -0.33713  -0.33049  -0.31781  -0.31174
 Alpha  occ. eigenvalues --   -0.30368  -0.30073  -0.29301  -0.28650  -0.23674
 Alpha  occ. eigenvalues --   -0.20850
 Alpha virt. eigenvalues --   -0.08314  -0.01425   0.00404   0.02473   0.03510
 Alpha virt. eigenvalues --    0.04976   0.05599   0.05902   0.06504   0.06988
 Alpha virt. eigenvalues --    0.08052   0.08436   0.08976   0.09070   0.09216

 Mulliken charges:
               1
     1  Mg   0.830418
     2  C   -0.013541
     3  C   -0.076407
     4  C   -0.092438
     5  C   -0.079731
     6  N   -0.300881
     7  C   -0.073450
     8  C    0.016496
     9  C   -0.044528
    10  C    0.074338
    11  C    0.081897
    12  C    0.070871
    13  C    0.036447
    14  C    0.158553
    15  O   -0.230697
    16  O   -0.331204
    17  N   -0.350341
    18  C    0.104513
    19  C   -0.175202
    20  C   -0.005704
    21  C    0.145949
    22  C    0.129014
    23  C    0.001436
    24  O   -0.204510
    25  C    0.065164
    26  N   -0.264168
    27  C    0.006130
    28  C   -0.014927
    29  C   -0.024593
    30  C    0.017899
    31  C    0.067519
    32  C    0.035549
    33  C    0.008966
    34  N   -0.387265
    35  C    0.138555
    36  C   -0.159700
    37  C    0.018574
    38  C    0.123898
    39  C    0.126319
    40  C    0.033661
    41  O   -0.197417
    42  C    0.000475
    43  C    0.153547
    44  O   -0.228495
    45  O   -0.291592
    46  C    0.175536
    47  C    0.288967
    48  C   -0.093084
    49  C   -0.231699
    50  C    0.097347
    51  C    0.069060
    52  C    0.070104
    53  C    0.046468
    54  C   -0.143333
    55  C    0.052609
    56  C    0.032299
    57  C    0.038999
    58  C    0.044431
    59  C   -0.135587
    60  C    0.077695
    61  C    0.063743
    62  C   -0.016143
    63  C    0.072706
    64  C   -0.150116
    65  C    0.035815
    66  C    0.041624
    67  H   -0.034294
    68  H   -0.006892
    69  H   -0.034508
    70  H    0.030472
    71  H    0.010568
    72  H    0.020101
    73  H    0.016449
    74  H    0.026625
    75  H    0.019453
    76  H    0.028599
    77  H    0.038437
    78  H    0.020282
    79  H    0.042947
    80  H   -0.006605
    81  H    0.047222
    82  H    0.037597
    83  H    0.034151
    84  H    0.033318
    85  H    0.007613
    86  H    0.000186
    87  H    0.008798
    88  H    0.011457
    89  H    0.021433
    90  H    0.007391
    91  H    0.009589
    92  H    0.016640
    93  H    0.019660
    94  H    0.015520
    95  H    0.025650
    96  H    0.000432
    97  H    0.029438
    98  H    0.032832
    99  H    0.037362
   100  H    0.039522
   101  H    0.048914
   102  H    0.022445
   103  H    0.010551
   104  H   -0.006686
   105  H    0.037728
   106  H    0.009937
   107  H    0.011749
   108  H   -0.020349
   109  H    0.000425
   110  H    0.016706
   111  H    0.001266
   112  H    0.002278
   113  H   -0.010061
   114  H   -0.014363
   115  H    0.001227
   116  H    0.006836
   117  H    0.001002
   118  H   -0.007132
   119  H   -0.020363
   120  H   -0.012228
   121  H   -0.004405
   122  H   -0.014606
   123  H   -0.002153
   124  H   -0.011376
   125  H   -0.008153
   126  H    0.016176
   127  H    0.000897
   128  H    0.004867
   129  H   -0.017493
   130  H   -0.003866
   131  H    0.000464
   132  H   -0.003602
   133  H   -0.010552
   134  H    0.002072
   135  H    0.001030
   136  H    0.007586
   137  H    0.008299
   138  H    0.002937
   139  H   -0.003530
   140  H    0.011245
 Sum of Mulliken charges =  -0.00000

 Dipole moment (field-independent basis, Debye):
    X=             -4.1478    Y=              2.8846    Z=             -3.0160  Tot=              5.8840
 Quadrupole moment (field-independent basis, Debye-Ang):
   XX=           -408.8721   YY=           -398.8485   ZZ=           -403.7961
   XY=             31.2508   XZ=             12.1456   YZ=              6.3947

 Normal termination of Gaussian 16 at Wed May  4 02:20:39 2022.
