 Gaussian 16, Revision A.03,
 Gaussian 16:  ES64L-G16RevA.03 25-Dec-2016

 ---------------------------------
 #p PBE1PBE/Def2SVP td=(nstates=5)
 ---------------------------------

 ------------------------------------------------------
 step_1301_chromophore_10 TDDFT with PBE1PBE functional
 ------------------------------------------------------
 Symbolic Z-matrix:
 Charge =  0 Multiplicity = 1

                         Standard orientation:
 ---------------------------------------------------------------------
 Center     Atomic      Atomic             Coordinates (Angstroms)
 Number     Number       Type             X           Y           Z
 ---------------------------------------------------------------------
      1         12           0        5.470859    0.866492    0.014753
      2          6           0        3.984041   -2.326642    0.459870
      3          6           0        2.634547    1.987945   -1.604373
      4          6           0        6.953374    3.892268   -0.641246
      5          6           0        8.392173   -0.191812    1.472204
      6          7           0        3.617235   -0.153027   -0.544260
      7          6           0        3.144228   -1.420587   -0.284675
      8          6           0        1.788538   -1.712719   -0.827907
      9          6           0        1.561735   -0.351931   -1.637464
     10          6           0        2.677989    0.566184   -1.267633
     11          6           0        1.241624   -0.439427   -3.181807
     12          6           0        0.878874   -1.857740    0.373653
     13          6           0        0.068378   -3.160714    0.530911
     14          6           0       -1.469332   -3.090898    0.657208
     15          8           0       -2.156008   -2.373449    1.371102
     16          8           0       -2.034265   -4.119778   -0.053274
     17          7           0        4.888002    2.716734   -0.871867
     18          6           0        3.649223    2.977729   -1.458106
     19          6           0        3.635762    4.423511   -1.895335
     20          6           0        4.871996    4.940538   -1.480782
     21          6           0        5.623541    3.841824   -0.992895
     22          6           0        2.496392    5.143726   -2.562321
     23          6           0        5.295309    6.414289   -1.661749
     24          8           0        6.482349    6.680491   -1.485532
     25          6           0        4.336755    7.578824   -1.968135
     26          7           0        7.447692    1.699156    0.242728
     27          6           0        7.823437    2.942746   -0.132937
     28          6           0        9.343390    3.243471    0.184790
     29          6           0        9.676569    1.999952    1.132473
     30          6           0        8.417305    1.075240    0.935676
     31          6           0       10.210450    3.470966   -1.012671
     32          6           0       10.069246    2.341913    2.606474
     33          6           0        8.996781    2.907444    3.515855
     34          7           0        6.155388   -0.872229    0.793532
     35          6           0        7.376215   -1.169796    1.352546
     36          6           0        7.335480   -2.555362    1.846555
     37          6           0        6.015004   -2.994719    1.527168
     38          6           0        5.379680   -1.997787    0.849961
     39          6           0        8.464011   -3.309679    2.492741
     40          6           0        5.167989   -4.170566    1.602048
     41          8           0        5.380838   -5.274704    2.129922
     42          6           0        3.807080   -3.733192    0.996528
     43          6           0        3.719655   -4.699542   -0.186123
     44          8           0        4.506018   -4.756589   -1.115552
     45          8           0        2.696010   -5.522306   -0.076490
     46          6           0        2.502431   -6.589112   -1.095807
     47          6           0       -3.399201   -4.527522    0.148305
     48          6           0       -4.351498   -3.853855   -0.781392
     49          6           0       -5.462726   -4.373389   -1.304141
     50          6           0       -5.925901   -5.796317   -1.234143
     51          6           0       -6.311015   -3.409799   -2.117300
     52          6           0       -7.351365   -2.626141   -1.391793
     53          6           0       -8.682864   -2.891991   -2.065770
     54          6           0       -9.831063   -2.585305   -1.086924
     55          6           0      -11.095439   -3.426288   -1.283333
     56          6           0      -10.200388   -1.099073   -1.092429
     57          6           0      -11.099259   -0.623958    0.032571
     58          6           0      -10.412073    0.264870    1.152429
     59          6           0      -10.546386    1.821364    1.047536
     60          6           0       -9.365174    2.537145    1.737172
     61          6           0      -11.808731    2.289793    1.748325
     62          6           0      -12.515689    3.407044    0.946663
     63          6           0      -13.964707    3.754731    1.448445
     64          6           0      -14.181852    5.302101    1.427108
     65          6           0      -14.270183    5.920411    2.828012
     66          6           0      -15.415138    5.640667    0.555775
     67          1           0        1.786104    2.413109   -2.143550
     68          1           0        7.497112    4.803498   -0.900654
     69          1           0        9.291027   -0.426875    2.046041
     70          1           0        1.925006   -2.544686   -1.518400
     71          1           0        0.769905    0.160497   -1.090629
     72          1           0        1.863227    0.270601   -3.727264
     73          1           0        0.216699   -0.093209   -3.320110
     74          1           0        1.362475   -1.430507   -3.618725
     75          1           0        0.104200   -1.089561    0.374977
     76          1           0        1.366482   -1.751358    1.342386
     77          1           0        0.313976   -3.587353    1.504103
     78          1           0        0.507928   -3.897358   -0.142114
     79          1           0        1.941620    5.769354   -1.862680
     80          1           0        1.705577    4.436484   -2.811110
     81          1           0        2.889909    5.493501   -3.515754
     82          1           0        3.755700    7.489408   -2.885988
     83          1           0        4.935369    8.489528   -1.961569
     84          1           0        3.658454    7.623046   -1.115145
     85          1           0        9.368624    4.193465    0.718860
     86          1           0       10.494889    1.418606    0.708723
     87          1           0       10.351591    2.568482   -1.607292
     88          1           0       11.179475    3.841727   -0.677587
     89          1           0        9.898266    4.210158   -1.750606
     90          1           0       10.851845    3.082027    2.438336
     91          1           0       10.512831    1.447728    3.044658
     92          1           0        8.013504    2.841513    3.049297
     93          1           0        9.197635    3.954785    3.741451
     94          1           0        8.836290    2.327112    4.424893
     95          1           0        8.144054   -3.819072    3.402130
     96          1           0        9.286708   -2.618819    2.674083
     97          1           0        8.835497   -4.154811    1.911899
     98          1           0        3.017970   -3.945869    1.718008
     99          1           0        2.699024   -6.354902   -2.142543
    100          1           0        1.457114   -6.894670   -1.121058
    101          1           0        3.166886   -7.431444   -0.903456
    102          1           0       -3.692664   -4.200537    1.146119
    103          1           0       -3.478976   -5.612607    0.218713
    104          1           0       -4.098755   -2.830337   -1.057010
    105          1           0       -5.246045   -6.591501   -1.540010
    106          1           0       -6.944121   -5.864024   -1.615878
    107          1           0       -6.021930   -5.992633   -0.166406
    108          1           0       -6.769122   -4.077738   -2.846886
    109          1           0       -5.572271   -2.885678   -2.724872
    110          1           0       -7.081314   -1.571378   -1.340147
    111          1           0       -7.355916   -3.016522   -0.373607
    112          1           0       -8.852413   -3.817404   -2.617585
    113          1           0       -8.686587   -2.110395   -2.826319
    114          1           0       -9.480789   -2.834432   -0.085605
    115          1           0      -12.008866   -2.834879   -1.357204
    116          1           0      -11.251252   -4.056159   -0.408207
    117          1           0      -11.127136   -4.036508   -2.185568
    118          1           0      -10.660668   -0.929934   -2.065383
    119          1           0       -9.248945   -0.581860   -0.971467
    120          1           0      -11.377244   -1.557955    0.519770
    121          1           0      -11.986947   -0.160221   -0.396893
    122          1           0       -9.354771    0.014929    1.060195
    123          1           0      -10.829368   -0.110943    2.086951
    124          1           0      -10.504698    2.096739   -0.005681
    125          1           0       -8.489219    1.893816    1.656314
    126          1           0       -9.625549    2.809302    2.760521
    127          1           0       -9.109749    3.350255    1.058716
    128          1           0      -11.706515    2.500338    2.813166
    129          1           0      -12.435736    1.405788    1.632345
    130          1           0      -12.748413    3.020728   -0.045843
    131          1           0      -11.920828    4.315370    0.847640
    132          1           0      -14.166655    3.292609    2.414899
    133          1           0      -14.630104    3.289212    0.720827
    134          1           0      -13.318052    5.862276    1.072333
    135          1           0      -14.354176    6.995528    2.671492
    136          1           0      -13.359854    5.746377    3.401004
    137          1           0      -15.156076    5.567125    3.355398
    138          1           0      -15.188786    6.539884   -0.018075
    139          1           0      -16.275467    5.966059    1.139562
    140          1           0      -15.770370    4.806507   -0.049178
 ---------------------------------------------------------------------

 SCF Done:  E(RPBE1PBE) =  -3005.37434823     A.U. after   16 cycles

 Excitation energies and oscillator strengths:

 Excited State   1:      Singlet-A      1.8659 eV  664.47 nm  f=0.3619  <S**2>=0.000
     245 -> 248        0.18113
     246 -> 247        0.69120
     246 <- 247       -0.10538
 This state for optimization and/or second-order correction.
 Total Energy, E(TD-HF/TD-DFT) =  -3005.30577769
 Copying the excited state density for this state as the 1-particle RhoCI density.

 Excited State   2:      Singlet-A      2.2315 eV  555.61 nm  f=0.1158  <S**2>=0.000
     245 -> 247        0.65065
     246 -> 248       -0.26927

 Excited State   3:      Singlet-A      3.0062 eV  412.43 nm  f=0.0042  <S**2>=0.000
     241 -> 247       -0.11812
     244 -> 247        0.68451

 Excited State   4:      Singlet-A      3.1102 eV  398.64 nm  f=0.0000  <S**2>=0.000
     242 -> 247        0.66962
     242 -> 249        0.14983
     242 -> 250        0.12437

 Excited State   5:      Singlet-A      3.2240 eV  384.57 nm  f=0.0023  <S**2>=0.000
     240 -> 247        0.54109
     240 -> 249       -0.17019
     241 -> 247       -0.39198

 The electronic state is 1-A.
 Alpha  occ. eigenvalues --  -46.91533 -19.26489 -19.24878 -19.20289 -19.19650
 Alpha  occ. eigenvalues --  -19.18838 -19.18672 -14.42052 -14.40887 -14.39194
 Alpha  occ. eigenvalues --  -14.38345 -10.37015 -10.35943 -10.33276 -10.31699
 Alpha  occ. eigenvalues --  -10.29784 -10.29552 -10.29218 -10.28939 -10.28513
 Alpha  occ. eigenvalues --  -10.27926 -10.27584 -10.27127 -10.26981 -10.26715
 Alpha  occ. eigenvalues --  -10.26508 -10.26406 -10.26222 -10.26207 -10.26019
 Alpha  occ. eigenvalues --  -10.25676 -10.25395 -10.25329 -10.25325 -10.25185
 Alpha  occ. eigenvalues --  -10.25174 -10.24899 -10.24781 -10.24319 -10.24214
 Alpha  occ. eigenvalues --  -10.23915 -10.23874 -10.23847 -10.23428 -10.23059
 Alpha  occ. eigenvalues --  -10.22844 -10.22796 -10.22776 -10.22725 -10.22591
 Alpha  occ. eigenvalues --  -10.22452 -10.22451 -10.22373 -10.22356 -10.22295
 Alpha  occ. eigenvalues --  -10.22158 -10.22157 -10.22110 -10.21959 -10.21876
 Alpha  occ. eigenvalues --  -10.21804 -10.21767 -10.21612 -10.21603 -10.21544
 Alpha  occ. eigenvalues --  -10.21311  -3.13645  -1.86505  -1.85998  -1.85888
 Alpha  occ. eigenvalues --   -1.12427  -1.11130  -1.05133  -1.03052  -1.02482
 Alpha  occ. eigenvalues --   -1.01958  -0.98471  -0.97890  -0.97500  -0.96719
 Alpha  occ. eigenvalues --   -0.86515  -0.85520  -0.84324  -0.83951  -0.83107
 Alpha  occ. eigenvalues --   -0.82804  -0.82285  -0.81783  -0.81564  -0.81433
 Alpha  occ. eigenvalues --   -0.79971  -0.79489  -0.78988  -0.77977  -0.77802
 Alpha  occ. eigenvalues --   -0.76535  -0.76097  -0.75681  -0.75296  -0.74774
 Alpha  occ. eigenvalues --   -0.74221  -0.73201  -0.72482  -0.71695  -0.70750
 Alpha  occ. eigenvalues --   -0.70506  -0.69441  -0.69308  -0.68806  -0.68296
 Alpha  occ. eigenvalues --   -0.67768  -0.66535  -0.66131  -0.64759  -0.63750
 Alpha  occ. eigenvalues --   -0.62804  -0.62382  -0.61628  -0.61029  -0.60128
 Alpha  occ. eigenvalues --   -0.59773  -0.59242  -0.58889  -0.58701  -0.57961
 Alpha  occ. eigenvalues --   -0.57547  -0.57142  -0.57085  -0.56043  -0.55309
 Alpha  occ. eigenvalues --   -0.54366  -0.53832  -0.53496  -0.52792  -0.52579
 Alpha  occ. eigenvalues --   -0.52441  -0.51629  -0.50379  -0.50221  -0.50015
 Alpha  occ. eigenvalues --   -0.49945  -0.49410  -0.49164  -0.48839  -0.48668
 Alpha  occ. eigenvalues --   -0.48402  -0.48023  -0.47821  -0.47615  -0.47498
 Alpha  occ. eigenvalues --   -0.47293  -0.46990  -0.46885  -0.46634  -0.46481
 Alpha  occ. eigenvalues --   -0.46021  -0.45960  -0.45696  -0.45445  -0.45309
 Alpha  occ. eigenvalues --   -0.44555  -0.44454  -0.44310  -0.44234  -0.44057
 Alpha  occ. eigenvalues --   -0.43947  -0.43667  -0.43517  -0.43451  -0.43249
 Alpha  occ. eigenvalues --   -0.43190  -0.43047  -0.42870  -0.42702  -0.42583
 Alpha  occ. eigenvalues --   -0.42114  -0.41968  -0.41656  -0.41382  -0.41106
 Alpha  occ. eigenvalues --   -0.40899  -0.40662  -0.40534  -0.40274  -0.40184
 Alpha  occ. eigenvalues --   -0.40182  -0.39962  -0.39884  -0.39667  -0.39643
 Alpha  occ. eigenvalues --   -0.39378  -0.39040  -0.38911  -0.38829  -0.38754
 Alpha  occ. eigenvalues --   -0.38501  -0.38308  -0.38232  -0.38062  -0.37534
 Alpha  occ. eigenvalues --   -0.37420  -0.37136  -0.37054  -0.36999  -0.36925
 Alpha  occ. eigenvalues --   -0.36615  -0.36534  -0.36317  -0.36193  -0.35992
 Alpha  occ. eigenvalues --   -0.35542  -0.35371  -0.35207  -0.34959  -0.34902
 Alpha  occ. eigenvalues --   -0.34792  -0.34347  -0.34053  -0.33823  -0.33723
 Alpha  occ. eigenvalues --   -0.33160  -0.33026  -0.32673  -0.32638  -0.31939
 Alpha  occ. eigenvalues --   -0.31866  -0.31759  -0.31539  -0.31520  -0.31397
 Alpha  occ. eigenvalues --   -0.30902  -0.30141  -0.29818  -0.29379  -0.29187
 Alpha  occ. eigenvalues --   -0.28790  -0.28765  -0.28472  -0.26924  -0.26086
 Alpha  occ. eigenvalues --   -0.25646  -0.25410  -0.24595  -0.24563  -0.20595
 Alpha  occ. eigenvalues --   -0.18457
 Alpha virt. eigenvalues --   -0.10806  -0.04921  -0.03830  -0.02008   0.00423
 Alpha virt. eigenvalues --    0.00712   0.01204   0.01721   0.02192   0.02873
 Alpha virt. eigenvalues --    0.04129   0.04529   0.05554   0.05739   0.05866

 Mulliken charges:
               1
     1  Mg   0.982058
     2  C   -0.021066
     3  C   -0.065124
     4  C   -0.076983
     5  C   -0.076051
     6  N   -0.405675
     7  C   -0.002888
     8  C   -0.067352
     9  C   -0.117111
    10  C    0.107985
    11  C    0.021451
    12  C    0.031799
    13  C   -0.041309
    14  C    0.226823
    15  O   -0.264764
    16  O   -0.363042
    17  N   -0.464464
    18  C    0.124112
    19  C   -0.207111
    20  C   -0.045297
    21  C    0.161805
    22  C    0.065580
    23  C    0.052973
    24  O   -0.240975
    25  C   -0.007376
    26  N   -0.373486
    27  C    0.041892
    28  C   -0.090299
    29  C   -0.094867
    30  C    0.057696
    31  C    0.011815
    32  C   -0.029960
    33  C   -0.063036
    34  N   -0.515200
    35  C    0.166123
    36  C   -0.175254
    37  C   -0.030509
    38  C    0.183261
    39  C    0.075105
    40  C    0.123835
    41  O   -0.241301
    42  C   -0.117208
    43  C    0.256066
    44  O   -0.262279
    45  O   -0.328025
    46  C    0.119342
    47  C    0.247871
    48  C   -0.102740
    49  C   -0.272261
    50  C    0.032775
    51  C    0.004957
    52  C    0.008758
    53  C   -0.011701
    54  C   -0.232590
    55  C   -0.004244
    56  C   -0.025581
    57  C   -0.021792
    58  C   -0.013086
    59  C   -0.219963
    60  C    0.019990
    61  C    0.003013
    62  C   -0.076823
    63  C    0.019706
    64  C   -0.241605
    65  C   -0.026833
    66  C   -0.018295
    67  H   -0.001075
    68  H    0.025422
    69  H   -0.001732
    70  H    0.066745
    71  H    0.048392
    72  H    0.048037
    73  H    0.043435
    74  H    0.052738
    75  H    0.051771
    76  H    0.060233
    77  H    0.071795
    78  H    0.055550
    79  H    0.068834
    80  H    0.021539
    81  H    0.073626
    82  H    0.062257
    83  H    0.060430
    84  H    0.060409
    85  H    0.044541
    86  H    0.038164
    87  H    0.036240
    88  H    0.039390
    89  H    0.048843
    90  H    0.042183
    91  H    0.040849
    92  H    0.047678
    93  H    0.046974
    94  H    0.042972
    95  H    0.054392
    96  H    0.029636
    97  H    0.058388
    98  H    0.069426
    99  H    0.058629
   100  H    0.060432
   101  H    0.070684
   102  H    0.050832
   103  H    0.037073
   104  H    0.022504
   105  H    0.064042
   106  H    0.037678
   107  H    0.040049
   108  H    0.014016
   109  H    0.033034
   110  H    0.047013
   111  H    0.035059
   112  H    0.031807
   113  H    0.025181
   114  H    0.024972
   115  H    0.028871
   116  H    0.034270
   117  H    0.028404
   118  H    0.026298
   119  H    0.015303
   120  H    0.022408
   121  H    0.027061
   122  H    0.017599
   123  H    0.030200
   124  H    0.025776
   125  H    0.019674
   126  H    0.042356
   127  H    0.029359
   128  H    0.035655
   129  H    0.019374
   130  H    0.029630
   131  H    0.032643
   132  H    0.027706
   133  H    0.022016
   134  H    0.038845
   135  H    0.029809
   136  H    0.036343
   137  H    0.035876
   138  H    0.030700
   139  H    0.023856
   140  H    0.037616
 Sum of Mulliken charges =  -0.00000

 Dipole moment (field-independent basis, Debye):
    X=             -3.9192    Y=              2.3063    Z=             -2.7193  Tot=              5.2984
 Quadrupole moment (field-independent basis, Debye-Ang):
   XX=           -400.8366   YY=           -397.0893   ZZ=           -401.1845
   XY=             28.8337   XZ=             14.6119   YZ=              6.6546

 Normal termination of Gaussian 16 at Wed May  4 02:37:00 2022.
