 Gaussian 16, Revision A.03,
 Gaussian 16:  ES64L-G16RevA.03 25-Dec-2016

 --------------------------------
 #p wB97XD/Def2SVP td=(nstates=5)
 --------------------------------

 -----------------------------------------------------
 step_1301_chromophore_10 TDDFT with wB97XD functional
 -----------------------------------------------------
 Symbolic Z-matrix:
 Charge =  0 Multiplicity = 1

                         Standard orientation:
 ---------------------------------------------------------------------
 Center     Atomic      Atomic             Coordinates (Angstroms)
 Number     Number       Type             X           Y           Z
 ---------------------------------------------------------------------
      1         12           0        5.470859    0.866492    0.014753
      2          6           0        3.984041   -2.326642    0.459870
      3          6           0        2.634547    1.987945   -1.604373
      4          6           0        6.953374    3.892268   -0.641246
      5          6           0        8.392173   -0.191812    1.472204
      6          7           0        3.617235   -0.153027   -0.544260
      7          6           0        3.144228   -1.420587   -0.284675
      8          6           0        1.788538   -1.712719   -0.827907
      9          6           0        1.561735   -0.351931   -1.637464
     10          6           0        2.677989    0.566184   -1.267633
     11          6           0        1.241624   -0.439427   -3.181807
     12          6           0        0.878874   -1.857740    0.373653
     13          6           0        0.068378   -3.160714    0.530911
     14          6           0       -1.469332   -3.090898    0.657208
     15          8           0       -2.156008   -2.373449    1.371102
     16          8           0       -2.034265   -4.119778   -0.053274
     17          7           0        4.888002    2.716734   -0.871867
     18          6           0        3.649223    2.977729   -1.458106
     19          6           0        3.635762    4.423511   -1.895335
     20          6           0        4.871996    4.940538   -1.480782
     21          6           0        5.623541    3.841824   -0.992895
     22          6           0        2.496392    5.143726   -2.562321
     23          6           0        5.295309    6.414289   -1.661749
     24          8           0        6.482349    6.680491   -1.485532
     25          6           0        4.336755    7.578824   -1.968135
     26          7           0        7.447692    1.699156    0.242728
     27          6           0        7.823437    2.942746   -0.132937
     28          6           0        9.343390    3.243471    0.184790
     29          6           0        9.676569    1.999952    1.132473
     30          6           0        8.417305    1.075240    0.935676
     31          6           0       10.210450    3.470966   -1.012671
     32          6           0       10.069246    2.341913    2.606474
     33          6           0        8.996781    2.907444    3.515855
     34          7           0        6.155388   -0.872229    0.793532
     35          6           0        7.376215   -1.169796    1.352546
     36          6           0        7.335480   -2.555362    1.846555
     37          6           0        6.015004   -2.994719    1.527168
     38          6           0        5.379680   -1.997787    0.849961
     39          6           0        8.464011   -3.309679    2.492741
     40          6           0        5.167989   -4.170566    1.602048
     41          8           0        5.380838   -5.274704    2.129922
     42          6           0        3.807080   -3.733192    0.996528
     43          6           0        3.719655   -4.699542   -0.186123
     44          8           0        4.506018   -4.756589   -1.115552
     45          8           0        2.696010   -5.522306   -0.076490
     46          6           0        2.502431   -6.589112   -1.095807
     47          6           0       -3.399201   -4.527522    0.148305
     48          6           0       -4.351498   -3.853855   -0.781392
     49          6           0       -5.462726   -4.373389   -1.304141
     50          6           0       -5.925901   -5.796317   -1.234143
     51          6           0       -6.311015   -3.409799   -2.117300
     52          6           0       -7.351365   -2.626141   -1.391793
     53          6           0       -8.682864   -2.891991   -2.065770
     54          6           0       -9.831063   -2.585305   -1.086924
     55          6           0      -11.095439   -3.426288   -1.283333
     56          6           0      -10.200388   -1.099073   -1.092429
     57          6           0      -11.099259   -0.623958    0.032571
     58          6           0      -10.412073    0.264870    1.152429
     59          6           0      -10.546386    1.821364    1.047536
     60          6           0       -9.365174    2.537145    1.737172
     61          6           0      -11.808731    2.289793    1.748325
     62          6           0      -12.515689    3.407044    0.946663
     63          6           0      -13.964707    3.754731    1.448445
     64          6           0      -14.181852    5.302101    1.427108
     65          6           0      -14.270183    5.920411    2.828012
     66          6           0      -15.415138    5.640667    0.555775
     67          1           0        1.786104    2.413109   -2.143550
     68          1           0        7.497112    4.803498   -0.900654
     69          1           0        9.291027   -0.426875    2.046041
     70          1           0        1.925006   -2.544686   -1.518400
     71          1           0        0.769905    0.160497   -1.090629
     72          1           0        1.863227    0.270601   -3.727264
     73          1           0        0.216699   -0.093209   -3.320110
     74          1           0        1.362475   -1.430507   -3.618725
     75          1           0        0.104200   -1.089561    0.374977
     76          1           0        1.366482   -1.751358    1.342386
     77          1           0        0.313976   -3.587353    1.504103
     78          1           0        0.507928   -3.897358   -0.142114
     79          1           0        1.941620    5.769354   -1.862680
     80          1           0        1.705577    4.436484   -2.811110
     81          1           0        2.889909    5.493501   -3.515754
     82          1           0        3.755700    7.489408   -2.885988
     83          1           0        4.935369    8.489528   -1.961569
     84          1           0        3.658454    7.623046   -1.115145
     85          1           0        9.368624    4.193465    0.718860
     86          1           0       10.494889    1.418606    0.708723
     87          1           0       10.351591    2.568482   -1.607292
     88          1           0       11.179475    3.841727   -0.677587
     89          1           0        9.898266    4.210158   -1.750606
     90          1           0       10.851845    3.082027    2.438336
     91          1           0       10.512831    1.447728    3.044658
     92          1           0        8.013504    2.841513    3.049297
     93          1           0        9.197635    3.954785    3.741451
     94          1           0        8.836290    2.327112    4.424893
     95          1           0        8.144054   -3.819072    3.402130
     96          1           0        9.286708   -2.618819    2.674083
     97          1           0        8.835497   -4.154811    1.911899
     98          1           0        3.017970   -3.945869    1.718008
     99          1           0        2.699024   -6.354902   -2.142543
    100          1           0        1.457114   -6.894670   -1.121058
    101          1           0        3.166886   -7.431444   -0.903456
    102          1           0       -3.692664   -4.200537    1.146119
    103          1           0       -3.478976   -5.612607    0.218713
    104          1           0       -4.098755   -2.830337   -1.057010
    105          1           0       -5.246045   -6.591501   -1.540010
    106          1           0       -6.944121   -5.864024   -1.615878
    107          1           0       -6.021930   -5.992633   -0.166406
    108          1           0       -6.769122   -4.077738   -2.846886
    109          1           0       -5.572271   -2.885678   -2.724872
    110          1           0       -7.081314   -1.571378   -1.340147
    111          1           0       -7.355916   -3.016522   -0.373607
    112          1           0       -8.852413   -3.817404   -2.617585
    113          1           0       -8.686587   -2.110395   -2.826319
    114          1           0       -9.480789   -2.834432   -0.085605
    115          1           0      -12.008866   -2.834879   -1.357204
    116          1           0      -11.251252   -4.056159   -0.408207
    117          1           0      -11.127136   -4.036508   -2.185568
    118          1           0      -10.660668   -0.929934   -2.065383
    119          1           0       -9.248945   -0.581860   -0.971467
    120          1           0      -11.377244   -1.557955    0.519770
    121          1           0      -11.986947   -0.160221   -0.396893
    122          1           0       -9.354771    0.014929    1.060195
    123          1           0      -10.829368   -0.110943    2.086951
    124          1           0      -10.504698    2.096739   -0.005681
    125          1           0       -8.489219    1.893816    1.656314
    126          1           0       -9.625549    2.809302    2.760521
    127          1           0       -9.109749    3.350255    1.058716
    128          1           0      -11.706515    2.500338    2.813166
    129          1           0      -12.435736    1.405788    1.632345
    130          1           0      -12.748413    3.020728   -0.045843
    131          1           0      -11.920828    4.315370    0.847640
    132          1           0      -14.166655    3.292609    2.414899
    133          1           0      -14.630104    3.289212    0.720827
    134          1           0      -13.318052    5.862276    1.072333
    135          1           0      -14.354176    6.995528    2.671492
    136          1           0      -13.359854    5.746377    3.401004
    137          1           0      -15.156076    5.567125    3.355398
    138          1           0      -15.188786    6.539884   -0.018075
    139          1           0      -16.275467    5.966059    1.139562
    140          1           0      -15.770370    4.806507   -0.049178
 ---------------------------------------------------------------------

 SCF Done:  E(RwB97XD) =  -3007.88090076     A.U. after   19 cycles

 Excitation energies and oscillator strengths:

 Excited State   1:      Singlet-A      1.6911 eV  733.16 nm  f=0.3717  <S**2>=0.000
     245 -> 248        0.18642
     246 -> 247        0.68330
     245 <- 248        0.11585
 This state for optimization and/or second-order correction.
 Total Energy, E(TD-HF/TD-DFT) =  -3007.81875435
 Copying the excited state density for this state as the 1-particle RhoCI density.

 Excited State   2:      Singlet-A      2.1777 eV  569.34 nm  f=0.1155  <S**2>=0.000
     245 -> 247        0.63581
     246 -> 248       -0.29455

 Excited State   3:      Singlet-A      3.4260 eV  361.89 nm  f=0.0069  <S**2>=0.000
     241 -> 247        0.22204
     242 -> 247       -0.12391
     244 -> 247        0.64059

 Excited State   4:      Singlet-A      3.5358 eV  350.65 nm  f=0.4923  <S**2>=0.000
     239 -> 247        0.11878
     240 -> 247       -0.19011
     241 -> 247       -0.22195
     242 -> 247        0.12917
     244 -> 247        0.11840
     245 -> 247        0.22128
     246 -> 248        0.56052
     245 <- 247       -0.10184

 Excited State   5:      Singlet-A      3.6628 eV  338.50 nm  f=0.2379  <S**2>=0.000
     239 -> 247        0.12738
     239 -> 249       -0.17979
     239 -> 250        0.10944
     240 -> 247        0.38746
     240 -> 249       -0.23725
     241 -> 247        0.18730
     242 -> 247       -0.24309
     244 -> 247       -0.12304
     245 -> 247        0.16228
     246 -> 248        0.24179

 The electronic state is 1-A.
 Alpha  occ. eigenvalues --  -46.94441 -19.30988 -19.29409 -19.24936 -19.24735
 Alpha  occ. eigenvalues --  -19.23427 -19.23208 -14.47127 -14.45985 -14.44319
 Alpha  occ. eigenvalues --  -14.43045 -10.43778 -10.42642 -10.40364 -10.38303
 Alpha  occ. eigenvalues --  -10.36411 -10.36018 -10.35409 -10.35329 -10.35300
 Alpha  occ. eigenvalues --  -10.34483 -10.33867 -10.33604 -10.33595 -10.32818
 Alpha  occ. eigenvalues --  -10.32664 -10.32624 -10.32490 -10.32334 -10.32199
 Alpha  occ. eigenvalues --  -10.32150 -10.31973 -10.31699 -10.31697 -10.31599
 Alpha  occ. eigenvalues --  -10.31469 -10.31196 -10.31136 -10.31135 -10.30696
 Alpha  occ. eigenvalues --  -10.30195 -10.30155 -10.30110 -10.29873 -10.29342
 Alpha  occ. eigenvalues --  -10.29294 -10.29057 -10.29017 -10.28978 -10.28977
 Alpha  occ. eigenvalues --  -10.28937 -10.28833 -10.28741 -10.28717 -10.28661
 Alpha  occ. eigenvalues --  -10.28543 -10.28525 -10.28494 -10.28318 -10.28257
 Alpha  occ. eigenvalues --  -10.28182 -10.28053 -10.28041 -10.27974 -10.27743
 Alpha  occ. eigenvalues --  -10.27699  -3.20409  -1.94019  -1.93512  -1.93399
 Alpha  occ. eigenvalues --   -1.19725  -1.18475  -1.12889  -1.10302  -1.09796
 Alpha  occ. eigenvalues --   -1.09217  -1.05954  -1.05335  -1.04926  -1.03893
 Alpha  occ. eigenvalues --   -0.93960  -0.93173  -0.91917  -0.91604  -0.90769
 Alpha  occ. eigenvalues --   -0.90598  -0.89890  -0.89682  -0.89233  -0.89060
 Alpha  occ. eigenvalues --   -0.87623  -0.86971  -0.86503  -0.85515  -0.85416
 Alpha  occ. eigenvalues --   -0.84189  -0.83869  -0.83513  -0.82926  -0.82464
 Alpha  occ. eigenvalues --   -0.81892  -0.81065  -0.80017  -0.79229  -0.78399
 Alpha  occ. eigenvalues --   -0.78038  -0.77148  -0.76891  -0.76488  -0.75946
 Alpha  occ. eigenvalues --   -0.75383  -0.74021  -0.73640  -0.72346  -0.71314
 Alpha  occ. eigenvalues --   -0.70352  -0.69959  -0.69257  -0.68685  -0.67680
 Alpha  occ. eigenvalues --   -0.67443  -0.66656  -0.66341  -0.66121  -0.65588
 Alpha  occ. eigenvalues --   -0.65054  -0.64772  -0.64400  -0.63692  -0.62964
 Alpha  occ. eigenvalues --   -0.61897  -0.61222  -0.60838  -0.60190  -0.59971
 Alpha  occ. eigenvalues --   -0.59855  -0.59088  -0.57848  -0.57695  -0.57398
 Alpha  occ. eigenvalues --   -0.57275  -0.56789  -0.56558  -0.56251  -0.56120
 Alpha  occ. eigenvalues --   -0.55887  -0.55665  -0.55287  -0.54900  -0.54814
 Alpha  occ. eigenvalues --   -0.54729  -0.54368  -0.54160  -0.53991  -0.53757
 Alpha  occ. eigenvalues --   -0.53416  -0.53344  -0.53137  -0.52961  -0.52569
 Alpha  occ. eigenvalues --   -0.51919  -0.51850  -0.51618  -0.51572  -0.51433
 Alpha  occ. eigenvalues --   -0.51235  -0.51095  -0.50838  -0.50765  -0.50583
 Alpha  occ. eigenvalues --   -0.50520  -0.50376  -0.50195  -0.50018  -0.49854
 Alpha  occ. eigenvalues --   -0.49445  -0.49240  -0.48917  -0.48620  -0.48265
 Alpha  occ. eigenvalues --   -0.48061  -0.47915  -0.47780  -0.47479  -0.47386
 Alpha  occ. eigenvalues --   -0.47248  -0.47152  -0.46930  -0.46910  -0.46701
 Alpha  occ. eigenvalues --   -0.46516  -0.46191  -0.46079  -0.45949  -0.45826
 Alpha  occ. eigenvalues --   -0.45684  -0.45519  -0.45400  -0.45225  -0.44820
 Alpha  occ. eigenvalues --   -0.44586  -0.44228  -0.44142  -0.44120  -0.43985
 Alpha  occ. eigenvalues --   -0.43723  -0.43583  -0.43407  -0.43304  -0.43007
 Alpha  occ. eigenvalues --   -0.42568  -0.42377  -0.42262  -0.42026  -0.41974
 Alpha  occ. eigenvalues --   -0.41854  -0.41312  -0.41110  -0.40829  -0.40713
 Alpha  occ. eigenvalues --   -0.40103  -0.40073  -0.39718  -0.39590  -0.38997
 Alpha  occ. eigenvalues --   -0.38911  -0.38747  -0.38561  -0.38487  -0.38385
 Alpha  occ. eigenvalues --   -0.37951  -0.37091  -0.36758  -0.36416  -0.35966
 Alpha  occ. eigenvalues --   -0.35640  -0.35624  -0.35283  -0.33872  -0.33311
 Alpha  occ. eigenvalues --   -0.32332  -0.32277  -0.31335  -0.30771  -0.25605
 Alpha  occ. eigenvalues --   -0.22666
 Alpha virt. eigenvalues --   -0.06656   0.00481   0.02439   0.04574   0.06600
 Alpha virt. eigenvalues --    0.07321   0.07909   0.08394   0.09079   0.09254
 Alpha virt. eigenvalues --    0.10593   0.11386   0.12253   0.12511   0.12623

 Mulliken charges:
               1
     1  Mg   0.970209
     2  C   -0.026154
     3  C   -0.087180
     4  C   -0.096375
     5  C   -0.086586
     6  N   -0.373084
     7  C   -0.028849
     8  C   -0.043230
     9  C   -0.091605
    10  C    0.099741
    11  C    0.033207
    12  C    0.040195
    13  C   -0.023119
    14  C    0.215333
    15  O   -0.261115
    16  O   -0.362210
    17  N   -0.433118
    18  C    0.122480
    19  C   -0.194913
    20  C   -0.040167
    21  C    0.161750
    22  C    0.077914
    23  C    0.046192
    24  O   -0.234791
    25  C    0.004954
    26  N   -0.336504
    27  C    0.030275
    28  C   -0.067388
    29  C   -0.068401
    30  C    0.037317
    31  C    0.019124
    32  C   -0.014221
    33  C   -0.046428
    34  N   -0.477864
    35  C    0.152648
    36  C   -0.176421
    37  C   -0.025932
    38  C    0.160401
    39  C    0.087357
    40  C    0.107667
    41  O   -0.233640
    42  C   -0.076019
    43  C    0.227546
    44  O   -0.257846
    45  O   -0.324406
    46  C    0.134687
    47  C    0.262469
    48  C   -0.115055
    49  C   -0.257687
    50  C    0.044315
    51  C    0.027160
    52  C    0.021901
    53  C    0.005680
    54  C   -0.197390
    55  C    0.003085
    56  C   -0.003548
    57  C   -0.010818
    58  C    0.009623
    59  C   -0.194327
    60  C    0.030889
    61  C    0.020610
    62  C   -0.057766
    63  C    0.030968
    64  C   -0.212441
    65  C   -0.014100
    66  C   -0.006282
    67  H   -0.008827
    68  H    0.019518
    69  H   -0.009988
    70  H    0.057115
    71  H    0.035776
    72  H    0.040984
    73  H    0.038417
    74  H    0.049230
    75  H    0.042893
    76  H    0.052364
    77  H    0.065289
    78  H    0.045389
    79  H    0.065984
    80  H    0.018225
    81  H    0.069470
    82  H    0.058192
    83  H    0.060402
    84  H    0.055636
    85  H    0.035108
    86  H    0.028395
    87  H    0.030908
    88  H    0.034205
    89  H    0.043622
    90  H    0.032557
    91  H    0.034125
    92  H    0.036245
    93  H    0.041738
    94  H    0.038500
    95  H    0.048256
    96  H    0.021665
    97  H    0.052019
    98  H    0.063540
    99  H    0.054525
   100  H    0.057085
   101  H    0.067177
   102  H    0.045178
   103  H    0.033713
   104  H    0.019860
   105  H    0.060184
   106  H    0.032172
   107  H    0.033363
   108  H    0.001776
   109  H    0.025922
   110  H    0.041526
   111  H    0.023160
   112  H    0.023474
   113  H    0.014480
   114  H    0.009560
   115  H    0.021795
   116  H    0.029322
   117  H    0.023429
   118  H    0.017066
   119  H   -0.000579
   120  H    0.011901
   121  H    0.019858
   122  H    0.004983
   123  H    0.022317
   124  H    0.014513
   125  H    0.013519
   126  H    0.036571
   127  H    0.023552
   128  H    0.027800
   129  H    0.005682
   130  H    0.020076
   131  H    0.022150
   132  H    0.020102
   133  H    0.013049
   134  H    0.026841
   135  H    0.023466
   136  H    0.030154
   137  H    0.029111
   138  H    0.025214
   139  H    0.017558
   140  H    0.031722
 Sum of Mulliken charges =  -0.00000

 Dipole moment (field-independent basis, Debye):
    X=             -4.2536    Y=              3.0841    Z=             -3.1043  Tot=              6.1026
 Quadrupole moment (field-independent basis, Debye-Ang):
   XX=           -404.7698   YY=           -393.7430   ZZ=           -400.7159
   XY=             32.3750   XZ=             12.3928   YZ=              5.9905

 Normal termination of Gaussian 16 at Wed May  4 03:04:26 2022.
