 Gaussian 16, Revision A.03,
 Gaussian 16:  ES64L-G16RevA.03 25-Dec-2016

 --------------------
 #p ZINDO=(nstates=5)
 --------------------

 ------------------------------
 step_1301_chromophore_10 ZINDO
 ------------------------------
 Symbolic Z-matrix:
 Charge =  0 Multiplicity = 1

                         Standard orientation:
 ---------------------------------------------------------------------
 Center     Atomic      Atomic             Coordinates (Angstroms)
 Number     Number       Type             X           Y           Z
 ---------------------------------------------------------------------
      1         12           0        5.470859    0.866492    0.014753
      2          6           0        3.984041   -2.326642    0.459870
      3          6           0        2.634547    1.987945   -1.604373
      4          6           0        6.953374    3.892268   -0.641246
      5          6           0        8.392173   -0.191812    1.472204
      6          7           0        3.617235   -0.153027   -0.544260
      7          6           0        3.144228   -1.420587   -0.284675
      8          6           0        1.788538   -1.712719   -0.827907
      9          6           0        1.561735   -0.351931   -1.637464
     10          6           0        2.677989    0.566184   -1.267633
     11          6           0        1.241624   -0.439427   -3.181807
     12          6           0        0.878874   -1.857740    0.373653
     13          6           0        0.068378   -3.160714    0.530911
     14          6           0       -1.469332   -3.090898    0.657208
     15          8           0       -2.156008   -2.373449    1.371102
     16          8           0       -2.034265   -4.119778   -0.053274
     17          7           0        4.888002    2.716734   -0.871867
     18          6           0        3.649223    2.977729   -1.458106
     19          6           0        3.635762    4.423511   -1.895335
     20          6           0        4.871996    4.940538   -1.480782
     21          6           0        5.623541    3.841824   -0.992895
     22          6           0        2.496392    5.143726   -2.562321
     23          6           0        5.295309    6.414289   -1.661749
     24          8           0        6.482349    6.680491   -1.485532
     25          6           0        4.336755    7.578824   -1.968135
     26          7           0        7.447692    1.699156    0.242728
     27          6           0        7.823437    2.942746   -0.132937
     28          6           0        9.343390    3.243471    0.184790
     29          6           0        9.676569    1.999952    1.132473
     30          6           0        8.417305    1.075240    0.935676
     31          6           0       10.210450    3.470966   -1.012671
     32          6           0       10.069246    2.341913    2.606474
     33          6           0        8.996781    2.907444    3.515855
     34          7           0        6.155388   -0.872229    0.793532
     35          6           0        7.376215   -1.169796    1.352546
     36          6           0        7.335480   -2.555362    1.846555
     37          6           0        6.015004   -2.994719    1.527168
     38          6           0        5.379680   -1.997787    0.849961
     39          6           0        8.464011   -3.309679    2.492741
     40          6           0        5.167989   -4.170566    1.602048
     41          8           0        5.380838   -5.274704    2.129922
     42          6           0        3.807080   -3.733192    0.996528
     43          6           0        3.719655   -4.699542   -0.186123
     44          8           0        4.506018   -4.756589   -1.115552
     45          8           0        2.696010   -5.522306   -0.076490
     46          6           0        2.502431   -6.589112   -1.095807
     47          6           0       -3.399201   -4.527522    0.148305
     48          6           0       -4.351498   -3.853855   -0.781392
     49          6           0       -5.462726   -4.373389   -1.304141
     50          6           0       -5.925901   -5.796317   -1.234143
     51          6           0       -6.311015   -3.409799   -2.117300
     52          6           0       -7.351365   -2.626141   -1.391793
     53          6           0       -8.682864   -2.891991   -2.065770
     54          6           0       -9.831063   -2.585305   -1.086924
     55          6           0      -11.095439   -3.426288   -1.283333
     56          6           0      -10.200388   -1.099073   -1.092429
     57          6           0      -11.099259   -0.623958    0.032571
     58          6           0      -10.412073    0.264870    1.152429
     59          6           0      -10.546386    1.821364    1.047536
     60          6           0       -9.365174    2.537145    1.737172
     61          6           0      -11.808731    2.289793    1.748325
     62          6           0      -12.515689    3.407044    0.946663
     63          6           0      -13.964707    3.754731    1.448445
     64          6           0      -14.181852    5.302101    1.427108
     65          6           0      -14.270183    5.920411    2.828012
     66          6           0      -15.415138    5.640667    0.555775
     67          1           0        1.786104    2.413109   -2.143550
     68          1           0        7.497112    4.803498   -0.900654
     69          1           0        9.291027   -0.426875    2.046041
     70          1           0        1.925006   -2.544686   -1.518400
     71          1           0        0.769905    0.160497   -1.090629
     72          1           0        1.863227    0.270601   -3.727264
     73          1           0        0.216699   -0.093209   -3.320110
     74          1           0        1.362475   -1.430507   -3.618725
     75          1           0        0.104200   -1.089561    0.374977
     76          1           0        1.366482   -1.751358    1.342386
     77          1           0        0.313976   -3.587353    1.504103
     78          1           0        0.507928   -3.897358   -0.142114
     79          1           0        1.941620    5.769354   -1.862680
     80          1           0        1.705577    4.436484   -2.811110
     81          1           0        2.889909    5.493501   -3.515754
     82          1           0        3.755700    7.489408   -2.885988
     83          1           0        4.935369    8.489528   -1.961569
     84          1           0        3.658454    7.623046   -1.115145
     85          1           0        9.368624    4.193465    0.718860
     86          1           0       10.494889    1.418606    0.708723
     87          1           0       10.351591    2.568482   -1.607292
     88          1           0       11.179475    3.841727   -0.677587
     89          1           0        9.898266    4.210158   -1.750606
     90          1           0       10.851845    3.082027    2.438336
     91          1           0       10.512831    1.447728    3.044658
     92          1           0        8.013504    2.841513    3.049297
     93          1           0        9.197635    3.954785    3.741451
     94          1           0        8.836290    2.327112    4.424893
     95          1           0        8.144054   -3.819072    3.402130
     96          1           0        9.286708   -2.618819    2.674083
     97          1           0        8.835497   -4.154811    1.911899
     98          1           0        3.017970   -3.945869    1.718008
     99          1           0        2.699024   -6.354902   -2.142543
    100          1           0        1.457114   -6.894670   -1.121058
    101          1           0        3.166886   -7.431444   -0.903456
    102          1           0       -3.692664   -4.200537    1.146119
    103          1           0       -3.478976   -5.612607    0.218713
    104          1           0       -4.098755   -2.830337   -1.057010
    105          1           0       -5.246045   -6.591501   -1.540010
    106          1           0       -6.944121   -5.864024   -1.615878
    107          1           0       -6.021930   -5.992633   -0.166406
    108          1           0       -6.769122   -4.077738   -2.846886
    109          1           0       -5.572271   -2.885678   -2.724872
    110          1           0       -7.081314   -1.571378   -1.340147
    111          1           0       -7.355916   -3.016522   -0.373607
    112          1           0       -8.852413   -3.817404   -2.617585
    113          1           0       -8.686587   -2.110395   -2.826319
    114          1           0       -9.480789   -2.834432   -0.085605
    115          1           0      -12.008866   -2.834879   -1.357204
    116          1           0      -11.251252   -4.056159   -0.408207
    117          1           0      -11.127136   -4.036508   -2.185568
    118          1           0      -10.660668   -0.929934   -2.065383
    119          1           0       -9.248945   -0.581860   -0.971467
    120          1           0      -11.377244   -1.557955    0.519770
    121          1           0      -11.986947   -0.160221   -0.396893
    122          1           0       -9.354771    0.014929    1.060195
    123          1           0      -10.829368   -0.110943    2.086951
    124          1           0      -10.504698    2.096739   -0.005681
    125          1           0       -8.489219    1.893816    1.656314
    126          1           0       -9.625549    2.809302    2.760521
    127          1           0       -9.109749    3.350255    1.058716
    128          1           0      -11.706515    2.500338    2.813166
    129          1           0      -12.435736    1.405788    1.632345
    130          1           0      -12.748413    3.020728   -0.045843
    131          1           0      -11.920828    4.315370    0.847640
    132          1           0      -14.166655    3.292609    2.414899
    133          1           0      -14.630104    3.289212    0.720827
    134          1           0      -13.318052    5.862276    1.072333
    135          1           0      -14.354176    6.995528    2.671492
    136          1           0      -13.359854    5.746377    3.401004
    137          1           0      -15.156076    5.567125    3.355398
    138          1           0      -15.188786    6.539884   -0.018075
    139          1           0      -16.275467    5.966059    1.139562
    140          1           0      -15.770370    4.806507   -0.049178
 ---------------------------------------------------------------------

 SCF Done:  E(RZINDO/S) =  -474.445617507     A.U. after   19 cycles

 Excitation energies and oscillator strengths:

 Excited State   1:      Singlet-A      1.3134 eV  943.98 nm  f=0.5548  <S**2>=0.000
     175 ->178         0.17008
     176 ->177         0.66895
 This state for optimization and/or second-order correction.
 Total Energy, E(CIS/TDA) =  -474.397350341
 Copying the excited state density for this state as the 1-particle RhoCI density.

 Excited State   2:      Singlet-A      1.9310 eV  642.08 nm  f=0.0388  <S**2>=0.000
     175 ->177         0.53747
     176 ->178        -0.42328

 Excited State   3:      Singlet-A      2.9063 eV  426.61 nm  f=0.0096  <S**2>=0.000
     167 ->179        -0.15563
     168 ->177         0.26655
     168 ->179        -0.45932
     168 ->180         0.20189
     168 ->182         0.11264
     168 ->184        -0.13513
     168 ->185        -0.14827
     169 ->179         0.12074

 Excited State   4:      Singlet-A      2.9633 eV  418.40 nm  f=0.8353  <S**2>=0.000
     175 ->177         0.36398
     176 ->178         0.50378
     176 ->179        -0.19718
     176 ->180        -0.19540

 Excited State   5:      Singlet-A      3.0755 eV  403.14 nm  f=0.0123  <S**2>=0.000
     171 ->177         0.27329
     171 ->178        -0.19865
     171 ->179         0.23137
     171 ->180         0.43120
     171 ->185         0.22452
     171 ->188         0.17107
     171 ->204        -0.14430

 The electronic state is 1-A.
 Alpha  occ. eigenvalues --   -1.82898  -1.81082  -1.79532  -1.73563  -1.73371
 Alpha  occ. eigenvalues --   -1.70568  -1.67274  -1.62304  -1.59440  -1.57568
 Alpha  occ. eigenvalues --   -1.56468  -1.53136  -1.49327  -1.46142  -1.45961
 Alpha  occ. eigenvalues --   -1.43515  -1.42274  -1.39920  -1.39126  -1.38768
 Alpha  occ. eigenvalues --   -1.36274  -1.33433  -1.32179  -1.31035  -1.29288
 Alpha  occ. eigenvalues --   -1.27926  -1.24607  -1.22296  -1.21506  -1.18131
 Alpha  occ. eigenvalues --   -1.17244  -1.16795  -1.16136  -1.15525  -1.13288
 Alpha  occ. eigenvalues --   -1.13115  -1.11805  -1.09988  -1.05115  -1.04523
 Alpha  occ. eigenvalues --   -1.03631  -1.01193  -0.98673  -0.97578  -0.97180
 Alpha  occ. eigenvalues --   -0.95546  -0.94808  -0.94171  -0.93362  -0.92462
 Alpha  occ. eigenvalues --   -0.90966  -0.89442  -0.89063  -0.87840  -0.86709
 Alpha  occ. eigenvalues --   -0.85553  -0.83314  -0.82427  -0.80662  -0.80474
 Alpha  occ. eigenvalues --   -0.80268  -0.79197  -0.77699  -0.76796  -0.75762
 Alpha  occ. eigenvalues --   -0.75591  -0.75102  -0.74938  -0.74088  -0.73597
 Alpha  occ. eigenvalues --   -0.73364  -0.72797  -0.72497  -0.71838  -0.71490
 Alpha  occ. eigenvalues --   -0.71043  -0.70004  -0.69730  -0.69142  -0.68732
 Alpha  occ. eigenvalues --   -0.68605  -0.67611  -0.67085  -0.66395  -0.65619
 Alpha  occ. eigenvalues --   -0.65026  -0.64584  -0.64180  -0.63576  -0.63284
 Alpha  occ. eigenvalues --   -0.62947  -0.62564  -0.62485  -0.61929  -0.61606
 Alpha  occ. eigenvalues --   -0.61158  -0.60915  -0.60668  -0.60494  -0.60114
 Alpha  occ. eigenvalues --   -0.59251  -0.59149  -0.59066  -0.58981  -0.58316
 Alpha  occ. eigenvalues --   -0.58059  -0.57807  -0.56695  -0.56211  -0.55982
 Alpha  occ. eigenvalues --   -0.55897  -0.55500  -0.55282  -0.54769  -0.54324
 Alpha  occ. eigenvalues --   -0.54175  -0.53855  -0.53241  -0.53053  -0.52719
 Alpha  occ. eigenvalues --   -0.52334  -0.51711  -0.51434  -0.51227  -0.51107
 Alpha  occ. eigenvalues --   -0.50926  -0.50659  -0.50638  -0.50038  -0.49942
 Alpha  occ. eigenvalues --   -0.49668  -0.49577  -0.49282  -0.49095  -0.48741
 Alpha  occ. eigenvalues --   -0.48621  -0.48455  -0.48335  -0.47970  -0.47833
 Alpha  occ. eigenvalues --   -0.47579  -0.47337  -0.47097  -0.46832  -0.46375
 Alpha  occ. eigenvalues --   -0.46195  -0.45976  -0.45910  -0.45522  -0.45119
 Alpha  occ. eigenvalues --   -0.44911  -0.44703  -0.44213  -0.43907  -0.43659
 Alpha  occ. eigenvalues --   -0.43226  -0.42878  -0.42731  -0.42362  -0.41905
 Alpha  occ. eigenvalues --   -0.41762  -0.40655  -0.40527  -0.39388  -0.38639
 Alpha  occ. eigenvalues --   -0.37534  -0.36782  -0.36288  -0.34669  -0.34178
 Alpha  occ. eigenvalues --   -0.33892  -0.31956  -0.31674  -0.30978  -0.26433
 Alpha  occ. eigenvalues --   -0.21580
 Alpha virt. eigenvalues --   -0.08107  -0.02011  -0.00550   0.01198   0.01748
 Alpha virt. eigenvalues --    0.03130   0.03205   0.04068   0.04845   0.05268
 Alpha virt. eigenvalues --    0.06023   0.06386   0.06642   0.07222   0.07658

 Mulliken charges:
               1
     1  Mg   0.422222
     2  C   -0.058713
     3  C   -0.101993
     4  C   -0.070816
     5  C   -0.054976
     6  N   -0.286536
     7  C    0.108042
     8  C    0.011984
     9  C    0.000555
    10  C    0.175799
    11  C   -0.047127
    12  C   -0.015434
    13  C   -0.000984
    14  C    0.475980
    15  O   -0.518759
    16  O   -0.282003
    17  N   -0.338803
    18  C    0.125309
    19  C    0.015946
    20  C   -0.024460
    21  C    0.176720
    22  C   -0.044333
    23  C    0.321296
    24  O   -0.511515
    25  C   -0.026054
    26  N   -0.262390
    27  C    0.157059
    28  C    0.010407
    29  C   -0.005355
    30  C    0.093664
    31  C   -0.041324
    32  C   -0.020391
    33  C   -0.052153
    34  N   -0.317932
    35  C    0.069755
    36  C   -0.000570
    37  C   -0.051735
    38  C    0.094017
    39  C   -0.037287
    40  C    0.335156
    41  O   -0.543768
    42  C    0.062228
    43  C    0.493139
    44  O   -0.540682
    45  O   -0.261959
    46  C    0.074763
    47  C    0.109058
    48  C   -0.084432
    49  C   -0.010868
    50  C   -0.044419
    51  C   -0.027045
    52  C   -0.014065
    53  C   -0.033076
    54  C   -0.012856
    55  C   -0.059745
    56  C   -0.029853
    57  C   -0.044102
    58  C   -0.040912
    59  C   -0.012521
    60  C   -0.065546
    61  C   -0.031278
    62  C   -0.044082
    63  C   -0.040678
    64  C   -0.013254
    65  C   -0.054914
    66  C   -0.059626
    67  H    0.029183
    68  H    0.037760
    69  H    0.024459
    70  H    0.050008
    71  H    0.032222
    72  H    0.024332
    73  H    0.019399
    74  H    0.032629
    75  H    0.026175
    76  H    0.033030
    77  H    0.040574
    78  H    0.041973
    79  H    0.045399
    80  H    0.013464
    81  H    0.044800
    82  H    0.041735
    83  H    0.041198
    84  H    0.035415
    85  H    0.029726
    86  H    0.022942
    87  H    0.018750
    88  H    0.014513
    89  H    0.023891
    90  H    0.014610
    91  H    0.022729
    92  H    0.018883
    93  H    0.021364
    94  H    0.021050
    95  H    0.032025
    96  H    0.018207
    97  H    0.034114
    98  H    0.057738
    99  H    0.043574
   100  H    0.029007
   101  H    0.048434
   102  H    0.045927
   103  H    0.040110
   104  H    0.035686
   105  H    0.039245
   106  H    0.024980
   107  H    0.017088
   108  H    0.007802
   109  H    0.019881
   110  H    0.029345
   111  H    0.020114
   112  H    0.032016
   113  H    0.009327
   114  H    0.015895
   115  H    0.013301
   116  H    0.014319
   117  H    0.016357
   118  H    0.019103
   119  H    0.012791
   120  H    0.015745
   121  H    0.020789
   122  H    0.016564
   123  H    0.020913
   124  H    0.025146
   125  H    0.014193
   126  H    0.032712
   127  H    0.016160
   128  H    0.031911
   129  H    0.008750
   130  H    0.015879
   131  H    0.025353
   132  H    0.023313
   133  H    0.017302
   134  H    0.023116
   135  H    0.011586
   136  H    0.017240
   137  H    0.019716
   138  H    0.014578
   139  H    0.013769
   140  H    0.024890
 Sum of Mulliken charges =  -0.00000

 Dipole moment (field-independent basis, Debye):
    X=             -7.1116    Y=              6.1556    Z=             -4.6287  Tot=             10.4829
 N-N= 4.221432882315D+03 E-N= 0.000000000000D+00  KE=-9.117610571194D+03
 Leave Link  601 at Wed May  4 03:17:03 2022, MaxMem=  6710886400 cpu:               0.8 elap:               0.1
 (Enter /sw/apps/gaussian-16.0/g16/l9999.exe)
 1\1\GINC-BP1-COMPUTE089\SP\RZINDO CIS\STO-3G\C55H74Mg1N4O6\OF15641\04-
 May-2022\0\\#p ZINDO=(nstates=5)\\step_1301_chromophore_10 ZINDO\\0,1\
 Mg,0,41.318,7.775,30.371\C,0,43.081,9.368,33.009\C,0,39.054,6.48,32.63
 4\C,0,39.719,6.031,27.884\C,0,43.598,8.884,28.058\N,0,41.219,7.887,32.
 554\C,0,41.972,8.575,33.48\C,0,41.543,8.404,34.896\C,0,40.403,7.306,34
 .665\C,0,40.207,7.185,33.191\C,0,40.506,5.938,35.448\C,0,41.004,9.749,
 35.335\C,0,41.615,10.415,36.585\C,0,40.698,10.808,37.764\O,0,39.634,11

 Normal termination of Gaussian 16 at Wed May  4 03:17:03 2022.
