 Gaussian 16, Revision A.03,
 Gaussian 16:  ES64L-G16RevA.03 25-Dec-2016

 ------------------------------
 #p blyp/Def2SVP td=(nstates=5)
 ------------------------------

 -------------------------------------------------
 step_951_chromophore_9 TDDFT with blyp functional
 -------------------------------------------------
 Symbolic Z-matrix:
 Charge =  0 Multiplicity = 1

                         Standard orientation:
 ---------------------------------------------------------------------
 Center     Atomic      Atomic             Coordinates (Angstroms)
 Number     Number       Type             X           Y           Z
 ---------------------------------------------------------------------
      1         12           0       -5.003786    0.755531    0.038416
      2          6           0       -3.949046   -2.486015    0.042843
      3          6           0       -1.816053    1.907278   -0.490171
      4          6           0       -6.138333    3.900767    0.136419
      5          6           0       -8.346794   -0.386059    0.439519
      6          7           0       -3.133746   -0.194693   -0.253555
      7          6           0       -2.942063   -1.570468   -0.334052
      8          6           0       -1.457276   -1.860200   -0.375409
      9          6           0       -0.715300   -0.421022   -0.287531
     10          6           0       -1.976724    0.517429   -0.301197
     11          6           0        0.145418   -0.152070    0.965351
     12          6           0       -1.082878   -2.538370   -1.688360
     13          6           0        0.295430   -3.134633   -1.857806
     14          6           0        1.212453   -3.315040   -0.608787
     15          8           0        0.953612   -3.962740    0.414107
     16          8           0        2.379648   -2.632225   -0.739752
     17          7           0       -4.063518    2.707244   -0.066999
     18          6           0       -2.789962    2.946766   -0.331377
     19          6           0       -2.490489    4.392572   -0.308774
     20          6           0       -3.770170    4.975049   -0.082375
     21          6           0       -4.719135    3.866161    0.023001
     22          6           0       -1.138830    4.947750   -0.548458
     23          6           0       -4.179589    6.402745   -0.053842
     24          8           0       -5.290702    6.796161    0.209962
     25          6           0       -3.226217    7.455541   -0.372922
     26          7           0       -6.946179    1.605898    0.074039
     27          6           0       -7.129732    2.978530    0.214109
     28          6           0       -8.577830    3.377312    0.459809
     29          6           0       -9.329463    1.955252    0.331834
     30          6           0       -8.176536    0.966449    0.278807
     31          6           0       -8.760644    4.094460    1.879954
     32          6           0      -10.341586    1.922982   -0.819126
     33          6           0      -10.073299    1.262717   -2.152422
     34          7           0       -6.047999   -1.092906    0.278498
     35          6           0       -7.351748   -1.401954    0.385542
     36          6           0       -7.454991   -2.897756    0.648006
     37          6           0       -6.126889   -3.340056    0.392701
     38          6           0       -5.308724   -2.231273    0.225905
     39          6           0       -8.635620   -3.803004    0.927192
     40          6           0       -5.322356   -4.591424    0.389849
     41          8           0       -5.556208   -5.793399    0.585226
     42          6           0       -3.892669   -4.029946    0.091539
     43          6           0       -2.913494   -4.654355    1.046875
     44          8           0       -2.681604   -4.338509    2.208335
     45          8           0       -2.240351   -5.675052    0.413329
     46          6           0       -1.376497   -6.416197    1.443842
     47          6           0        3.274692   -2.453875    0.347070
     48          6           0        4.663681   -2.085528   -0.182234
     49          6           0        5.600056   -2.774174   -0.927161
     50          6           0        5.412419   -4.160661   -1.339765
     51          6           0        6.966753   -2.174341   -1.311941
     52          6           0        6.890758   -1.183354   -2.436069
     53          6           0        8.201621   -1.044037   -3.311241
     54          6           0        8.505704    0.397720   -3.653131
     55          6           0        7.967987    0.809109   -5.007796
     56          6           0       10.055059    0.663977   -3.423319
     57          6           0       10.485990    0.601271   -1.913752
     58          6           0       11.391059    1.841617   -1.578060
     59          6           0       11.105473    2.447004   -0.167110
     60          6           0       11.498763    3.963249   -0.054254
     61          6           0       11.665173    1.675831    1.074425
     62          6           0       10.770428    1.690604    2.317618
     63          6           0       11.521251    1.993184    3.623445
     64          6           0       10.981667    1.135292    4.873818
     65          6           0       11.287611   -0.326435    4.891366
     66          6           0        9.395091    1.217266    5.012979
     67          1           0       -0.838853    2.356839   -0.678249
     68          1           0       -6.550119    4.905543    0.253397
     69          1           0       -9.290712   -0.819301    0.779505
     70          1           0       -1.093697   -2.414193    0.489300
     71          1           0       -0.168904   -0.273322   -1.219467
     72          1           0       -0.205003    0.628244    1.641983
     73          1           0        1.169970   -0.060851    0.606774
     74          1           0        0.234698   -1.065789    1.552007
     75          1           0       -1.238798   -1.876619   -2.540942
     76          1           0       -1.779342   -3.365767   -1.819833
     77          1           0        0.829729   -2.445421   -2.512400
     78          1           0        0.129539   -4.113122   -2.307867
     79          1           0       -0.966762    5.841950    0.051179
     80          1           0       -1.159816    5.271358   -1.589073
     81          1           0       -0.305567    4.308495   -0.257449
     82          1           0       -2.716459    7.247638   -1.313248
     83          1           0       -2.457883    7.639601    0.378366
     84          1           0       -3.705160    8.427987   -0.491075
     85          1           0       -8.940946    3.987157   -0.367001
     86          1           0       -9.873501    1.716135    1.246322
     87          1           0       -9.688150    3.789424    2.364795
     88          1           0       -8.850264    5.142826    1.594302
     89          1           0       -7.858019    3.844494    2.437970
     90          1           0      -10.663586    2.924216   -1.106791
     91          1           0      -11.192046    1.389584   -0.395741
     92          1           0       -9.046351    0.919992   -2.277497
     93          1           0      -10.180863    1.963021   -2.980664
     94          1           0      -10.670110    0.354960   -2.243992
     95          1           0       -9.556300   -3.269219    0.694735
     96          1           0       -8.659168   -4.123435    1.969737
     97          1           0       -8.596240   -4.711644    0.326154
     98          1           0       -3.742533   -4.423639   -0.913518
     99          1           0       -0.564577   -6.908734    0.907534
    100          1           0       -1.994352   -7.154536    1.953957
    101          1           0       -0.789147   -5.788981    2.114244
    102          1           0        3.422002   -3.419688    0.829997
    103          1           0        2.945300   -1.646747    1.001079
    104          1           0        4.923234   -1.070915    0.119356
    105          1           0        5.519351   -4.154312   -2.424327
    106          1           0        4.446591   -4.585064   -1.066471
    107          1           0        6.074118   -4.866617   -0.838711
    108          1           0        7.694385   -2.933237   -1.598440
    109          1           0        7.353121   -1.817890   -0.356902
    110          1           0        6.534956   -0.259299   -1.983235
    111          1           0        6.092420   -1.480355   -3.116119
    112          1           0        8.066665   -1.664753   -4.197686
    113          1           0        8.979413   -1.589163   -2.776420
    114          1           0        8.059358    1.119204   -2.967688
    115          1           0        8.794613    1.193094   -5.606172
    116          1           0        7.258069    1.629627   -4.903514
    117          1           0        7.476389   -0.013679   -5.526824
    118          1           0       10.360561    1.553011   -3.974659
    119          1           0       10.580413   -0.212152   -3.802879
    120          1           0       11.003923   -0.296053   -1.576641
    121          1           0        9.574913    0.672443   -1.320241
    122          1           0       11.416511    2.596513   -2.363730
    123          1           0       12.402549    1.434105   -1.566732
    124          1           0       10.017548    2.375634   -0.156176
    125          1           0       10.858034    4.513381   -0.742928
    126          1           0       12.526915    4.033947   -0.408967
    127          1           0       11.437686    4.384913    0.950398
    128          1           0       12.644229    2.117581    1.256365
    129          1           0       11.800457    0.663282    0.695007
    130          1           0       10.299904    0.707481    2.354099
    131          1           0        9.927245    2.352933    2.120328
    132          1           0       11.379393    3.051557    3.843220
    133          1           0       12.594688    1.837116    3.518827
    134          1           0       11.469913    1.628838    5.714656
    135          1           0       11.821056   -0.537801    3.964931
    136          1           0       10.422807   -0.987781    4.924050
    137          1           0       11.965718   -0.613400    5.695935
    138          1           0        9.219959    1.591601    6.021852
    139          1           0        8.872574    0.270298    4.878970
    140          1           0        8.911058    1.936579    4.352183
 ---------------------------------------------------------------------

 SCF Done:  E(RB-LYP) =  -3007.39470759     A.U. after   21 cycles

 Excitation energies and oscillator strengths:

 Excited State   1:      Singlet-A      1.8180 eV  681.99 nm  f=0.3261  <S**2>=0.000
     245 -> 248       -0.17836
     246 -> 247        0.68988
     246 <- 247       -0.15645
 This state for optimization and/or second-order correction.
 Total Energy, E(TD-HF/TD-DFT) =  -3007.32789824
 Copying the excited state density for this state as the 1-particle RhoCI density.

 Excited State   2:      Singlet-A      1.8624 eV  665.72 nm  f=0.0051  <S**2>=0.000
     244 -> 247        0.70265

 Excited State   3:      Singlet-A      1.9866 eV  624.10 nm  f=0.0778  <S**2>=0.000
     245 -> 247        0.65309
     246 -> 248        0.21547

 Excited State   4:      Singlet-A      2.0110 eV  616.52 nm  f=0.0006  <S**2>=0.000
     243 -> 247        0.70352

 Excited State   5:      Singlet-A      2.3480 eV  528.04 nm  f=0.0003  <S**2>=0.000
     241 -> 247        0.32416
     242 -> 247        0.62777

 The electronic state is 1-A.
 Alpha  occ. eigenvalues --  -46.27262 -18.82552 -18.80925 -18.77212 -18.76173
 Alpha  occ. eigenvalues --  -18.75382 -18.75088 -14.03756 -14.02813 -14.00886
 Alpha  occ. eigenvalues --  -14.00526 -10.04933 -10.02689 -10.00026  -9.99118
 Alpha  occ. eigenvalues --   -9.98514  -9.96944  -9.96785  -9.96165  -9.95914
 Alpha  occ. eigenvalues --   -9.95763  -9.95737  -9.95580  -9.95306  -9.94305
 Alpha  occ. eigenvalues --   -9.94096  -9.94046  -9.93996  -9.93964  -9.93903
 Alpha  occ. eigenvalues --   -9.93688  -9.93674  -9.93592  -9.93584  -9.93502
 Alpha  occ. eigenvalues --   -9.93262  -9.93090  -9.93036  -9.92620  -9.92386
 Alpha  occ. eigenvalues --   -9.92375  -9.92335  -9.92306  -9.92300  -9.92280
 Alpha  occ. eigenvalues --   -9.92115  -9.92104  -9.92074  -9.92053  -9.91851
 Alpha  occ. eigenvalues --   -9.91804  -9.91786  -9.91765  -9.91588  -9.91569
 Alpha  occ. eigenvalues --   -9.91346  -9.91295  -9.91138  -9.91121  -9.91111
 Alpha  occ. eigenvalues --   -9.91065  -9.90989  -9.90987  -9.90982  -9.90836
 Alpha  occ. eigenvalues --   -9.90514  -2.91784  -1.72233  -1.71629  -1.71518
 Alpha  occ. eigenvalues --   -0.98924  -0.95686  -0.92409  -0.90492  -0.89931
 Alpha  occ. eigenvalues --   -0.87473  -0.87094  -0.86110  -0.85069  -0.83960
 Alpha  occ. eigenvalues --   -0.75332  -0.74071  -0.73207  -0.72747  -0.72094
 Alpha  occ. eigenvalues --   -0.72046  -0.71321  -0.70875  -0.70666  -0.70548
 Alpha  occ. eigenvalues --   -0.69316  -0.69008  -0.68140  -0.67309  -0.67084
 Alpha  occ. eigenvalues --   -0.66607  -0.65972  -0.65817  -0.64778  -0.64531
 Alpha  occ. eigenvalues --   -0.64022  -0.63006  -0.62446  -0.61538  -0.60796
 Alpha  occ. eigenvalues --   -0.60104  -0.59701  -0.59684  -0.59484  -0.59167
 Alpha  occ. eigenvalues --   -0.58566  -0.57387  -0.56515  -0.55321  -0.54574
 Alpha  occ. eigenvalues --   -0.53994  -0.53765  -0.53145  -0.52901  -0.52138
 Alpha  occ. eigenvalues --   -0.51632  -0.50531  -0.50324  -0.50238  -0.50133
 Alpha  occ. eigenvalues --   -0.49864  -0.48864  -0.48067  -0.46974  -0.46657
 Alpha  occ. eigenvalues --   -0.46241  -0.45937  -0.45382  -0.44895  -0.44492
 Alpha  occ. eigenvalues --   -0.43821  -0.43619  -0.43073  -0.42923  -0.42510
 Alpha  occ. eigenvalues --   -0.41981  -0.41724  -0.41544  -0.41283  -0.41231
 Alpha  occ. eigenvalues --   -0.41042  -0.40717  -0.40507  -0.40484  -0.40189
 Alpha  occ. eigenvalues --   -0.39845  -0.39631  -0.39494  -0.39347  -0.39086
 Alpha  occ. eigenvalues --   -0.38710  -0.38627  -0.38376  -0.38330  -0.37969
 Alpha  occ. eigenvalues --   -0.37878  -0.37669  -0.37620  -0.37529  -0.37372
 Alpha  occ. eigenvalues --   -0.37313  -0.36990  -0.36633  -0.36484  -0.36172
 Alpha  occ. eigenvalues --   -0.36124  -0.36052  -0.35958  -0.35889  -0.35701
 Alpha  occ. eigenvalues --   -0.35475  -0.35418  -0.35264  -0.34802  -0.34706
 Alpha  occ. eigenvalues --   -0.34329  -0.34232  -0.34186  -0.33978  -0.33719
 Alpha  occ. eigenvalues --   -0.33662  -0.33500  -0.33397  -0.33274  -0.33020
 Alpha  occ. eigenvalues --   -0.32738  -0.32652  -0.32400  -0.32313  -0.31954
 Alpha  occ. eigenvalues --   -0.31870  -0.31746  -0.31485  -0.31437  -0.31351
 Alpha  occ. eigenvalues --   -0.31064  -0.30990  -0.30799  -0.30756  -0.30681
 Alpha  occ. eigenvalues --   -0.30523  -0.30447  -0.30336  -0.30166  -0.29675
 Alpha  occ. eigenvalues --   -0.29445  -0.29271  -0.29210  -0.29054  -0.28968
 Alpha  occ. eigenvalues --   -0.28754  -0.28520  -0.28349  -0.28150  -0.27767
 Alpha  occ. eigenvalues --   -0.27236  -0.26945  -0.26737  -0.26629  -0.26292
 Alpha  occ. eigenvalues --   -0.26083  -0.25929  -0.25665  -0.25491  -0.25279
 Alpha  occ. eigenvalues --   -0.24897  -0.24385  -0.24008  -0.23907  -0.23617
 Alpha  occ. eigenvalues --   -0.23202  -0.22400  -0.22132  -0.21075  -0.20622
 Alpha  occ. eigenvalues --   -0.20276  -0.20221  -0.18906  -0.18376  -0.17182
 Alpha  occ. eigenvalues --   -0.15819
 Alpha virt. eigenvalues --   -0.11608  -0.06747  -0.06193  -0.04632  -0.03804
 Alpha virt. eigenvalues --   -0.03156  -0.01811  -0.01517  -0.00943   0.00301
 Alpha virt. eigenvalues --    0.00846   0.01500   0.02099   0.02257   0.02655

 Mulliken charges:
               1
     1  Mg   0.680054
     2  C    0.041126
     3  C   -0.031131
     4  C   -0.014819
     5  C   -0.066575
     6  N   -0.258342
     7  C   -0.013401
     8  C   -0.002356
     9  C   -0.024193
    10  C    0.036053
    11  C    0.132004
    12  C    0.074664
    13  C    0.178470
    14  C    0.057898
    15  O   -0.206731
    16  O   -0.243591
    17  N   -0.194717
    18  C    0.038888
    19  C   -0.143980
    20  C    0.073518
    21  C    0.062870
    22  C    0.175624
    23  C   -0.098935
    24  O   -0.146496
    25  C    0.125672
    26  N   -0.259617
    27  C    0.004545
    28  C   -0.000037
    29  C    0.069656
    30  C    0.065955
    31  C    0.120731
    32  C    0.075697
    33  C    0.073062
    34  N   -0.234003
    35  C    0.046570
    36  C   -0.166198
    37  C    0.034414
    38  C    0.090222
    39  C    0.164358
    40  C   -0.000243
    41  O   -0.140424
    42  C    0.008697
    43  C    0.131674
    44  O   -0.194400
    45  O   -0.287557
    46  C    0.213257
    47  C    0.332869
    48  C   -0.137418
    49  C   -0.146161
    50  C    0.155300
    51  C    0.127484
    52  C    0.073559
    53  C    0.117110
    54  C   -0.086546
    55  C    0.134812
    56  C    0.096947
    57  C    0.041317
    58  C    0.089371
    59  C   -0.100036
    60  C    0.095623
    61  C    0.116269
    62  C    0.078493
    63  C    0.091877
    64  C   -0.093469
    65  C    0.125380
    66  C    0.076875
    67  H   -0.072498
    68  H   -0.056132
    69  H   -0.062888
    70  H    0.017470
    71  H   -0.024200
    72  H    0.010023
    73  H   -0.011213
    74  H   -0.003177
    75  H   -0.022814
    76  H   -0.022732
    77  H   -0.012291
    78  H    0.005608
    79  H   -0.013723
    80  H    0.016325
    81  H    0.005126
    82  H   -0.011384
    83  H    0.008673
    84  H   -0.014845
    85  H   -0.017422
    86  H   -0.036555
    87  H   -0.002562
    88  H    0.012857
    89  H    0.012311
    90  H   -0.022407
    91  H   -0.027374
    92  H   -0.008720
    93  H   -0.012135
    94  H   -0.008196
    95  H   -0.016620
    96  H    0.011892
    97  H    0.012842
    98  H    0.016450
    99  H   -0.001584
   100  H    0.023338
   101  H    0.033488
   102  H   -0.001809
   103  H   -0.003252
   104  H   -0.047137
   105  H   -0.001069
   106  H   -0.024084
   107  H    0.001713
   108  H   -0.044811
   109  H   -0.015994
   110  H   -0.026031
   111  H   -0.031347
   112  H   -0.032605
   113  H   -0.030676
   114  H   -0.031817
   115  H   -0.024621
   116  H   -0.019131
   117  H   -0.017605
   118  H   -0.025316
   119  H   -0.037107
   120  H   -0.013220
   121  H   -0.025440
   122  H   -0.034106
   123  H   -0.041662
   124  H   -0.043006
   125  H   -0.017891
   126  H   -0.015920
   127  H   -0.010258
   128  H   -0.034115
   129  H   -0.046601
   130  H   -0.036391
   131  H   -0.024587
   132  H   -0.029214
   133  H   -0.024295
   134  H   -0.033092
   135  H   -0.025237
   136  H   -0.014598
   137  H   -0.017460
   138  H   -0.013593
   139  H   -0.008986
   140  H   -0.020152
 Sum of Mulliken charges =  -0.00000

 Dipole moment (field-independent basis, Debye):
    X=              4.1939    Y=              3.0149    Z=             -2.9695  Tot=              5.9579
 Quadrupole moment (field-independent basis, Debye-Ang):
   XX=           -378.2469   YY=           -435.6430   ZZ=           -405.0999
   XY=            -14.8228   XZ=              3.1403   YZ=              7.6589

 Normal termination of Gaussian 16 at Thu May  5 16:21:51 2022.
