 Gaussian 16, Revision A.03,
 Gaussian 16:  ES64L-G16RevA.03 25-Dec-2016

 -----------------------------------
 #p cam-b3lyp/Def2SVP td=(nstates=5)
 -----------------------------------

 ------------------------------------------------------
 step_951_chromophore_9 TDDFT with cam-b3lyp functional
 ------------------------------------------------------
 Symbolic Z-matrix:
 Charge =  0 Multiplicity = 1

                         Standard orientation:
 ---------------------------------------------------------------------
 Center     Atomic      Atomic             Coordinates (Angstroms)
 Number     Number       Type             X           Y           Z
 ---------------------------------------------------------------------
      1         12           0       -5.003786    0.755531    0.038416
      2          6           0       -3.949046   -2.486015    0.042843
      3          6           0       -1.816053    1.907278   -0.490171
      4          6           0       -6.138333    3.900767    0.136419
      5          6           0       -8.346794   -0.386059    0.439519
      6          7           0       -3.133746   -0.194693   -0.253555
      7          6           0       -2.942063   -1.570468   -0.334052
      8          6           0       -1.457276   -1.860200   -0.375409
      9          6           0       -0.715300   -0.421022   -0.287531
     10          6           0       -1.976724    0.517429   -0.301197
     11          6           0        0.145418   -0.152070    0.965351
     12          6           0       -1.082878   -2.538370   -1.688360
     13          6           0        0.295430   -3.134633   -1.857806
     14          6           0        1.212453   -3.315040   -0.608787
     15          8           0        0.953612   -3.962740    0.414107
     16          8           0        2.379648   -2.632225   -0.739752
     17          7           0       -4.063518    2.707244   -0.066999
     18          6           0       -2.789962    2.946766   -0.331377
     19          6           0       -2.490489    4.392572   -0.308774
     20          6           0       -3.770170    4.975049   -0.082375
     21          6           0       -4.719135    3.866161    0.023001
     22          6           0       -1.138830    4.947750   -0.548458
     23          6           0       -4.179589    6.402745   -0.053842
     24          8           0       -5.290702    6.796161    0.209962
     25          6           0       -3.226217    7.455541   -0.372922
     26          7           0       -6.946179    1.605898    0.074039
     27          6           0       -7.129732    2.978530    0.214109
     28          6           0       -8.577830    3.377312    0.459809
     29          6           0       -9.329463    1.955252    0.331834
     30          6           0       -8.176536    0.966449    0.278807
     31          6           0       -8.760644    4.094460    1.879954
     32          6           0      -10.341586    1.922982   -0.819126
     33          6           0      -10.073299    1.262717   -2.152422
     34          7           0       -6.047999   -1.092906    0.278498
     35          6           0       -7.351748   -1.401954    0.385542
     36          6           0       -7.454991   -2.897756    0.648006
     37          6           0       -6.126889   -3.340056    0.392701
     38          6           0       -5.308724   -2.231273    0.225905
     39          6           0       -8.635620   -3.803004    0.927192
     40          6           0       -5.322356   -4.591424    0.389849
     41          8           0       -5.556208   -5.793399    0.585226
     42          6           0       -3.892669   -4.029946    0.091539
     43          6           0       -2.913494   -4.654355    1.046875
     44          8           0       -2.681604   -4.338509    2.208335
     45          8           0       -2.240351   -5.675052    0.413329
     46          6           0       -1.376497   -6.416197    1.443842
     47          6           0        3.274692   -2.453875    0.347070
     48          6           0        4.663681   -2.085528   -0.182234
     49          6           0        5.600056   -2.774174   -0.927161
     50          6           0        5.412419   -4.160661   -1.339765
     51          6           0        6.966753   -2.174341   -1.311941
     52          6           0        6.890758   -1.183354   -2.436069
     53          6           0        8.201621   -1.044037   -3.311241
     54          6           0        8.505704    0.397720   -3.653131
     55          6           0        7.967987    0.809109   -5.007796
     56          6           0       10.055059    0.663977   -3.423319
     57          6           0       10.485990    0.601271   -1.913752
     58          6           0       11.391059    1.841617   -1.578060
     59          6           0       11.105473    2.447004   -0.167110
     60          6           0       11.498763    3.963249   -0.054254
     61          6           0       11.665173    1.675831    1.074425
     62          6           0       10.770428    1.690604    2.317618
     63          6           0       11.521251    1.993184    3.623445
     64          6           0       10.981667    1.135292    4.873818
     65          6           0       11.287611   -0.326435    4.891366
     66          6           0        9.395091    1.217266    5.012979
     67          1           0       -0.838853    2.356839   -0.678249
     68          1           0       -6.550119    4.905543    0.253397
     69          1           0       -9.290712   -0.819301    0.779505
     70          1           0       -1.093697   -2.414193    0.489300
     71          1           0       -0.168904   -0.273322   -1.219467
     72          1           0       -0.205003    0.628244    1.641983
     73          1           0        1.169970   -0.060851    0.606774
     74          1           0        0.234698   -1.065789    1.552007
     75          1           0       -1.238798   -1.876619   -2.540942
     76          1           0       -1.779342   -3.365767   -1.819833
     77          1           0        0.829729   -2.445421   -2.512400
     78          1           0        0.129539   -4.113122   -2.307867
     79          1           0       -0.966762    5.841950    0.051179
     80          1           0       -1.159816    5.271358   -1.589073
     81          1           0       -0.305567    4.308495   -0.257449
     82          1           0       -2.716459    7.247638   -1.313248
     83          1           0       -2.457883    7.639601    0.378366
     84          1           0       -3.705160    8.427987   -0.491075
     85          1           0       -8.940946    3.987157   -0.367001
     86          1           0       -9.873501    1.716135    1.246322
     87          1           0       -9.688150    3.789424    2.364795
     88          1           0       -8.850264    5.142826    1.594302
     89          1           0       -7.858019    3.844494    2.437970
     90          1           0      -10.663586    2.924216   -1.106791
     91          1           0      -11.192046    1.389584   -0.395741
     92          1           0       -9.046351    0.919992   -2.277497
     93          1           0      -10.180863    1.963021   -2.980664
     94          1           0      -10.670110    0.354960   -2.243992
     95          1           0       -9.556300   -3.269219    0.694735
     96          1           0       -8.659168   -4.123435    1.969737
     97          1           0       -8.596240   -4.711644    0.326154
     98          1           0       -3.742533   -4.423639   -0.913518
     99          1           0       -0.564577   -6.908734    0.907534
    100          1           0       -1.994352   -7.154536    1.953957
    101          1           0       -0.789147   -5.788981    2.114244
    102          1           0        3.422002   -3.419688    0.829997
    103          1           0        2.945300   -1.646747    1.001079
    104          1           0        4.923234   -1.070915    0.119356
    105          1           0        5.519351   -4.154312   -2.424327
    106          1           0        4.446591   -4.585064   -1.066471
    107          1           0        6.074118   -4.866617   -0.838711
    108          1           0        7.694385   -2.933237   -1.598440
    109          1           0        7.353121   -1.817890   -0.356902
    110          1           0        6.534956   -0.259299   -1.983235
    111          1           0        6.092420   -1.480355   -3.116119
    112          1           0        8.066665   -1.664753   -4.197686
    113          1           0        8.979413   -1.589163   -2.776420
    114          1           0        8.059358    1.119204   -2.967688
    115          1           0        8.794613    1.193094   -5.606172
    116          1           0        7.258069    1.629627   -4.903514
    117          1           0        7.476389   -0.013679   -5.526824
    118          1           0       10.360561    1.553011   -3.974659
    119          1           0       10.580413   -0.212152   -3.802879
    120          1           0       11.003923   -0.296053   -1.576641
    121          1           0        9.574913    0.672443   -1.320241
    122          1           0       11.416511    2.596513   -2.363730
    123          1           0       12.402549    1.434105   -1.566732
    124          1           0       10.017548    2.375634   -0.156176
    125          1           0       10.858034    4.513381   -0.742928
    126          1           0       12.526915    4.033947   -0.408967
    127          1           0       11.437686    4.384913    0.950398
    128          1           0       12.644229    2.117581    1.256365
    129          1           0       11.800457    0.663282    0.695007
    130          1           0       10.299904    0.707481    2.354099
    131          1           0        9.927245    2.352933    2.120328
    132          1           0       11.379393    3.051557    3.843220
    133          1           0       12.594688    1.837116    3.518827
    134          1           0       11.469913    1.628838    5.714656
    135          1           0       11.821056   -0.537801    3.964931
    136          1           0       10.422807   -0.987781    4.924050
    137          1           0       11.965718   -0.613400    5.695935
    138          1           0        9.219959    1.591601    6.021852
    139          1           0        8.872574    0.270298    4.878970
    140          1           0        8.911058    1.936579    4.352183
 ---------------------------------------------------------------------

 SCF Done:  E(RCAM-B3LYP) =  -3007.18630093     A.U. after   17 cycles

 Excitation energies and oscillator strengths:

 Excited State   1:      Singlet-A      1.7040 eV  727.61 nm  f=0.4076  <S**2>=0.000
     245 -> 248       -0.17199
     246 -> 247        0.68727
     245 <- 248       -0.10426
 This state for optimization and/or second-order correction.
 Total Energy, E(TD-HF/TD-DFT) =  -3007.12368033
 Copying the excited state density for this state as the 1-particle RhoCI density.

 Excited State   2:      Singlet-A      2.1956 eV  564.70 nm  f=0.1190  <S**2>=0.000
     245 -> 247        0.64749
     246 -> 248        0.27098

 Excited State   3:      Singlet-A      3.3868 eV  366.08 nm  f=0.0016  <S**2>=0.000
     242 -> 247       -0.14703
     244 -> 247        0.66146
     246 -> 248       -0.10777

 Excited State   4:      Singlet-A      3.5191 eV  352.31 nm  f=0.3404  <S**2>=0.000
     242 -> 247       -0.40164
     245 -> 247       -0.19301
     246 -> 248        0.53198

 Excited State   5:      Singlet-A      3.6029 eV  344.12 nm  f=0.0272  <S**2>=0.000
     240 -> 247        0.51501
     240 -> 248        0.14892
     240 -> 249        0.23715
     240 -> 250       -0.20156
     241 -> 247       -0.10221
     241 -> 249       -0.18151
     242 -> 247        0.16083
     246 -> 248        0.11242

 The electronic state is 1-A.
 Alpha  occ. eigenvalues --  -46.88801 -19.25408 -19.23820 -19.20164 -19.19407
 Alpha  occ. eigenvalues --  -19.18448 -19.18416 -14.42779 -14.41543 -14.39425
 Alpha  occ. eigenvalues --  -14.38886 -10.40286 -10.38134 -10.35463 -10.34318
 Alpha  occ. eigenvalues --  -10.32572 -10.31529 -10.31214 -10.30445 -10.30197
 Alpha  occ. eigenvalues --  -10.30141 -10.29946 -10.29932 -10.29770 -10.29208
 Alpha  occ. eigenvalues --  -10.28357 -10.28322 -10.28210 -10.28137 -10.27982
 Alpha  occ. eigenvalues --  -10.27959 -10.27897 -10.27747 -10.27555 -10.27507
 Alpha  occ. eigenvalues --  -10.27348 -10.27138 -10.27099 -10.26966 -10.26223
 Alpha  occ. eigenvalues --  -10.26093 -10.26083 -10.26041 -10.26027 -10.25999
 Alpha  occ. eigenvalues --  -10.25923 -10.25781 -10.25707 -10.25638 -10.25591
 Alpha  occ. eigenvalues --  -10.25517 -10.25511 -10.25502 -10.25438 -10.25318
 Alpha  occ. eigenvalues --  -10.25296 -10.25078 -10.25048 -10.25028 -10.24817
 Alpha  occ. eigenvalues --  -10.24690 -10.24685 -10.24635 -10.24537 -10.24468
 Alpha  occ. eigenvalues --  -10.24061  -3.17225  -1.92154  -1.91654  -1.91544
 Alpha  occ. eigenvalues --   -1.17359  -1.14193  -1.10979  -1.08881  -1.07794
 Alpha  occ. eigenvalues --   -1.05303  -1.04912  -1.03700  -1.02687  -1.01413
 Alpha  occ. eigenvalues --   -0.92463  -0.90959  -0.90024  -0.89551  -0.88856
 Alpha  occ. eigenvalues --   -0.88815  -0.87980  -0.87552  -0.87255  -0.87116
 Alpha  occ. eigenvalues --   -0.85622  -0.85404  -0.84411  -0.83470  -0.83164
 Alpha  occ. eigenvalues --   -0.82762  -0.82218  -0.81713  -0.80751  -0.80404
 Alpha  occ. eigenvalues --   -0.79811  -0.78907  -0.78086  -0.76955  -0.76163
 Alpha  occ. eigenvalues --   -0.75442  -0.75031  -0.74951  -0.74779  -0.74422
 Alpha  occ. eigenvalues --   -0.73612  -0.72338  -0.71402  -0.70116  -0.69146
 Alpha  occ. eigenvalues --   -0.68646  -0.68438  -0.67673  -0.67344  -0.66484
 Alpha  occ. eigenvalues --   -0.65804  -0.64599  -0.64244  -0.64137  -0.63982
 Alpha  occ. eigenvalues --   -0.63812  -0.62825  -0.61879  -0.60720  -0.60385
 Alpha  occ. eigenvalues --   -0.59926  -0.59471  -0.58732  -0.58338  -0.57762
 Alpha  occ. eigenvalues --   -0.57291  -0.57115  -0.56464  -0.55980  -0.55565
 Alpha  occ. eigenvalues --   -0.55262  -0.54668  -0.54411  -0.54144  -0.54017
 Alpha  occ. eigenvalues --   -0.53954  -0.53447  -0.53346  -0.53214  -0.52766
 Alpha  occ. eigenvalues --   -0.52635  -0.52503  -0.52292  -0.51918  -0.51867
 Alpha  occ. eigenvalues --   -0.51497  -0.51328  -0.50940  -0.50779  -0.50685
 Alpha  occ. eigenvalues --   -0.50294  -0.50092  -0.49973  -0.49857  -0.49671
 Alpha  occ. eigenvalues --   -0.49556  -0.49233  -0.49058  -0.48999  -0.48550
 Alpha  occ. eigenvalues --   -0.48400  -0.48273  -0.48155  -0.48031  -0.47884
 Alpha  occ. eigenvalues --   -0.47769  -0.47447  -0.47303  -0.46992  -0.46749
 Alpha  occ. eigenvalues --   -0.46235  -0.46112  -0.45934  -0.45783  -0.45546
 Alpha  occ. eigenvalues --   -0.45370  -0.45165  -0.45044  -0.45003  -0.44594
 Alpha  occ. eigenvalues --   -0.44574  -0.44345  -0.44093  -0.43905  -0.43708
 Alpha  occ. eigenvalues --   -0.43468  -0.43328  -0.43277  -0.43039  -0.42777
 Alpha  occ. eigenvalues --   -0.42752  -0.42430  -0.42308  -0.42163  -0.42098
 Alpha  occ. eigenvalues --   -0.42009  -0.41866  -0.41688  -0.41356  -0.40995
 Alpha  occ. eigenvalues --   -0.40817  -0.40762  -0.40409  -0.40291  -0.40135
 Alpha  occ. eigenvalues --   -0.40085  -0.39791  -0.39387  -0.39086  -0.38641
 Alpha  occ. eigenvalues --   -0.38099  -0.37840  -0.37767  -0.37648  -0.37216
 Alpha  occ. eigenvalues --   -0.36980  -0.36659  -0.36621  -0.36150  -0.36121
 Alpha  occ. eigenvalues --   -0.35516  -0.35447  -0.34849  -0.34404  -0.34348
 Alpha  occ. eigenvalues --   -0.34102  -0.33291  -0.32713  -0.31440  -0.30903
 Alpha  occ. eigenvalues --   -0.30896  -0.30503  -0.29953  -0.29378  -0.23962
 Alpha  occ. eigenvalues --   -0.21110
 Alpha virt. eigenvalues --   -0.08788  -0.01477   0.00282   0.02293   0.03787
 Alpha virt. eigenvalues --    0.03998   0.04349   0.04798   0.06279   0.06578
 Alpha virt. eigenvalues --    0.07843   0.08174   0.08719   0.08798   0.09122

 Mulliken charges:
               1
     1  Mg   0.813217
     2  C    0.030028
     3  C   -0.041788
     4  C   -0.041505
     5  C   -0.075202
     6  N   -0.330045
     7  C    0.034580
     8  C   -0.072686
     9  C   -0.069532
    10  C    0.053443
    11  C    0.072788
    12  C    0.032411
    13  C    0.107563
    14  C    0.136666
    15  O   -0.247594
    16  O   -0.306989
    17  N   -0.282772
    18  C    0.049032
    19  C   -0.144386
    20  C   -0.001996
    21  C    0.091831
    22  C    0.115478
    23  C   -0.014763
    24  O   -0.187289
    25  C    0.040189
    26  N   -0.333398
    27  C    0.026856
    28  C   -0.054071
    29  C    0.017860
    30  C    0.079492
    31  C    0.064762
    32  C    0.019331
    33  C    0.011287
    34  N   -0.319057
    35  C    0.053948
    36  C   -0.161593
    37  C   -0.041771
    38  C    0.114028
    39  C    0.112084
    40  C    0.102519
    41  O   -0.178768
    42  C   -0.073792
    43  C    0.216844
    44  O   -0.232316
    45  O   -0.350260
    46  C    0.175247
    47  C    0.302421
    48  C   -0.158236
    49  C   -0.167150
    50  C    0.091794
    51  C    0.070039
    52  C    0.024468
    53  C    0.056908
    54  C   -0.141692
    55  C    0.075556
    56  C    0.044985
    57  C   -0.007205
    58  C    0.037459
    59  C   -0.151785
    60  C    0.040222
    61  C    0.062984
    62  C    0.020000
    63  C    0.041519
    64  C   -0.148427
    65  C    0.060263
    66  C    0.014763
    67  H   -0.035735
    68  H   -0.015252
    69  H   -0.028449
    70  H    0.049872
    71  H    0.009691
    72  H    0.036815
    73  H    0.010357
    74  H    0.021292
    75  H    0.008461
    76  H    0.006101
    77  H    0.022191
    78  H    0.039028
    79  H    0.014421
    80  H    0.044016
    81  H    0.032808
    82  H    0.016542
    83  H    0.036843
    84  H    0.022091
    85  H    0.017041
    86  H   -0.000305
    87  H    0.021226
    88  H    0.034824
    89  H    0.036698
    90  H    0.005585
    91  H    0.001027
    92  H    0.015226
    93  H    0.011842
    94  H    0.015294
    95  H    0.006711
    96  H    0.037806
    97  H    0.038353
    98  H    0.058210
    99  H    0.022177
   100  H    0.045974
   101  H    0.058079
   102  H    0.028888
   103  H    0.020555
   104  H   -0.016164
   105  H    0.021356
   106  H    0.001210
   107  H    0.026651
   108  H   -0.012855
   109  H    0.013484
   110  H    0.000050
   111  H   -0.001992
   112  H   -0.002626
   113  H   -0.003131
   114  H   -0.000879
   115  H    0.000373
   116  H    0.005501
   117  H    0.006544
   118  H    0.002228
   119  H   -0.008042
   120  H    0.012541
   121  H   -0.001873
   122  H   -0.004608
   123  H   -0.012737
   124  H   -0.013498
   125  H    0.006132
   126  H    0.006826
   127  H    0.012483
   128  H   -0.006316
   129  H   -0.017825
   130  H   -0.007750
   131  H    0.002787
   132  H   -0.001229
   133  H    0.003891
   134  H   -0.000200
   135  H   -0.001920
   136  H    0.010030
   137  H    0.008061
   138  H    0.011314
   139  H    0.013879
   140  H    0.003200
 Sum of Mulliken charges =  -0.00000

 Dipole moment (field-independent basis, Debye):
    X=              4.6938    Y=              3.6035    Z=             -3.1768  Tot=              6.7163
 Quadrupole moment (field-independent basis, Debye-Ang):
   XX=           -380.1901   YY=           -431.0689   ZZ=           -405.4418
   XY=            -15.9756   XZ=              3.3186   YZ=              7.5932

 Normal termination of Gaussian 16 at Thu May  5 15:05:56 2022.
