 Gaussian 16, Revision A.03,
 Gaussian 16:  ES64L-G16RevA.03 25-Dec-2016

 ---------------------------------
 #p PBE1PBE/Def2SVP td=(nstates=5)
 ---------------------------------

 ----------------------------------------------------
 step_951_chromophore_9 TDDFT with PBE1PBE functional
 ----------------------------------------------------
 Symbolic Z-matrix:
 Charge =  0 Multiplicity = 1

                         Standard orientation:
 ---------------------------------------------------------------------
 Center     Atomic      Atomic             Coordinates (Angstroms)
 Number     Number       Type             X           Y           Z
 ---------------------------------------------------------------------
      1         12           0       -5.003786    0.755531    0.038416
      2          6           0       -3.949046   -2.486015    0.042843
      3          6           0       -1.816053    1.907278   -0.490171
      4          6           0       -6.138333    3.900767    0.136419
      5          6           0       -8.346794   -0.386059    0.439519
      6          7           0       -3.133746   -0.194693   -0.253555
      7          6           0       -2.942063   -1.570468   -0.334052
      8          6           0       -1.457276   -1.860200   -0.375409
      9          6           0       -0.715300   -0.421022   -0.287531
     10          6           0       -1.976724    0.517429   -0.301197
     11          6           0        0.145418   -0.152070    0.965351
     12          6           0       -1.082878   -2.538370   -1.688360
     13          6           0        0.295430   -3.134633   -1.857806
     14          6           0        1.212453   -3.315040   -0.608787
     15          8           0        0.953612   -3.962740    0.414107
     16          8           0        2.379648   -2.632225   -0.739752
     17          7           0       -4.063518    2.707244   -0.066999
     18          6           0       -2.789962    2.946766   -0.331377
     19          6           0       -2.490489    4.392572   -0.308774
     20          6           0       -3.770170    4.975049   -0.082375
     21          6           0       -4.719135    3.866161    0.023001
     22          6           0       -1.138830    4.947750   -0.548458
     23          6           0       -4.179589    6.402745   -0.053842
     24          8           0       -5.290702    6.796161    0.209962
     25          6           0       -3.226217    7.455541   -0.372922
     26          7           0       -6.946179    1.605898    0.074039
     27          6           0       -7.129732    2.978530    0.214109
     28          6           0       -8.577830    3.377312    0.459809
     29          6           0       -9.329463    1.955252    0.331834
     30          6           0       -8.176536    0.966449    0.278807
     31          6           0       -8.760644    4.094460    1.879954
     32          6           0      -10.341586    1.922982   -0.819126
     33          6           0      -10.073299    1.262717   -2.152422
     34          7           0       -6.047999   -1.092906    0.278498
     35          6           0       -7.351748   -1.401954    0.385542
     36          6           0       -7.454991   -2.897756    0.648006
     37          6           0       -6.126889   -3.340056    0.392701
     38          6           0       -5.308724   -2.231273    0.225905
     39          6           0       -8.635620   -3.803004    0.927192
     40          6           0       -5.322356   -4.591424    0.389849
     41          8           0       -5.556208   -5.793399    0.585226
     42          6           0       -3.892669   -4.029946    0.091539
     43          6           0       -2.913494   -4.654355    1.046875
     44          8           0       -2.681604   -4.338509    2.208335
     45          8           0       -2.240351   -5.675052    0.413329
     46          6           0       -1.376497   -6.416197    1.443842
     47          6           0        3.274692   -2.453875    0.347070
     48          6           0        4.663681   -2.085528   -0.182234
     49          6           0        5.600056   -2.774174   -0.927161
     50          6           0        5.412419   -4.160661   -1.339765
     51          6           0        6.966753   -2.174341   -1.311941
     52          6           0        6.890758   -1.183354   -2.436069
     53          6           0        8.201621   -1.044037   -3.311241
     54          6           0        8.505704    0.397720   -3.653131
     55          6           0        7.967987    0.809109   -5.007796
     56          6           0       10.055059    0.663977   -3.423319
     57          6           0       10.485990    0.601271   -1.913752
     58          6           0       11.391059    1.841617   -1.578060
     59          6           0       11.105473    2.447004   -0.167110
     60          6           0       11.498763    3.963249   -0.054254
     61          6           0       11.665173    1.675831    1.074425
     62          6           0       10.770428    1.690604    2.317618
     63          6           0       11.521251    1.993184    3.623445
     64          6           0       10.981667    1.135292    4.873818
     65          6           0       11.287611   -0.326435    4.891366
     66          6           0        9.395091    1.217266    5.012979
     67          1           0       -0.838853    2.356839   -0.678249
     68          1           0       -6.550119    4.905543    0.253397
     69          1           0       -9.290712   -0.819301    0.779505
     70          1           0       -1.093697   -2.414193    0.489300
     71          1           0       -0.168904   -0.273322   -1.219467
     72          1           0       -0.205003    0.628244    1.641983
     73          1           0        1.169970   -0.060851    0.606774
     74          1           0        0.234698   -1.065789    1.552007
     75          1           0       -1.238798   -1.876619   -2.540942
     76          1           0       -1.779342   -3.365767   -1.819833
     77          1           0        0.829729   -2.445421   -2.512400
     78          1           0        0.129539   -4.113122   -2.307867
     79          1           0       -0.966762    5.841950    0.051179
     80          1           0       -1.159816    5.271358   -1.589073
     81          1           0       -0.305567    4.308495   -0.257449
     82          1           0       -2.716459    7.247638   -1.313248
     83          1           0       -2.457883    7.639601    0.378366
     84          1           0       -3.705160    8.427987   -0.491075
     85          1           0       -8.940946    3.987157   -0.367001
     86          1           0       -9.873501    1.716135    1.246322
     87          1           0       -9.688150    3.789424    2.364795
     88          1           0       -8.850264    5.142826    1.594302
     89          1           0       -7.858019    3.844494    2.437970
     90          1           0      -10.663586    2.924216   -1.106791
     91          1           0      -11.192046    1.389584   -0.395741
     92          1           0       -9.046351    0.919992   -2.277497
     93          1           0      -10.180863    1.963021   -2.980664
     94          1           0      -10.670110    0.354960   -2.243992
     95          1           0       -9.556300   -3.269219    0.694735
     96          1           0       -8.659168   -4.123435    1.969737
     97          1           0       -8.596240   -4.711644    0.326154
     98          1           0       -3.742533   -4.423639   -0.913518
     99          1           0       -0.564577   -6.908734    0.907534
    100          1           0       -1.994352   -7.154536    1.953957
    101          1           0       -0.789147   -5.788981    2.114244
    102          1           0        3.422002   -3.419688    0.829997
    103          1           0        2.945300   -1.646747    1.001079
    104          1           0        4.923234   -1.070915    0.119356
    105          1           0        5.519351   -4.154312   -2.424327
    106          1           0        4.446591   -4.585064   -1.066471
    107          1           0        6.074118   -4.866617   -0.838711
    108          1           0        7.694385   -2.933237   -1.598440
    109          1           0        7.353121   -1.817890   -0.356902
    110          1           0        6.534956   -0.259299   -1.983235
    111          1           0        6.092420   -1.480355   -3.116119
    112          1           0        8.066665   -1.664753   -4.197686
    113          1           0        8.979413   -1.589163   -2.776420
    114          1           0        8.059358    1.119204   -2.967688
    115          1           0        8.794613    1.193094   -5.606172
    116          1           0        7.258069    1.629627   -4.903514
    117          1           0        7.476389   -0.013679   -5.526824
    118          1           0       10.360561    1.553011   -3.974659
    119          1           0       10.580413   -0.212152   -3.802879
    120          1           0       11.003923   -0.296053   -1.576641
    121          1           0        9.574913    0.672443   -1.320241
    122          1           0       11.416511    2.596513   -2.363730
    123          1           0       12.402549    1.434105   -1.566732
    124          1           0       10.017548    2.375634   -0.156176
    125          1           0       10.858034    4.513381   -0.742928
    126          1           0       12.526915    4.033947   -0.408967
    127          1           0       11.437686    4.384913    0.950398
    128          1           0       12.644229    2.117581    1.256365
    129          1           0       11.800457    0.663282    0.695007
    130          1           0       10.299904    0.707481    2.354099
    131          1           0        9.927245    2.352933    2.120328
    132          1           0       11.379393    3.051557    3.843220
    133          1           0       12.594688    1.837116    3.518827
    134          1           0       11.469913    1.628838    5.714656
    135          1           0       11.821056   -0.537801    3.964931
    136          1           0       10.422807   -0.987781    4.924050
    137          1           0       11.965718   -0.613400    5.695935
    138          1           0        9.219959    1.591601    6.021852
    139          1           0        8.872574    0.270298    4.878970
    140          1           0        8.911058    1.936579    4.352183
 ---------------------------------------------------------------------

 SCF Done:  E(RPBE1PBE) =  -3005.37481481     A.U. after   15 cycles

 Excitation energies and oscillator strengths:

 Excited State   1:      Singlet-A      1.8598 eV  666.66 nm  f=0.3954  <S**2>=0.000
     245 -> 248       -0.16537
     246 -> 247        0.69505
     246 <- 247       -0.11439
 This state for optimization and/or second-order correction.
 Total Energy, E(TD-HF/TD-DFT) =  -3005.30646922
 Copying the excited state density for this state as the 1-particle RhoCI density.

 Excited State   2:      Singlet-A      2.2021 eV  563.03 nm  f=0.1128  <S**2>=0.000
     245 -> 247        0.65798
     246 -> 248        0.24477

 Excited State   3:      Singlet-A      3.0074 eV  412.26 nm  f=0.0009  <S**2>=0.000
     241 -> 247        0.18296
     244 -> 247        0.65300

 Excited State   4:      Singlet-A      3.0226 eV  410.19 nm  f=0.0002  <S**2>=0.000
     242 -> 247        0.67279
     242 -> 249       -0.14999
     242 -> 250       -0.10086

 Excited State   5:      Singlet-A      3.1257 eV  396.66 nm  f=0.0000  <S**2>=0.000
     241 -> 247        0.64520
     241 -> 249        0.12920
     244 -> 247       -0.19552

 The electronic state is 1-A.
 Alpha  occ. eigenvalues --  -46.92185 -19.26061 -19.24506 -19.20424 -19.19667
 Alpha  occ. eigenvalues --  -19.18706 -19.18540 -14.42231 -14.41173 -14.38961
 Alpha  occ. eigenvalues --  -14.38574 -10.37320 -10.35166 -10.32658 -10.31317
 Alpha  occ. eigenvalues --  -10.29949 -10.29205 -10.29048 -10.28263 -10.27858
 Alpha  occ. eigenvalues --  -10.27763 -10.27681 -10.27337 -10.27214 -10.26700
 Alpha  occ. eigenvalues --  -10.26231 -10.26070 -10.25996 -10.25928 -10.25630
 Alpha  occ. eigenvalues --  -10.25549 -10.25433 -10.25373 -10.25368 -10.25061
 Alpha  occ. eigenvalues --  -10.24973 -10.24890 -10.24725 -10.24573 -10.23955
 Alpha  occ. eigenvalues --  -10.23765 -10.23672 -10.23557 -10.23503 -10.23491
 Alpha  occ. eigenvalues --  -10.23477 -10.23436 -10.23302 -10.23286 -10.23087
 Alpha  occ. eigenvalues --  -10.23083 -10.23062 -10.23061 -10.22929 -10.22872
 Alpha  occ. eigenvalues --  -10.22845 -10.22741 -10.22628 -10.22608 -10.22326
 Alpha  occ. eigenvalues --  -10.22226 -10.22073 -10.22022 -10.21959 -10.21884
 Alpha  occ. eigenvalues --  -10.21418  -3.14195  -1.87066  -1.86544  -1.86435
 Alpha  occ. eigenvalues --   -1.12171  -1.08959  -1.05629  -1.03638  -1.02624
 Alpha  occ. eigenvalues --   -1.00151  -0.99521  -0.98426  -0.97286  -0.96037
 Alpha  occ. eigenvalues --   -0.86853  -0.85081  -0.84212  -0.83651  -0.83089
 Alpha  occ. eigenvalues --   -0.82907  -0.82215  -0.81838  -0.81440  -0.81344
 Alpha  occ. eigenvalues --   -0.79870  -0.79766  -0.78614  -0.77683  -0.77497
 Alpha  occ. eigenvalues --   -0.76968  -0.76362  -0.75934  -0.75027  -0.74539
 Alpha  occ. eigenvalues --   -0.74164  -0.73119  -0.72366  -0.71290  -0.70329
 Alpha  occ. eigenvalues --   -0.69772  -0.69276  -0.69110  -0.68911  -0.68587
 Alpha  occ. eigenvalues --   -0.67935  -0.66813  -0.65836  -0.64430  -0.63523
 Alpha  occ. eigenvalues --   -0.63007  -0.62718  -0.62107  -0.61562  -0.60660
 Alpha  occ. eigenvalues --   -0.60212  -0.59135  -0.58820  -0.58658  -0.58395
 Alpha  occ. eigenvalues --   -0.58026  -0.56983  -0.56139  -0.55217  -0.54970
 Alpha  occ. eigenvalues --   -0.54408  -0.53907  -0.53334  -0.52950  -0.52146
 Alpha  occ. eigenvalues --   -0.51828  -0.51542  -0.50952  -0.50600  -0.50039
 Alpha  occ. eigenvalues --   -0.49816  -0.49194  -0.48877  -0.48636  -0.48473
 Alpha  occ. eigenvalues --   -0.48330  -0.47930  -0.47852  -0.47595  -0.47226
 Alpha  occ. eigenvalues --   -0.47161  -0.47078  -0.46840  -0.46543  -0.46372
 Alpha  occ. eigenvalues --   -0.46027  -0.45896  -0.45469  -0.45304  -0.45256
 Alpha  occ. eigenvalues --   -0.44827  -0.44653  -0.44550  -0.44371  -0.44203
 Alpha  occ. eigenvalues --   -0.44115  -0.43830  -0.43703  -0.43588  -0.43126
 Alpha  occ. eigenvalues --   -0.42969  -0.42892  -0.42781  -0.42653  -0.42475
 Alpha  occ. eigenvalues --   -0.42386  -0.42113  -0.41884  -0.41693  -0.41448
 Alpha  occ. eigenvalues --   -0.40974  -0.40888  -0.40587  -0.40515  -0.40283
 Alpha  occ. eigenvalues --   -0.40005  -0.39960  -0.39795  -0.39743  -0.39267
 Alpha  occ. eigenvalues --   -0.39207  -0.39143  -0.38841  -0.38576  -0.38443
 Alpha  occ. eigenvalues --   -0.38275  -0.38097  -0.37994  -0.37834  -0.37564
 Alpha  occ. eigenvalues --   -0.37484  -0.37185  -0.37086  -0.36948  -0.36855
 Alpha  occ. eigenvalues --   -0.36737  -0.36645  -0.36459  -0.36315  -0.35734
 Alpha  occ. eigenvalues --   -0.35604  -0.35545  -0.35261  -0.35181  -0.34970
 Alpha  occ. eigenvalues --   -0.34898  -0.34556  -0.34323  -0.33890  -0.33410
 Alpha  occ. eigenvalues --   -0.32958  -0.32803  -0.32635  -0.32552  -0.32230
 Alpha  occ. eigenvalues --   -0.31989  -0.31709  -0.31436  -0.31214  -0.30956
 Alpha  occ. eigenvalues --   -0.30449  -0.30333  -0.29767  -0.29445  -0.29377
 Alpha  occ. eigenvalues --   -0.29038  -0.28619  -0.27865  -0.26997  -0.26087
 Alpha  occ. eigenvalues --   -0.25852  -0.25499  -0.25266  -0.25078  -0.20872
 Alpha  occ. eigenvalues --   -0.18746
 Alpha virt. eigenvalues --   -0.11224  -0.05031  -0.03941  -0.02094  -0.00628
 Alpha virt. eigenvalues --   -0.00189   0.00904   0.01259   0.01621   0.02911
 Alpha virt. eigenvalues --    0.03771   0.04584   0.05101   0.05222   0.05621

 Mulliken charges:
               1
     1  Mg   0.963134
     2  C    0.037105
     3  C   -0.031828
     4  C   -0.036259
     5  C   -0.067304
     6  N   -0.438974
     7  C    0.111157
     8  C   -0.166530
     9  C   -0.135043
    10  C    0.087788
    11  C    0.014778
    12  C   -0.011237
    13  C    0.030765
    14  C    0.206128
    15  O   -0.281564
    16  O   -0.339951
    17  N   -0.401790
    18  C    0.076843
    19  C   -0.169395
    20  C   -0.059703
    21  C    0.129034
    22  C    0.054898
    23  C    0.040463
    24  O   -0.227271
    25  C   -0.030257
    26  N   -0.432956
    27  C    0.055389
    28  C   -0.129802
    29  C   -0.049329
    30  C    0.106699
    31  C    0.004717
    32  C   -0.040766
    33  C   -0.059672
    34  N   -0.442442
    35  C    0.082850
    36  C   -0.175438
    37  C   -0.083548
    38  C    0.149782
    39  C    0.055871
    40  C    0.191403
    41  O   -0.225131
    42  C   -0.178933
    43  C    0.302198
    44  O   -0.267140
    45  O   -0.379470
    46  C    0.118313
    47  C    0.257987
    48  C   -0.164269
    49  C   -0.215881
    50  C    0.029417
    51  C    0.008672
    52  C   -0.034361
    53  C    0.000785
    54  C   -0.229241
    55  C    0.018956
    56  C   -0.011871
    57  C   -0.068196
    58  C   -0.012767
    59  C   -0.236850
    60  C   -0.023118
    61  C    0.007572
    62  C   -0.041831
    63  C   -0.017860
    64  C   -0.235285
    65  C   -0.001062
    66  C   -0.048465
    67  H   -0.003292
    68  H    0.018201
    69  H    0.004652
    70  H    0.088845
    71  H    0.045732
    72  H    0.063803
    73  H    0.039606
    74  H    0.048012
    75  H    0.041043
    76  H    0.043267
    77  H    0.053847
    78  H    0.070515
    79  H    0.042667
    80  H    0.071729
    81  H    0.057061
    82  H    0.043701
    83  H    0.062441
    84  H    0.049411
    85  H    0.053399
    86  H    0.036633
    87  H    0.048679
    88  H    0.061670
    89  H    0.065032
    90  H    0.037683
    91  H    0.033400
    92  H    0.045086
    93  H    0.039498
    94  H    0.042366
    95  H    0.034443
    96  H    0.066007
    97  H    0.065586
    98  H    0.095414
    99  H    0.044149
   100  H    0.068459
   101  H    0.079218
   102  H    0.055333
   103  H    0.047291
   104  H    0.014092
   105  H    0.049559
   106  H    0.030031
   107  H    0.054138
   108  H    0.019278
   109  H    0.045269
   110  H    0.031549
   111  H    0.031791
   112  H    0.029836
   113  H    0.028608
   114  H    0.037357
   115  H    0.027741
   116  H    0.032963
   117  H    0.033400
   118  H    0.032390
   119  H    0.027426
   120  H    0.042135
   121  H    0.031275
   122  H    0.026043
   123  H    0.021753
   124  H    0.025945
   125  H    0.034597
   126  H    0.035100
   127  H    0.040611
   128  H    0.025870
   129  H    0.016962
   130  H    0.025695
   131  H    0.033721
   132  H    0.031955
   133  H    0.035702
   134  H    0.036959
   135  H    0.026547
   136  H    0.036415
   137  H    0.035950
   138  H    0.039738
   139  H    0.040029
   140  H    0.031063
 Sum of Mulliken charges =  -0.00000

 Dipole moment (field-independent basis, Debye):
    X=              4.5171    Y=              3.4381    Z=             -3.1773  Tot=              6.5053
 Quadrupole moment (field-independent basis, Debye-Ang):
   XX=           -372.6024   YY=           -428.7070   ZZ=           -402.9328
   XY=            -15.6331   XZ=              2.6439   YZ=              7.5880

 Normal termination of Gaussian 16 at Thu May  5 15:27:31 2022.
