 Gaussian 16, Revision A.03,
 Gaussian 16:  ES64L-G16RevA.03 25-Dec-2016

 --------------------------------
 #p wB97XD/Def2SVP td=(nstates=5)
 --------------------------------

 ---------------------------------------------------
 step_951_chromophore_9 TDDFT with wB97XD functional
 ---------------------------------------------------
 Symbolic Z-matrix:
 Charge =  0 Multiplicity = 1

                         Standard orientation:
 ---------------------------------------------------------------------
 Center     Atomic      Atomic             Coordinates (Angstroms)
 Number     Number       Type             X           Y           Z
 ---------------------------------------------------------------------
      1         12           0       -5.003786    0.755531    0.038416
      2          6           0       -3.949046   -2.486015    0.042843
      3          6           0       -1.816053    1.907278   -0.490171
      4          6           0       -6.138333    3.900767    0.136419
      5          6           0       -8.346794   -0.386059    0.439519
      6          7           0       -3.133746   -0.194693   -0.253555
      7          6           0       -2.942063   -1.570468   -0.334052
      8          6           0       -1.457276   -1.860200   -0.375409
      9          6           0       -0.715300   -0.421022   -0.287531
     10          6           0       -1.976724    0.517429   -0.301197
     11          6           0        0.145418   -0.152070    0.965351
     12          6           0       -1.082878   -2.538370   -1.688360
     13          6           0        0.295430   -3.134633   -1.857806
     14          6           0        1.212453   -3.315040   -0.608787
     15          8           0        0.953612   -3.962740    0.414107
     16          8           0        2.379648   -2.632225   -0.739752
     17          7           0       -4.063518    2.707244   -0.066999
     18          6           0       -2.789962    2.946766   -0.331377
     19          6           0       -2.490489    4.392572   -0.308774
     20          6           0       -3.770170    4.975049   -0.082375
     21          6           0       -4.719135    3.866161    0.023001
     22          6           0       -1.138830    4.947750   -0.548458
     23          6           0       -4.179589    6.402745   -0.053842
     24          8           0       -5.290702    6.796161    0.209962
     25          6           0       -3.226217    7.455541   -0.372922
     26          7           0       -6.946179    1.605898    0.074039
     27          6           0       -7.129732    2.978530    0.214109
     28          6           0       -8.577830    3.377312    0.459809
     29          6           0       -9.329463    1.955252    0.331834
     30          6           0       -8.176536    0.966449    0.278807
     31          6           0       -8.760644    4.094460    1.879954
     32          6           0      -10.341586    1.922982   -0.819126
     33          6           0      -10.073299    1.262717   -2.152422
     34          7           0       -6.047999   -1.092906    0.278498
     35          6           0       -7.351748   -1.401954    0.385542
     36          6           0       -7.454991   -2.897756    0.648006
     37          6           0       -6.126889   -3.340056    0.392701
     38          6           0       -5.308724   -2.231273    0.225905
     39          6           0       -8.635620   -3.803004    0.927192
     40          6           0       -5.322356   -4.591424    0.389849
     41          8           0       -5.556208   -5.793399    0.585226
     42          6           0       -3.892669   -4.029946    0.091539
     43          6           0       -2.913494   -4.654355    1.046875
     44          8           0       -2.681604   -4.338509    2.208335
     45          8           0       -2.240351   -5.675052    0.413329
     46          6           0       -1.376497   -6.416197    1.443842
     47          6           0        3.274692   -2.453875    0.347070
     48          6           0        4.663681   -2.085528   -0.182234
     49          6           0        5.600056   -2.774174   -0.927161
     50          6           0        5.412419   -4.160661   -1.339765
     51          6           0        6.966753   -2.174341   -1.311941
     52          6           0        6.890758   -1.183354   -2.436069
     53          6           0        8.201621   -1.044037   -3.311241
     54          6           0        8.505704    0.397720   -3.653131
     55          6           0        7.967987    0.809109   -5.007796
     56          6           0       10.055059    0.663977   -3.423319
     57          6           0       10.485990    0.601271   -1.913752
     58          6           0       11.391059    1.841617   -1.578060
     59          6           0       11.105473    2.447004   -0.167110
     60          6           0       11.498763    3.963249   -0.054254
     61          6           0       11.665173    1.675831    1.074425
     62          6           0       10.770428    1.690604    2.317618
     63          6           0       11.521251    1.993184    3.623445
     64          6           0       10.981667    1.135292    4.873818
     65          6           0       11.287611   -0.326435    4.891366
     66          6           0        9.395091    1.217266    5.012979
     67          1           0       -0.838853    2.356839   -0.678249
     68          1           0       -6.550119    4.905543    0.253397
     69          1           0       -9.290712   -0.819301    0.779505
     70          1           0       -1.093697   -2.414193    0.489300
     71          1           0       -0.168904   -0.273322   -1.219467
     72          1           0       -0.205003    0.628244    1.641983
     73          1           0        1.169970   -0.060851    0.606774
     74          1           0        0.234698   -1.065789    1.552007
     75          1           0       -1.238798   -1.876619   -2.540942
     76          1           0       -1.779342   -3.365767   -1.819833
     77          1           0        0.829729   -2.445421   -2.512400
     78          1           0        0.129539   -4.113122   -2.307867
     79          1           0       -0.966762    5.841950    0.051179
     80          1           0       -1.159816    5.271358   -1.589073
     81          1           0       -0.305567    4.308495   -0.257449
     82          1           0       -2.716459    7.247638   -1.313248
     83          1           0       -2.457883    7.639601    0.378366
     84          1           0       -3.705160    8.427987   -0.491075
     85          1           0       -8.940946    3.987157   -0.367001
     86          1           0       -9.873501    1.716135    1.246322
     87          1           0       -9.688150    3.789424    2.364795
     88          1           0       -8.850264    5.142826    1.594302
     89          1           0       -7.858019    3.844494    2.437970
     90          1           0      -10.663586    2.924216   -1.106791
     91          1           0      -11.192046    1.389584   -0.395741
     92          1           0       -9.046351    0.919992   -2.277497
     93          1           0      -10.180863    1.963021   -2.980664
     94          1           0      -10.670110    0.354960   -2.243992
     95          1           0       -9.556300   -3.269219    0.694735
     96          1           0       -8.659168   -4.123435    1.969737
     97          1           0       -8.596240   -4.711644    0.326154
     98          1           0       -3.742533   -4.423639   -0.913518
     99          1           0       -0.564577   -6.908734    0.907534
    100          1           0       -1.994352   -7.154536    1.953957
    101          1           0       -0.789147   -5.788981    2.114244
    102          1           0        3.422002   -3.419688    0.829997
    103          1           0        2.945300   -1.646747    1.001079
    104          1           0        4.923234   -1.070915    0.119356
    105          1           0        5.519351   -4.154312   -2.424327
    106          1           0        4.446591   -4.585064   -1.066471
    107          1           0        6.074118   -4.866617   -0.838711
    108          1           0        7.694385   -2.933237   -1.598440
    109          1           0        7.353121   -1.817890   -0.356902
    110          1           0        6.534956   -0.259299   -1.983235
    111          1           0        6.092420   -1.480355   -3.116119
    112          1           0        8.066665   -1.664753   -4.197686
    113          1           0        8.979413   -1.589163   -2.776420
    114          1           0        8.059358    1.119204   -2.967688
    115          1           0        8.794613    1.193094   -5.606172
    116          1           0        7.258069    1.629627   -4.903514
    117          1           0        7.476389   -0.013679   -5.526824
    118          1           0       10.360561    1.553011   -3.974659
    119          1           0       10.580413   -0.212152   -3.802879
    120          1           0       11.003923   -0.296053   -1.576641
    121          1           0        9.574913    0.672443   -1.320241
    122          1           0       11.416511    2.596513   -2.363730
    123          1           0       12.402549    1.434105   -1.566732
    124          1           0       10.017548    2.375634   -0.156176
    125          1           0       10.858034    4.513381   -0.742928
    126          1           0       12.526915    4.033947   -0.408967
    127          1           0       11.437686    4.384913    0.950398
    128          1           0       12.644229    2.117581    1.256365
    129          1           0       11.800457    0.663282    0.695007
    130          1           0       10.299904    0.707481    2.354099
    131          1           0        9.927245    2.352933    2.120328
    132          1           0       11.379393    3.051557    3.843220
    133          1           0       12.594688    1.837116    3.518827
    134          1           0       11.469913    1.628838    5.714656
    135          1           0       11.821056   -0.537801    3.964931
    136          1           0       10.422807   -0.987781    4.924050
    137          1           0       11.965718   -0.613400    5.695935
    138          1           0        9.219959    1.591601    6.021852
    139          1           0        8.872574    0.270298    4.878970
    140          1           0        8.911058    1.936579    4.352183
 ---------------------------------------------------------------------

 SCF Done:  E(RwB97XD) =  -3007.88526200     A.U. after   17 cycles

 Excitation energies and oscillator strengths:

 Excited State   1:      Singlet-A      1.6468 eV  752.86 nm  f=0.4051  <S**2>=0.000
     245 -> 248       -0.17805
     246 -> 247        0.68461
     245 <- 248       -0.11332
 This state for optimization and/or second-order correction.
 Total Energy, E(TD-HF/TD-DFT) =  -3007.82474151
 Copying the excited state density for this state as the 1-particle RhoCI density.

 Excited State   2:      Singlet-A      2.1418 eV  578.88 nm  f=0.1157  <S**2>=0.000
     245 -> 247        0.64532
     246 -> 248        0.27418

 Excited State   3:      Singlet-A      3.4293 eV  361.54 nm  f=0.0041  <S**2>=0.000
     242 -> 247       -0.15324
     244 -> 247        0.64668
     246 -> 248       -0.12305

 Excited State   4:      Singlet-A      3.5342 eV  350.81 nm  f=0.3868  <S**2>=0.000
     241 -> 247        0.17757
     242 -> 247       -0.33441
     245 -> 247       -0.20144
     246 -> 248        0.54518
     245 <- 247        0.10007

 Excited State   5:      Singlet-A      3.6307 eV  341.49 nm  f=0.0288  <S**2>=0.000
     240 -> 247        0.27878
     240 -> 250       -0.12805
     241 -> 247        0.29772
     241 -> 249       -0.26595
     241 -> 250       -0.16401
     242 -> 247        0.36417
     242 -> 249       -0.16406
     242 -> 250       -0.12070

 The electronic state is 1-A.
 Alpha  occ. eigenvalues --  -46.95131 -19.30604 -19.29048 -19.25072 -19.24463
 Alpha  occ. eigenvalues --  -19.23443 -19.23397 -14.47397 -14.46148 -14.44008
 Alpha  occ. eigenvalues --  -14.43462 -10.44092 -10.41992 -10.39496 -10.38260
 Alpha  occ. eigenvalues --  -10.36457 -10.35577 -10.35232 -10.34435 -10.34232
 Alpha  occ. eigenvalues --  -10.34202 -10.33927 -10.33821 -10.33716 -10.33400
 Alpha  occ. eigenvalues --  -10.32480 -10.32459 -10.32269 -10.32097 -10.32040
 Alpha  occ. eigenvalues --  -10.31898 -10.31845 -10.31706 -10.31614 -10.31558
 Alpha  occ. eigenvalues --  -10.31442 -10.31260 -10.31132 -10.30917 -10.30208
 Alpha  occ. eigenvalues --  -10.30041 -10.30038 -10.29947 -10.29908 -10.29845
 Alpha  occ. eigenvalues --  -10.29793 -10.29767 -10.29584 -10.29540 -10.29510
 Alpha  occ. eigenvalues --  -10.29457 -10.29453 -10.29439 -10.29297 -10.29276
 Alpha  occ. eigenvalues --  -10.29218 -10.29123 -10.29078 -10.28973 -10.28735
 Alpha  occ. eigenvalues --  -10.28612 -10.28503 -10.28471 -10.28313 -10.28303
 Alpha  occ. eigenvalues --  -10.27851  -3.20997  -1.94617  -1.94097  -1.93985
 Alpha  occ. eigenvalues --   -1.19528  -1.16351  -1.13194  -1.11115  -1.09956
 Alpha  occ. eigenvalues --   -1.07510  -1.06972  -1.05707  -1.04695  -1.03403
 Alpha  occ. eigenvalues --   -0.94439  -0.92754  -0.91851  -0.91328  -0.90788
 Alpha  occ. eigenvalues --   -0.90584  -0.89883  -0.89476  -0.89033  -0.89022
 Alpha  occ. eigenvalues --   -0.87505  -0.87327  -0.86271  -0.85340  -0.85061
 Alpha  occ. eigenvalues --   -0.84642  -0.84124  -0.83584  -0.82672  -0.82219
 Alpha  occ. eigenvalues --   -0.81770  -0.80882  -0.79985  -0.78858  -0.77999
 Alpha  occ. eigenvalues --   -0.77375  -0.76873  -0.76816  -0.76602  -0.76261
 Alpha  occ. eigenvalues --   -0.75533  -0.74315  -0.73373  -0.72043  -0.71056
 Alpha  occ. eigenvalues --   -0.70600  -0.70352  -0.69671  -0.69209  -0.68329
 Alpha  occ. eigenvalues --   -0.67747  -0.66599  -0.66218  -0.66092  -0.65878
 Alpha  occ. eigenvalues --   -0.65678  -0.64651  -0.63741  -0.62733  -0.62393
 Alpha  occ. eigenvalues --   -0.61865  -0.61385  -0.60705  -0.60343  -0.59636
 Alpha  occ. eigenvalues --   -0.59267  -0.59059  -0.58400  -0.57935  -0.57478
 Alpha  occ. eigenvalues --   -0.57231  -0.56580  -0.56287  -0.56036  -0.55859
 Alpha  occ. eigenvalues --   -0.55843  -0.55382  -0.55259  -0.55131  -0.54643
 Alpha  occ. eigenvalues --   -0.54520  -0.54417  -0.54199  -0.53850  -0.53765
 Alpha  occ. eigenvalues --   -0.53389  -0.53287  -0.52895  -0.52669  -0.52629
 Alpha  occ. eigenvalues --   -0.52185  -0.52008  -0.51893  -0.51726  -0.51543
 Alpha  occ. eigenvalues --   -0.51437  -0.51137  -0.51018  -0.50904  -0.50512
 Alpha  occ. eigenvalues --   -0.50318  -0.50192  -0.50080  -0.49920  -0.49796
 Alpha  occ. eigenvalues --   -0.49659  -0.49376  -0.49166  -0.48925  -0.48689
 Alpha  occ. eigenvalues --   -0.48180  -0.48015  -0.47794  -0.47689  -0.47445
 Alpha  occ. eigenvalues --   -0.47224  -0.47077  -0.46927  -0.46894  -0.46493
 Alpha  occ. eigenvalues --   -0.46424  -0.46234  -0.45994  -0.45775  -0.45617
 Alpha  occ. eigenvalues --   -0.45371  -0.45250  -0.45206  -0.44947  -0.44672
 Alpha  occ. eigenvalues --   -0.44623  -0.44326  -0.44239  -0.44087  -0.43983
 Alpha  occ. eigenvalues --   -0.43865  -0.43847  -0.43563  -0.43330  -0.42923
 Alpha  occ. eigenvalues --   -0.42667  -0.42627  -0.42294  -0.42198  -0.41996
 Alpha  occ. eigenvalues --   -0.41964  -0.41655  -0.41271  -0.40930  -0.40488
 Alpha  occ. eigenvalues --   -0.39958  -0.39747  -0.39609  -0.39586  -0.39254
 Alpha  occ. eigenvalues --   -0.38950  -0.38637  -0.38461  -0.38078  -0.37988
 Alpha  occ. eigenvalues --   -0.37533  -0.37295  -0.36705  -0.36288  -0.36244
 Alpha  occ. eigenvalues --   -0.36054  -0.35375  -0.34831  -0.33642  -0.32888
 Alpha  occ. eigenvalues --   -0.32860  -0.32685  -0.31987  -0.31545  -0.25888
 Alpha  occ. eigenvalues --   -0.22911
 Alpha virt. eigenvalues --   -0.07133   0.00445   0.02328   0.04392   0.06183
 Alpha virt. eigenvalues --    0.06528   0.06976   0.07525   0.08423   0.09209
 Alpha virt. eigenvalues --    0.10514   0.11415   0.11892   0.12039   0.12395

 Mulliken charges:
               1
     1  Mg   0.952234
     2  C    0.027338
     3  C   -0.048036
     4  C   -0.054256
     5  C   -0.084201
     6  N   -0.403891
     7  C    0.076513
     8  C   -0.127021
     9  C   -0.114550
    10  C    0.075453
    11  C    0.026540
    12  C   -0.001421
    13  C    0.046944
    14  C    0.188854
    15  O   -0.276441
    16  O   -0.335920
    17  N   -0.365684
    18  C    0.066609
    19  C   -0.158117
    20  C   -0.052291
    21  C    0.119358
    22  C    0.066083
    23  C    0.037774
    24  O   -0.220507
    25  C   -0.022849
    26  N   -0.405116
    27  C    0.049873
    28  C   -0.105662
    29  C   -0.028256
    30  C    0.097362
    31  C    0.016715
    32  C   -0.028854
    33  C   -0.042676
    34  N   -0.403465
    35  C    0.070801
    36  C   -0.175158
    37  C   -0.081301
    38  C    0.138095
    39  C    0.068641
    40  C    0.175092
    41  O   -0.214915
    42  C   -0.141772
    43  C    0.280386
    44  O   -0.261567
    45  O   -0.379395
    46  C    0.133835
    47  C    0.271961
    48  C   -0.175788
    49  C   -0.198255
    50  C    0.042237
    51  C    0.025280
    52  C   -0.019058
    53  C    0.015806
    54  C   -0.197760
    55  C    0.028103
    56  C    0.006866
    57  C   -0.050801
    58  C   -0.000572
    59  C   -0.203698
    60  C   -0.008966
    61  C    0.023287
    62  C   -0.026969
    63  C   -0.002461
    64  C   -0.207833
    65  C    0.009659
    66  C   -0.035014
    67  H   -0.010264
    68  H    0.011322
    69  H   -0.001047
    70  H    0.071633
    71  H    0.035257
    72  H    0.059097
    73  H    0.031429
    74  H    0.041784
    75  H    0.034062
    76  H    0.030581
    77  H    0.048379
    78  H    0.066598
    79  H    0.037062
    80  H    0.067786
    81  H    0.054764
    82  H    0.037976
    83  H    0.058577
    84  H    0.048799
    85  H    0.043548
    86  H    0.026722
    87  H    0.043559
    88  H    0.056197
    89  H    0.058157
    90  H    0.029503
    91  H    0.026468
    92  H    0.035249
    93  H    0.034479
    94  H    0.037162
    95  H    0.028032
    96  H    0.060829
    97  H    0.060953
    98  H    0.087944
    99  H    0.040972
   100  H    0.064937
   101  H    0.075899
   102  H    0.050449
   103  H    0.041578
   104  H    0.010073
   105  H    0.043034
   106  H    0.023594
   107  H    0.049160
   108  H    0.010894
   109  H    0.038379
   110  H    0.022252
   111  H    0.022568
   112  H    0.022127
   113  H    0.017062
   114  H    0.023189
   115  H    0.021791
   116  H    0.028041
   117  H    0.027398
   118  H    0.024079
   119  H    0.016781
   120  H    0.035762
   121  H    0.016125
   122  H    0.017924
   123  H    0.012155
   124  H    0.009481
   125  H    0.028590
   126  H    0.027642
   127  H    0.034443
   128  H    0.015447
   129  H    0.007253
   130  H    0.015665
   131  H    0.024300
   132  H    0.024042
   133  H    0.027376
   134  H    0.028180
   135  H    0.018384
   136  H    0.030235
   137  H    0.031386
   138  H    0.034183
   139  H    0.033465
   140  H    0.023905
 Sum of Mulliken charges =  -0.00000

 Dipole moment (field-independent basis, Debye):
    X=              4.7891    Y=              3.7157    Z=             -3.2125  Tot=              6.8602
 Quadrupole moment (field-independent basis, Debye-Ang):
   XX=           -375.6691   YY=           -426.4096   ZZ=           -402.5259
   XY=            -16.1539   XZ=              2.9278   YZ=              7.5426

 Normal termination of Gaussian 16 at Thu May  5 16:06:14 2022.
