 Gaussian 16, Revision A.03,
 Gaussian 16:  ES64L-G16RevA.03 25-Dec-2016

 --------------------
 #p ZINDO=(nstates=5)
 --------------------

 ----------------------------
 step_951_chromophore_9 ZINDO
 ----------------------------
 Symbolic Z-matrix:
 Charge =  0 Multiplicity = 1

                         Standard orientation:
 ---------------------------------------------------------------------
 Center     Atomic      Atomic             Coordinates (Angstroms)
 Number     Number       Type             X           Y           Z
 ---------------------------------------------------------------------
      1         12           0       -5.003786    0.755531    0.038416
      2          6           0       -3.949046   -2.486015    0.042843
      3          6           0       -1.816053    1.907278   -0.490171
      4          6           0       -6.138333    3.900767    0.136419
      5          6           0       -8.346794   -0.386059    0.439519
      6          7           0       -3.133746   -0.194693   -0.253555
      7          6           0       -2.942063   -1.570468   -0.334052
      8          6           0       -1.457276   -1.860200   -0.375409
      9          6           0       -0.715300   -0.421022   -0.287531
     10          6           0       -1.976724    0.517429   -0.301197
     11          6           0        0.145418   -0.152070    0.965351
     12          6           0       -1.082878   -2.538370   -1.688360
     13          6           0        0.295430   -3.134633   -1.857806
     14          6           0        1.212453   -3.315040   -0.608787
     15          8           0        0.953612   -3.962740    0.414107
     16          8           0        2.379648   -2.632225   -0.739752
     17          7           0       -4.063518    2.707244   -0.066999
     18          6           0       -2.789962    2.946766   -0.331377
     19          6           0       -2.490489    4.392572   -0.308774
     20          6           0       -3.770170    4.975049   -0.082375
     21          6           0       -4.719135    3.866161    0.023001
     22          6           0       -1.138830    4.947750   -0.548458
     23          6           0       -4.179589    6.402745   -0.053842
     24          8           0       -5.290702    6.796161    0.209962
     25          6           0       -3.226217    7.455541   -0.372922
     26          7           0       -6.946179    1.605898    0.074039
     27          6           0       -7.129732    2.978530    0.214109
     28          6           0       -8.577830    3.377312    0.459809
     29          6           0       -9.329463    1.955252    0.331834
     30          6           0       -8.176536    0.966449    0.278807
     31          6           0       -8.760644    4.094460    1.879954
     32          6           0      -10.341586    1.922982   -0.819126
     33          6           0      -10.073299    1.262717   -2.152422
     34          7           0       -6.047999   -1.092906    0.278498
     35          6           0       -7.351748   -1.401954    0.385542
     36          6           0       -7.454991   -2.897756    0.648006
     37          6           0       -6.126889   -3.340056    0.392701
     38          6           0       -5.308724   -2.231273    0.225905
     39          6           0       -8.635620   -3.803004    0.927192
     40          6           0       -5.322356   -4.591424    0.389849
     41          8           0       -5.556208   -5.793399    0.585226
     42          6           0       -3.892669   -4.029946    0.091539
     43          6           0       -2.913494   -4.654355    1.046875
     44          8           0       -2.681604   -4.338509    2.208335
     45          8           0       -2.240351   -5.675052    0.413329
     46          6           0       -1.376497   -6.416197    1.443842
     47          6           0        3.274692   -2.453875    0.347070
     48          6           0        4.663681   -2.085528   -0.182234
     49          6           0        5.600056   -2.774174   -0.927161
     50          6           0        5.412419   -4.160661   -1.339765
     51          6           0        6.966753   -2.174341   -1.311941
     52          6           0        6.890758   -1.183354   -2.436069
     53          6           0        8.201621   -1.044037   -3.311241
     54          6           0        8.505704    0.397720   -3.653131
     55          6           0        7.967987    0.809109   -5.007796
     56          6           0       10.055059    0.663977   -3.423319
     57          6           0       10.485990    0.601271   -1.913752
     58          6           0       11.391059    1.841617   -1.578060
     59          6           0       11.105473    2.447004   -0.167110
     60          6           0       11.498763    3.963249   -0.054254
     61          6           0       11.665173    1.675831    1.074425
     62          6           0       10.770428    1.690604    2.317618
     63          6           0       11.521251    1.993184    3.623445
     64          6           0       10.981667    1.135292    4.873818
     65          6           0       11.287611   -0.326435    4.891366
     66          6           0        9.395091    1.217266    5.012979
     67          1           0       -0.838853    2.356839   -0.678249
     68          1           0       -6.550119    4.905543    0.253397
     69          1           0       -9.290712   -0.819301    0.779505
     70          1           0       -1.093697   -2.414193    0.489300
     71          1           0       -0.168904   -0.273322   -1.219467
     72          1           0       -0.205003    0.628244    1.641983
     73          1           0        1.169970   -0.060851    0.606774
     74          1           0        0.234698   -1.065789    1.552007
     75          1           0       -1.238798   -1.876619   -2.540942
     76          1           0       -1.779342   -3.365767   -1.819833
     77          1           0        0.829729   -2.445421   -2.512400
     78          1           0        0.129539   -4.113122   -2.307867
     79          1           0       -0.966762    5.841950    0.051179
     80          1           0       -1.159816    5.271358   -1.589073
     81          1           0       -0.305567    4.308495   -0.257449
     82          1           0       -2.716459    7.247638   -1.313248
     83          1           0       -2.457883    7.639601    0.378366
     84          1           0       -3.705160    8.427987   -0.491075
     85          1           0       -8.940946    3.987157   -0.367001
     86          1           0       -9.873501    1.716135    1.246322
     87          1           0       -9.688150    3.789424    2.364795
     88          1           0       -8.850264    5.142826    1.594302
     89          1           0       -7.858019    3.844494    2.437970
     90          1           0      -10.663586    2.924216   -1.106791
     91          1           0      -11.192046    1.389584   -0.395741
     92          1           0       -9.046351    0.919992   -2.277497
     93          1           0      -10.180863    1.963021   -2.980664
     94          1           0      -10.670110    0.354960   -2.243992
     95          1           0       -9.556300   -3.269219    0.694735
     96          1           0       -8.659168   -4.123435    1.969737
     97          1           0       -8.596240   -4.711644    0.326154
     98          1           0       -3.742533   -4.423639   -0.913518
     99          1           0       -0.564577   -6.908734    0.907534
    100          1           0       -1.994352   -7.154536    1.953957
    101          1           0       -0.789147   -5.788981    2.114244
    102          1           0        3.422002   -3.419688    0.829997
    103          1           0        2.945300   -1.646747    1.001079
    104          1           0        4.923234   -1.070915    0.119356
    105          1           0        5.519351   -4.154312   -2.424327
    106          1           0        4.446591   -4.585064   -1.066471
    107          1           0        6.074118   -4.866617   -0.838711
    108          1           0        7.694385   -2.933237   -1.598440
    109          1           0        7.353121   -1.817890   -0.356902
    110          1           0        6.534956   -0.259299   -1.983235
    111          1           0        6.092420   -1.480355   -3.116119
    112          1           0        8.066665   -1.664753   -4.197686
    113          1           0        8.979413   -1.589163   -2.776420
    114          1           0        8.059358    1.119204   -2.967688
    115          1           0        8.794613    1.193094   -5.606172
    116          1           0        7.258069    1.629627   -4.903514
    117          1           0        7.476389   -0.013679   -5.526824
    118          1           0       10.360561    1.553011   -3.974659
    119          1           0       10.580413   -0.212152   -3.802879
    120          1           0       11.003923   -0.296053   -1.576641
    121          1           0        9.574913    0.672443   -1.320241
    122          1           0       11.416511    2.596513   -2.363730
    123          1           0       12.402549    1.434105   -1.566732
    124          1           0       10.017548    2.375634   -0.156176
    125          1           0       10.858034    4.513381   -0.742928
    126          1           0       12.526915    4.033947   -0.408967
    127          1           0       11.437686    4.384913    0.950398
    128          1           0       12.644229    2.117581    1.256365
    129          1           0       11.800457    0.663282    0.695007
    130          1           0       10.299904    0.707481    2.354099
    131          1           0        9.927245    2.352933    2.120328
    132          1           0       11.379393    3.051557    3.843220
    133          1           0       12.594688    1.837116    3.518827
    134          1           0       11.469913    1.628838    5.714656
    135          1           0       11.821056   -0.537801    3.964931
    136          1           0       10.422807   -0.987781    4.924050
    137          1           0       11.965718   -0.613400    5.695935
    138          1           0        9.219959    1.591601    6.021852
    139          1           0        8.872574    0.270298    4.878970
    140          1           0        8.911058    1.936579    4.352183
 ---------------------------------------------------------------------

 SCF Done:  E(RZINDO/S) =  -474.275111781     A.U. after   20 cycles

 Excitation energies and oscillator strengths:

 Excited State   1:      Singlet-A      1.2546 eV  988.23 nm  f=0.6467  <S**2>=0.000
     175 ->178         0.17653
     176 ->177         0.66443
 This state for optimization and/or second-order correction.
 Total Energy, E(CIS/TDA) =  -474.229005820
 Copying the excited state density for this state as the 1-particle RhoCI density.

 Excited State   2:      Singlet-A      1.9145 eV  647.59 nm  f=0.0438  <S**2>=0.000
     175 ->177         0.55142
     176 ->178        -0.40764

 Excited State   3:      Singlet-A      2.8932 eV  428.53 nm  f=0.0050  <S**2>=0.000
     168 ->179         0.10386
     169 ->177         0.30029
     169 ->179        -0.41184
     169 ->180         0.30390
     169 ->186        -0.19569
     169 ->187        -0.17478

 Excited State   4:      Singlet-A      2.9353 eV  422.39 nm  f=0.6804  <S**2>=0.000
     175 ->177         0.30978
     176 ->178         0.49965
     176 ->179         0.28944
     176 ->180         0.12087

 Excited State   5:      Singlet-A      3.0500 eV  406.51 nm  f=0.0406  <S**2>=0.000
     168 ->177         0.25132
     168 ->178         0.24366
     168 ->179         0.26135
     168 ->180         0.31467
     168 ->186         0.19210
     170 ->177         0.11839
     170 ->179         0.10824
     170 ->180         0.13085

 The electronic state is 1-A.
 Alpha  occ. eigenvalues --   -1.82821  -1.82345  -1.78704  -1.73941  -1.70428
 Alpha  occ. eigenvalues --   -1.69834  -1.64590  -1.62127  -1.60696  -1.56523
 Alpha  occ. eigenvalues --   -1.54860  -1.52023  -1.49288  -1.46341  -1.46169
 Alpha  occ. eigenvalues --   -1.43090  -1.41733  -1.40321  -1.38848  -1.37893
 Alpha  occ. eigenvalues --   -1.35989  -1.32925  -1.32108  -1.31579  -1.28625
 Alpha  occ. eigenvalues --   -1.28031  -1.24940  -1.22687  -1.21645  -1.18314
 Alpha  occ. eigenvalues --   -1.17010  -1.14981  -1.14569  -1.14312  -1.13432
 Alpha  occ. eigenvalues --   -1.13102  -1.11769  -1.11191  -1.04737  -1.03285
 Alpha  occ. eigenvalues --   -1.02429  -1.00908  -0.98548  -0.97526  -0.97381
 Alpha  occ. eigenvalues --   -0.96256  -0.95039  -0.94035  -0.93300  -0.93233
 Alpha  occ. eigenvalues --   -0.92501  -0.89493  -0.88233  -0.87928  -0.85835
 Alpha  occ. eigenvalues --   -0.84679  -0.84162  -0.82955  -0.81501  -0.80590
 Alpha  occ. eigenvalues --   -0.78905  -0.77833  -0.77521  -0.76931  -0.75740
 Alpha  occ. eigenvalues --   -0.75608  -0.75267  -0.74366  -0.73572  -0.73442
 Alpha  occ. eigenvalues --   -0.72673  -0.72535  -0.72472  -0.72068  -0.71515
 Alpha  occ. eigenvalues --   -0.71196  -0.70415  -0.69848  -0.68955  -0.67930
 Alpha  occ. eigenvalues --   -0.67136  -0.66805  -0.66516  -0.66385  -0.66271
 Alpha  occ. eigenvalues --   -0.64910  -0.64697  -0.64461  -0.63656  -0.62944
 Alpha  occ. eigenvalues --   -0.62805  -0.62598  -0.62183  -0.62084  -0.61456
 Alpha  occ. eigenvalues --   -0.61409  -0.61234  -0.60987  -0.60614  -0.60136
 Alpha  occ. eigenvalues --   -0.59846  -0.59280  -0.59085  -0.58401  -0.58266
 Alpha  occ. eigenvalues --   -0.58111  -0.57442  -0.57169  -0.56901  -0.56167
 Alpha  occ. eigenvalues --   -0.55706  -0.55532  -0.55485  -0.55149  -0.54816
 Alpha  occ. eigenvalues --   -0.54398  -0.53953  -0.53130  -0.53044  -0.52797
 Alpha  occ. eigenvalues --   -0.52636  -0.52211  -0.52078  -0.51992  -0.51580
 Alpha  occ. eigenvalues --   -0.51264  -0.50674  -0.50252  -0.50163  -0.49887
 Alpha  occ. eigenvalues --   -0.49677  -0.49567  -0.49328  -0.48944  -0.48895
 Alpha  occ. eigenvalues --   -0.48481  -0.48217  -0.48168  -0.47795  -0.47621
 Alpha  occ. eigenvalues --   -0.47439  -0.47029  -0.46844  -0.46648  -0.46273
 Alpha  occ. eigenvalues --   -0.45972  -0.45674  -0.45580  -0.45445  -0.45355
 Alpha  occ. eigenvalues --   -0.44662  -0.44299  -0.44266  -0.44037  -0.43563
 Alpha  occ. eigenvalues --   -0.43447  -0.43385  -0.42733  -0.42697  -0.41884
 Alpha  occ. eigenvalues --   -0.41869  -0.41599  -0.41052  -0.39041  -0.38741
 Alpha  occ. eigenvalues --   -0.37292  -0.36732  -0.35048  -0.34751  -0.34494
 Alpha  occ. eigenvalues --   -0.33447  -0.32716  -0.31915  -0.31915  -0.26704
 Alpha  occ. eigenvalues --   -0.21653
 Alpha virt. eigenvalues --   -0.08565  -0.01963  -0.00184   0.01348   0.01718
 Alpha virt. eigenvalues --    0.02860   0.03481   0.03503   0.04232   0.05105
 Alpha virt. eigenvalues --    0.06317   0.06508   0.07420   0.07816   0.08380

 Mulliken charges:
               1
     1  Mg   0.421899
     2  C   -0.018419
     3  C   -0.083258
     4  C   -0.076455
     5  C   -0.076396
     6  N   -0.264582
     7  C    0.085906
     8  C    0.006567
     9  C   -0.012070
    10  C    0.134219
    11  C   -0.051871
    12  C   -0.013630
    13  C    0.008566
    14  C    0.463480
    15  O   -0.522924
    16  O   -0.268256
    17  N   -0.304162
    18  C    0.105985
    19  C    0.021069
    20  C   -0.053878
    21  C    0.154189
    22  C   -0.034166
    23  C    0.337829
    24  O   -0.523144
    25  C   -0.026766
    26  N   -0.305388
    27  C    0.157072
    28  C   -0.008839
    29  C    0.002636
    30  C    0.134508
    31  C   -0.052780
    32  C   -0.022848
    33  C   -0.054154
    34  N   -0.310973
    35  C    0.104659
    36  C    0.004842
    37  C   -0.049900
    38  C    0.095898
    39  C   -0.031898
    40  C    0.332016
    41  O   -0.515012
    42  C    0.055608
    43  C    0.491623
    44  O   -0.519443
    45  O   -0.269103
    46  C    0.072303
    47  C    0.114878
    48  C   -0.112970
    49  C    0.010896
    50  C   -0.037711
    51  C   -0.016411
    52  C   -0.030919
    53  C   -0.028563
    54  C   -0.007311
    55  C   -0.054485
    56  C   -0.043180
    57  C   -0.039402
    58  C   -0.039215
    59  C   -0.022729
    60  C   -0.059817
    61  C   -0.033769
    62  C   -0.029014
    63  C   -0.030354
    64  C   -0.011624
    65  C   -0.049877
    66  C   -0.062306
    67  H    0.026696
    68  H    0.031425
    69  H    0.024219
    70  H    0.056395
    71  H    0.030174
    72  H    0.035888
    73  H    0.018238
    74  H    0.024978
    75  H    0.021589
    76  H    0.014972
    77  H    0.028981
    78  H    0.048226
    79  H    0.021377
    80  H    0.040368
    81  H    0.034612
    82  H    0.023765
    83  H    0.036676
    84  H    0.031529
    85  H    0.038057
    86  H    0.026374
    87  H    0.025195
    88  H    0.028021
    89  H    0.037451
    90  H    0.019643
    91  H    0.012129
    92  H    0.016684
    93  H    0.020093
    94  H    0.021557
    95  H    0.018121
    96  H    0.039057
    97  H    0.035427
    98  H    0.052498
    99  H    0.021959
   100  H    0.049689
   101  H    0.058065
   102  H    0.053998
   103  H    0.047199
   104  H    0.012487
   105  H    0.029043
   106  H    0.017495
   107  H    0.030846
   108  H    0.015607
   109  H    0.023217
   110  H    0.021472
   111  H    0.015868
   112  H    0.018177
   113  H    0.018494
   114  H    0.018304
   115  H    0.017224
   116  H    0.015510
   117  H    0.021376
   118  H    0.028325
   119  H    0.012082
   120  H    0.028307
   121  H    0.016268
   122  H    0.025353
   123  H    0.007892
   124  H    0.011302
   125  H    0.013620
   126  H    0.017314
   127  H    0.023328
   128  H    0.020698
   129  H    0.014528
   130  H    0.015501
   131  H    0.022009
   132  H    0.016346
   133  H    0.021503
   134  H    0.017674
   135  H    0.011057
   136  H    0.024040
   137  H    0.015092
   138  H    0.012871
   139  H    0.026210
   140  H    0.015557
 Sum of Mulliken charges =  -0.00000

 Dipole moment (field-independent basis, Debye):
    X=              6.2549    Y=              5.2794    Z=             -5.7323  Tot=              9.9928
 N-N= 4.359764555239D+03 E-N= 0.000000000000D+00  KE=-9.394224846350D+03
 Leave Link  601 at Thu May  5 16:21:59 2022, MaxMem=  6710886400 cpu:               1.2 elap:               0.1
 (Enter /sw/apps/gaussian-16.0/g16/l9999.exe)
 1\1\GINC-BP1-COMPUTE181\SP\RZINDO CIS\STO-3G\C55H74Mg1N4O6\OF15641\05-
 May-2022\0\\#p ZINDO=(nstates=5)\\step_951_chromophore_9 ZINDO\\0,1\Mg
 ,0,35.794,1.721,29.838\C,0,33.487,2.316,32.276\C,0,38.344,1.593,32.129
 \C,0,37.981,1.225,27.356\C,0,33.173,1.697,27.436\N,0,35.874,1.871,31.9
 49\C,0,34.767,2.,32.782\C,0,35.241,2.246,34.198\C,0,36.861,2.273,34.13
 2\C,0,37.06,1.928,32.611\C,0,37.554,3.608,34.479\C,0,34.795,1.112,35.1
 14\C,0,34.946,1.254,36.611\C,0,35.275,2.652,37.22\O,0,34.614,3.691,37.

 Normal termination of Gaussian 16 at Thu May  5 16:21:59 2022.
