 Gaussian 16, Revision A.03,
 Gaussian 16:  ES64L-G16RevA.03 25-Dec-2016

 ------------------------------
 #p blyp/Def2SVP td=(nstates=5)
 ------------------------------

 ---------------------------------------------------
 step_1601_chromophore_23 TDDFT with blyp functional
 ---------------------------------------------------
 Symbolic Z-matrix:
 Charge =  0 Multiplicity = 1

                         Standard orientation:
 ---------------------------------------------------------------------
 Center     Atomic      Atomic             Coordinates (Angstroms)
 Number     Number       Type             X           Y           Z
 ---------------------------------------------------------------------
      1         12           0       -4.827375    0.043858   -0.397327
      2          6           0       -2.607748    2.663328    0.142595
      3          6           0       -2.900595   -1.023180   -3.021007
      4          6           0       -6.412257   -2.970412   -0.299355
      5          6           0       -6.287433    0.841639    2.774552
      6          7           0       -3.048617    0.823588   -1.430448
      7          6           0       -2.331255    1.884013   -1.018879
      8          6           0       -1.088435    2.116002   -1.915668
      9          6           0       -1.384043    1.151569   -3.052312
     10          6           0       -2.527852    0.233765   -2.469587
     11          6           0       -1.742695    1.766188   -4.406416
     12          6           0        0.244504    1.865822   -1.090320
     13          6           0        1.198371    3.090715   -1.048455
     14          6           0        2.379853    3.020711   -2.015122
     15          8           0        2.313981    3.212215   -3.250331
     16          8           0        3.558892    2.798548   -1.308507
     17          7           0       -4.804742   -1.713515   -1.632989
     18          6           0       -3.915685   -1.926740   -2.640608
     19          6           0       -4.175139   -3.182847   -3.192159
     20          6           0       -5.170410   -3.871416   -2.390639
     21          6           0       -5.542287   -2.771325   -1.379277
     22          6           0       -3.373000   -3.779567   -4.461972
     23          6           0       -5.820943   -5.173070   -2.713602
     24          8           0       -5.497225   -5.902019   -3.637948
     25          6           0       -6.847560   -5.776454   -1.750454
     26          7           0       -6.350203   -0.881992    0.880532
     27          6           0       -6.913553   -2.065512    0.663017
     28          6           0       -7.891688   -2.514420    1.823535
     29          6           0       -7.772823   -1.284315    2.837653
     30          6           0       -6.796053   -0.297351    2.122035
     31          6           0       -9.386954   -2.870065    1.461534
     32          6           0       -7.235779   -1.857445    4.249548
     33          6           0       -8.002439   -1.329141    5.503536
     34          7           0       -4.573464    1.453753    1.162546
     35          6           0       -5.259080    1.721653    2.378193
     36          6           0       -4.629485    2.816825    3.041004
     37          6           0       -3.609266    3.237647    2.138916
     38          6           0       -3.662982    2.421630    1.040870
     39          6           0       -5.074512    3.463183    4.312696
     40          6           0       -2.698213    4.372330    1.915243
     41          8           0       -2.469316    5.355641    2.644216
     42          6           0       -1.929946    4.008071    0.559807
     43          6           0       -2.072781    5.086496   -0.418768
     44          8           0       -3.119758    5.393575   -1.016714
     45          8           0       -0.890363    5.786891   -0.632255
     46          6           0       -0.983830    6.855490   -1.689704
     47          6           0        4.717621    2.375522   -2.159005
     48          6           0        5.856156    2.091683   -1.272630
     49          6           0        6.622950    0.946472   -1.323423
     50          6           0        6.255207   -0.204954   -2.284442
     51          6           0        7.714240    0.743854   -0.340053
     52          6           0        9.104396    0.870954   -0.922186
     53          6           0       10.258985    0.579433    0.110230
     54          6           0       11.208093   -0.607209   -0.126989
     55          6           0       12.459150   -0.178488   -0.847568
     56          6           0       11.642508   -1.177990    1.271838
     57          6           0       10.575954   -2.197355    1.769845
     58          6           0        9.859115   -1.831042    3.071318
     59          6           0        8.283340   -1.748301    2.929713
     60          6           0        7.695777   -0.682464    3.906280
     61          6           0        7.592210   -3.147863    3.278547
     62          6           0        7.162519   -3.925007    1.998158
     63          6           0        5.589870   -3.982947    1.818818
     64          6           0        5.239287   -3.673662    0.381820
     65          6           0        4.261941   -2.435994    0.351495
     66          6           0        4.546002   -4.916691   -0.398130
     67          1           0       -2.214480   -1.281479   -3.830348
     68          1           0       -6.844954   -3.945837   -0.070033
     69          1           0       -6.791779    1.073519    3.714534
     70          1           0       -1.005625    3.137366   -2.286375
     71          1           0       -0.542726    0.517917   -3.331996
     72          1           0       -1.233597    1.328423   -5.265221
     73          1           0       -1.472380    2.816412   -4.297195
     74          1           0       -2.809472    1.685427   -4.613443
     75          1           0        0.741349    0.986140   -1.500164
     76          1           0        0.024705    1.617364   -0.052365
     77          1           0        1.658869    3.304274   -0.083605
     78          1           0        0.762343    4.041223   -1.357289
     79          1           0       -2.368415   -3.357015   -4.496821
     80          1           0       -3.793981   -3.392242   -5.389824
     81          1           0       -3.448298   -4.866724   -4.478379
     82          1           0       -7.690413   -5.086093   -1.769244
     83          1           0       -6.459618   -5.939462   -0.744888
     84          1           0       -7.182299   -6.748023   -2.114845
     85          1           0       -7.535144   -3.498592    2.125812
     86          1           0       -8.738730   -0.817186    3.032198
     87          1           0       -9.567749   -2.921967    0.388396
     88          1           0      -10.085910   -2.160494    1.905430
     89          1           0       -9.597991   -3.872196    1.835838
     90          1           0       -6.161270   -1.685451    4.316127
     91          1           0       -7.197280   -2.945427    4.196348
     92          1           0       -8.443990   -2.096508    6.138620
     93          1           0       -8.845537   -0.668797    5.295926
     94          1           0       -7.316846   -0.804587    6.168715
     95          1           0       -4.423968    4.219882    4.750761
     96          1           0       -5.206235    2.667313    5.046629
     97          1           0       -6.101761    3.827785    4.307635
     98          1           0       -0.900155    3.792295    0.844235
     99          1           0       -0.058307    7.424728   -1.602520
    100          1           0       -1.869007    7.488510   -1.647422
    101          1           0       -1.030050    6.443257   -2.698062
    102          1           0        5.072327    3.247639   -2.708012
    103          1           0        4.353409    1.541709   -2.760387
    104          1           0        6.097875    2.863684   -0.541446
    105          1           0        5.731744   -1.010648   -1.769538
    106          1           0        7.226383   -0.640565   -2.521669
    107          1           0        5.788153    0.102087   -3.219491
    108          1           0        7.574628   -0.200713    0.185382
    109          1           0        7.632852    1.596701    0.334730
    110          1           0        9.169365    1.811061   -1.469430
    111          1           0        9.201124    0.084428   -1.669407
    112          1           0        9.798295    0.567622    1.097310
    113          1           0       10.830421    1.504576    0.034676
    114          1           0       10.630191   -1.305982   -0.731432
    115          1           0       12.889472   -0.936506   -1.501771
    116          1           0       13.154437    0.094390   -0.053049
    117          1           0       12.321162    0.754364   -1.394322
    118          1           0       11.693769   -0.356518    1.986545
    119          1           0       12.643818   -1.597214    1.174955
    120          1           0       11.073015   -3.145277    1.976462
    121          1           0        9.841998   -2.292501    0.969588
    122          1           0       10.318977   -0.977683    3.570412
    123          1           0        9.911532   -2.563011    3.877489
    124          1           0        8.061233   -1.418804    1.914852
    125          1           0        8.018215   -0.799502    4.940658
    126          1           0        6.620713   -0.683622    3.729132
    127          1           0        8.119402    0.245547    3.521129
    128          1           0        6.745824   -2.909769    3.922591
    129          1           0        8.303012   -3.776172    3.815109
    130          1           0        7.317430   -4.980629    2.219597
    131          1           0        7.718472   -3.627443    1.108295
    132          1           0        5.092527   -3.259801    2.466009
    133          1           0        5.214430   -4.935002    2.194271
    134          1           0        6.049998   -3.272374   -0.226651
    135          1           0        4.782086   -1.547024    0.708238
    136          1           0        3.458356   -2.740770    1.022134
    137          1           0        3.833544   -2.405971   -0.650970
    138          1           0        3.497661   -4.662150   -0.552716
    139          1           0        4.656913   -5.812636    0.212339
    140          1           0        4.975943   -5.227830   -1.350440
 ---------------------------------------------------------------------

 SCF Done:  E(RB-LYP) =  -3007.38464963     A.U. after   20 cycles

 Excitation energies and oscillator strengths:

 Excited State   1:      Singlet-A      1.7248 eV  718.83 nm  f=0.0009  <S**2>=0.000
     244 -> 247        0.70039
 This state for optimization and/or second-order correction.
 Total Energy, E(TD-HF/TD-DFT) =  -3007.32126405
 Copying the excited state density for this state as the 1-particle RhoCI density.

 Excited State   2:      Singlet-A      1.8489 eV  670.58 nm  f=0.2955  <S**2>=0.000
     245 -> 248        0.20713
     246 -> 247        0.68119
     246 <- 247       -0.13528

 Excited State   3:      Singlet-A      2.0123 eV  616.13 nm  f=0.0258  <S**2>=0.000
     243 -> 247        0.60438
     245 -> 247        0.33420
     246 -> 248       -0.11792

 Excited State   4:      Singlet-A      2.0379 eV  608.39 nm  f=0.0624  <S**2>=0.000
     243 -> 247       -0.36426
     245 -> 247        0.54934
     246 -> 248       -0.21041

 Excited State   5:      Singlet-A      2.1831 eV  567.93 nm  f=0.0003  <S**2>=0.000
     242 -> 247        0.70530

 The electronic state is 1-A.
 Alpha  occ. eigenvalues --  -46.28707 -18.82504 -18.81592 -18.76666 -18.76595
 Alpha  occ. eigenvalues --  -18.76441 -18.75204 -14.04134 -14.03829 -14.01729
 Alpha  occ. eigenvalues --  -14.01138 -10.04157 -10.03821 -10.00528  -9.99576
 Alpha  occ. eigenvalues --   -9.97780  -9.97587  -9.97384  -9.97183  -9.97090
 Alpha  occ. eigenvalues --   -9.97083  -9.96876  -9.95907  -9.95761  -9.95016
 Alpha  occ. eigenvalues --   -9.94993  -9.94926  -9.94414  -9.94331  -9.94329
 Alpha  occ. eigenvalues --   -9.94179  -9.94144  -9.93933  -9.93882  -9.93665
 Alpha  occ. eigenvalues --   -9.93623  -9.93430  -9.93397  -9.93230  -9.93124
 Alpha  occ. eigenvalues --   -9.92936  -9.92917  -9.92586  -9.92504  -9.92406
 Alpha  occ. eigenvalues --   -9.92364  -9.92194  -9.92149  -9.92148  -9.92129
 Alpha  occ. eigenvalues --   -9.92109  -9.91942  -9.91794  -9.91466  -9.91461
 Alpha  occ. eigenvalues --   -9.91432  -9.91336  -9.91297  -9.91260  -9.91217
 Alpha  occ. eigenvalues --   -9.91186  -9.91177  -9.91149  -9.90939  -9.90921
 Alpha  occ. eigenvalues --   -9.90834  -2.93093  -1.73533  -1.72949  -1.72824
 Alpha  occ. eigenvalues --   -0.96617  -0.95926  -0.91359  -0.90519  -0.88463
 Alpha  occ. eigenvalues --   -0.88365  -0.88336  -0.87078  -0.86102  -0.84770
 Alpha  occ. eigenvalues --   -0.75550  -0.74211  -0.73098  -0.72861  -0.72250
 Alpha  occ. eigenvalues --   -0.72106  -0.71408  -0.70710  -0.70652  -0.70315
 Alpha  occ. eigenvalues --   -0.69584  -0.68770  -0.68329  -0.67700  -0.67212
 Alpha  occ. eigenvalues --   -0.66608  -0.65860  -0.65202  -0.64901  -0.64509
 Alpha  occ. eigenvalues --   -0.64305  -0.62568  -0.62162  -0.61502  -0.60962
 Alpha  occ. eigenvalues --   -0.60743  -0.60140  -0.59814  -0.59399  -0.58788
 Alpha  occ. eigenvalues --   -0.58463  -0.57766  -0.57064  -0.55942  -0.55187
 Alpha  occ. eigenvalues --   -0.54133  -0.53387  -0.53267  -0.52304  -0.52200
 Alpha  occ. eigenvalues --   -0.52018  -0.51221  -0.51184  -0.50638  -0.50174
 Alpha  occ. eigenvalues --   -0.49740  -0.48935  -0.48798  -0.48552  -0.46876
 Alpha  occ. eigenvalues --   -0.46554  -0.46462  -0.46229  -0.45433  -0.44981
 Alpha  occ. eigenvalues --   -0.44655  -0.43306  -0.43004  -0.42869  -0.42440
 Alpha  occ. eigenvalues --   -0.42182  -0.41975  -0.41571  -0.41109  -0.41006
 Alpha  occ. eigenvalues --   -0.40765  -0.40658  -0.40158  -0.39995  -0.39793
 Alpha  occ. eigenvalues --   -0.39591  -0.39464  -0.39232  -0.39123  -0.39009
 Alpha  occ. eigenvalues --   -0.38722  -0.38521  -0.38372  -0.38213  -0.37992
 Alpha  occ. eigenvalues --   -0.37956  -0.37837  -0.37618  -0.37448  -0.37289
 Alpha  occ. eigenvalues --   -0.37195  -0.36973  -0.36747  -0.36573  -0.36356
 Alpha  occ. eigenvalues --   -0.36205  -0.36175  -0.36002  -0.35745  -0.35584
 Alpha  occ. eigenvalues --   -0.35315  -0.35197  -0.34899  -0.34881  -0.34694
 Alpha  occ. eigenvalues --   -0.34679  -0.34454  -0.34276  -0.34190  -0.34002
 Alpha  occ. eigenvalues --   -0.33836  -0.33805  -0.33391  -0.33318  -0.33286
 Alpha  occ. eigenvalues --   -0.33179  -0.32947  -0.32581  -0.32403  -0.32338
 Alpha  occ. eigenvalues --   -0.32202  -0.32069  -0.31962  -0.31896  -0.31595
 Alpha  occ. eigenvalues --   -0.31551  -0.31224  -0.31108  -0.30830  -0.30648
 Alpha  occ. eigenvalues --   -0.30617  -0.30592  -0.30556  -0.30386  -0.30353
 Alpha  occ. eigenvalues --   -0.30184  -0.29901  -0.29858  -0.29780  -0.29373
 Alpha  occ. eigenvalues --   -0.29078  -0.28843  -0.28782  -0.28443  -0.28247
 Alpha  occ. eigenvalues --   -0.27917  -0.27685  -0.27508  -0.26978  -0.26775
 Alpha  occ. eigenvalues --   -0.26467  -0.26393  -0.25785  -0.25766  -0.25022
 Alpha  occ. eigenvalues --   -0.24909  -0.24825  -0.24561  -0.24093  -0.23817
 Alpha  occ. eigenvalues --   -0.23735  -0.22312  -0.21781  -0.21520  -0.20835
 Alpha  occ. eigenvalues --   -0.20609  -0.20023  -0.19324  -0.18250  -0.17690
 Alpha  occ. eigenvalues --   -0.16548
 Alpha virt. eigenvalues --   -0.12005  -0.07431  -0.06574  -0.04943  -0.03632
 Alpha virt. eigenvalues --   -0.03463  -0.02822  -0.02573  -0.01631  -0.00457
 Alpha virt. eigenvalues --    0.00802   0.01021   0.01104   0.02216   0.02526

 Mulliken charges:
               1
     1  Mg   0.690793
     2  C   -0.062628
     3  C   -0.060081
     4  C   -0.058281
     5  C   -0.061975
     6  N   -0.156948
     7  C   -0.066345
     8  C    0.021597
     9  C   -0.007350
    10  C   -0.031577
    11  C    0.137666
    12  C    0.138983
    13  C    0.119814
    14  C    0.056404
    15  O   -0.229772
    16  O   -0.295736
    17  N   -0.229849
    18  C    0.177002
    19  C   -0.131277
    20  C   -0.010964
    21  C    0.138020
    22  C    0.168142
    23  C   -0.079885
    24  O   -0.158521
    25  C    0.121248
    26  N   -0.231827
    27  C    0.012446
    28  C   -0.032544
    29  C    0.029338
    30  C    0.055196
    31  C    0.107935
    32  C    0.086159
    33  C    0.055184
    34  N   -0.282634
    35  C    0.123020
    36  C   -0.135066
    37  C    0.029260
    38  C    0.132259
    39  C    0.174043
    40  C   -0.017551
    41  O   -0.147068
    42  C    0.109633
    43  C    0.141045
    44  O   -0.208268
    45  O   -0.288010
    46  C    0.221955
    47  C    0.347358
    48  C   -0.104326
    49  C   -0.168914
    50  C    0.141440
    51  C    0.126287
    52  C    0.047554
    53  C    0.102560
    54  C   -0.100381
    55  C    0.140561
    56  C    0.106111
    57  C    0.109464
    58  C    0.093106
    59  C   -0.131256
    60  C    0.095861
    61  C    0.119106
    62  C    0.061905
    63  C    0.113515
    64  C   -0.117139
    65  C    0.069988
    66  C    0.088169
    67  H   -0.066373
    68  H   -0.073435
    69  H   -0.060920
    70  H   -0.008668
    71  H   -0.031767
    72  H   -0.002714
    73  H   -0.007227
    74  H   -0.008839
    75  H   -0.012071
    76  H   -0.008972
    77  H   -0.010363
    78  H    0.010832
    79  H   -0.014559
    80  H   -0.008385
    81  H    0.019276
    82  H    0.002592
    83  H    0.021407
    84  H   -0.015779
    85  H   -0.005914
    86  H   -0.012620
    87  H   -0.005259
    88  H   -0.006263
    89  H   -0.010444
    90  H   -0.020724
    91  H   -0.026488
    92  H   -0.010294
    93  H   -0.006156
    94  H   -0.003552
    95  H    0.012341
    96  H   -0.022969
    97  H   -0.005557
    98  H    0.000678
    99  H    0.018484
   100  H    0.027266
   101  H    0.009322
   102  H    0.001515
   103  H   -0.003090
   104  H   -0.035849
   105  H    0.008310
   106  H   -0.029234
   107  H    0.005343
   108  H   -0.006043
   109  H   -0.032504
   110  H   -0.029498
   111  H   -0.037749
   112  H   -0.023851
   113  H   -0.040316
   114  H   -0.033960
   115  H   -0.008670
   116  H   -0.023986
   117  H   -0.028429
   118  H   -0.028351
   119  H   -0.034645
   120  H   -0.029956
   121  H   -0.014484
   122  H   -0.044853
   123  H   -0.050029
   124  H   -0.027144
   125  H   -0.005389
   126  H   -0.008333
   127  H   -0.024159
   128  H   -0.032075
   129  H   -0.033057
   130  H   -0.037405
   131  H   -0.009537
   132  H   -0.037390
   133  H   -0.030768
   134  H   -0.029536
   135  H    0.009595
   136  H   -0.017871
   137  H   -0.007577
   138  H   -0.015398
   139  H   -0.019718
   140  H   -0.013750
 Sum of Mulliken charges =  -0.00000

 Dipole moment (field-independent basis, Debye):
    X=              0.9045    Y=             -2.4046    Z=              2.3273  Tot=              3.4665
 Quadrupole moment (field-independent basis, Debye-Ang):
   XX=           -359.4189   YY=           -442.6506   ZZ=           -410.1721
   XY=              3.1631   XZ=            -25.8526   YZ=            -29.7232

 Normal termination of Gaussian 16 at Wed May  4 10:57:27 2022.
