 Gaussian 16, Revision A.03,
 Gaussian 16:  ES64L-G16RevA.03 25-Dec-2016

 -----------------------------------
 #p cam-b3lyp/Def2SVP td=(nstates=5)
 -----------------------------------

 --------------------------------------------------------
 step_1601_chromophore_23 TDDFT with cam-b3lyp functional
 --------------------------------------------------------
 Symbolic Z-matrix:
 Charge =  0 Multiplicity = 1

                         Standard orientation:
 ---------------------------------------------------------------------
 Center     Atomic      Atomic             Coordinates (Angstroms)
 Number     Number       Type             X           Y           Z
 ---------------------------------------------------------------------
      1         12           0       -4.827375    0.043858   -0.397327
      2          6           0       -2.607748    2.663328    0.142595
      3          6           0       -2.900595   -1.023180   -3.021007
      4          6           0       -6.412257   -2.970412   -0.299355
      5          6           0       -6.287433    0.841639    2.774552
      6          7           0       -3.048617    0.823588   -1.430448
      7          6           0       -2.331255    1.884013   -1.018879
      8          6           0       -1.088435    2.116002   -1.915668
      9          6           0       -1.384043    1.151569   -3.052312
     10          6           0       -2.527852    0.233765   -2.469587
     11          6           0       -1.742695    1.766188   -4.406416
     12          6           0        0.244504    1.865822   -1.090320
     13          6           0        1.198371    3.090715   -1.048455
     14          6           0        2.379853    3.020711   -2.015122
     15          8           0        2.313981    3.212215   -3.250331
     16          8           0        3.558892    2.798548   -1.308507
     17          7           0       -4.804742   -1.713515   -1.632989
     18          6           0       -3.915685   -1.926740   -2.640608
     19          6           0       -4.175139   -3.182847   -3.192159
     20          6           0       -5.170410   -3.871416   -2.390639
     21          6           0       -5.542287   -2.771325   -1.379277
     22          6           0       -3.373000   -3.779567   -4.461972
     23          6           0       -5.820943   -5.173070   -2.713602
     24          8           0       -5.497225   -5.902019   -3.637948
     25          6           0       -6.847560   -5.776454   -1.750454
     26          7           0       -6.350203   -0.881992    0.880532
     27          6           0       -6.913553   -2.065512    0.663017
     28          6           0       -7.891688   -2.514420    1.823535
     29          6           0       -7.772823   -1.284315    2.837653
     30          6           0       -6.796053   -0.297351    2.122035
     31          6           0       -9.386954   -2.870065    1.461534
     32          6           0       -7.235779   -1.857445    4.249548
     33          6           0       -8.002439   -1.329141    5.503536
     34          7           0       -4.573464    1.453753    1.162546
     35          6           0       -5.259080    1.721653    2.378193
     36          6           0       -4.629485    2.816825    3.041004
     37          6           0       -3.609266    3.237647    2.138916
     38          6           0       -3.662982    2.421630    1.040870
     39          6           0       -5.074512    3.463183    4.312696
     40          6           0       -2.698213    4.372330    1.915243
     41          8           0       -2.469316    5.355641    2.644216
     42          6           0       -1.929946    4.008071    0.559807
     43          6           0       -2.072781    5.086496   -0.418768
     44          8           0       -3.119758    5.393575   -1.016714
     45          8           0       -0.890363    5.786891   -0.632255
     46          6           0       -0.983830    6.855490   -1.689704
     47          6           0        4.717621    2.375522   -2.159005
     48          6           0        5.856156    2.091683   -1.272630
     49          6           0        6.622950    0.946472   -1.323423
     50          6           0        6.255207   -0.204954   -2.284442
     51          6           0        7.714240    0.743854   -0.340053
     52          6           0        9.104396    0.870954   -0.922186
     53          6           0       10.258985    0.579433    0.110230
     54          6           0       11.208093   -0.607209   -0.126989
     55          6           0       12.459150   -0.178488   -0.847568
     56          6           0       11.642508   -1.177990    1.271838
     57          6           0       10.575954   -2.197355    1.769845
     58          6           0        9.859115   -1.831042    3.071318
     59          6           0        8.283340   -1.748301    2.929713
     60          6           0        7.695777   -0.682464    3.906280
     61          6           0        7.592210   -3.147863    3.278547
     62          6           0        7.162519   -3.925007    1.998158
     63          6           0        5.589870   -3.982947    1.818818
     64          6           0        5.239287   -3.673662    0.381820
     65          6           0        4.261941   -2.435994    0.351495
     66          6           0        4.546002   -4.916691   -0.398130
     67          1           0       -2.214480   -1.281479   -3.830348
     68          1           0       -6.844954   -3.945837   -0.070033
     69          1           0       -6.791779    1.073519    3.714534
     70          1           0       -1.005625    3.137366   -2.286375
     71          1           0       -0.542726    0.517917   -3.331996
     72          1           0       -1.233597    1.328423   -5.265221
     73          1           0       -1.472380    2.816412   -4.297195
     74          1           0       -2.809472    1.685427   -4.613443
     75          1           0        0.741349    0.986140   -1.500164
     76          1           0        0.024705    1.617364   -0.052365
     77          1           0        1.658869    3.304274   -0.083605
     78          1           0        0.762343    4.041223   -1.357289
     79          1           0       -2.368415   -3.357015   -4.496821
     80          1           0       -3.793981   -3.392242   -5.389824
     81          1           0       -3.448298   -4.866724   -4.478379
     82          1           0       -7.690413   -5.086093   -1.769244
     83          1           0       -6.459618   -5.939462   -0.744888
     84          1           0       -7.182299   -6.748023   -2.114845
     85          1           0       -7.535144   -3.498592    2.125812
     86          1           0       -8.738730   -0.817186    3.032198
     87          1           0       -9.567749   -2.921967    0.388396
     88          1           0      -10.085910   -2.160494    1.905430
     89          1           0       -9.597991   -3.872196    1.835838
     90          1           0       -6.161270   -1.685451    4.316127
     91          1           0       -7.197280   -2.945427    4.196348
     92          1           0       -8.443990   -2.096508    6.138620
     93          1           0       -8.845537   -0.668797    5.295926
     94          1           0       -7.316846   -0.804587    6.168715
     95          1           0       -4.423968    4.219882    4.750761
     96          1           0       -5.206235    2.667313    5.046629
     97          1           0       -6.101761    3.827785    4.307635
     98          1           0       -0.900155    3.792295    0.844235
     99          1           0       -0.058307    7.424728   -1.602520
    100          1           0       -1.869007    7.488510   -1.647422
    101          1           0       -1.030050    6.443257   -2.698062
    102          1           0        5.072327    3.247639   -2.708012
    103          1           0        4.353409    1.541709   -2.760387
    104          1           0        6.097875    2.863684   -0.541446
    105          1           0        5.731744   -1.010648   -1.769538
    106          1           0        7.226383   -0.640565   -2.521669
    107          1           0        5.788153    0.102087   -3.219491
    108          1           0        7.574628   -0.200713    0.185382
    109          1           0        7.632852    1.596701    0.334730
    110          1           0        9.169365    1.811061   -1.469430
    111          1           0        9.201124    0.084428   -1.669407
    112          1           0        9.798295    0.567622    1.097310
    113          1           0       10.830421    1.504576    0.034676
    114          1           0       10.630191   -1.305982   -0.731432
    115          1           0       12.889472   -0.936506   -1.501771
    116          1           0       13.154437    0.094390   -0.053049
    117          1           0       12.321162    0.754364   -1.394322
    118          1           0       11.693769   -0.356518    1.986545
    119          1           0       12.643818   -1.597214    1.174955
    120          1           0       11.073015   -3.145277    1.976462
    121          1           0        9.841998   -2.292501    0.969588
    122          1           0       10.318977   -0.977683    3.570412
    123          1           0        9.911532   -2.563011    3.877489
    124          1           0        8.061233   -1.418804    1.914852
    125          1           0        8.018215   -0.799502    4.940658
    126          1           0        6.620713   -0.683622    3.729132
    127          1           0        8.119402    0.245547    3.521129
    128          1           0        6.745824   -2.909769    3.922591
    129          1           0        8.303012   -3.776172    3.815109
    130          1           0        7.317430   -4.980629    2.219597
    131          1           0        7.718472   -3.627443    1.108295
    132          1           0        5.092527   -3.259801    2.466009
    133          1           0        5.214430   -4.935002    2.194271
    134          1           0        6.049998   -3.272374   -0.226651
    135          1           0        4.782086   -1.547024    0.708238
    136          1           0        3.458356   -2.740770    1.022134
    137          1           0        3.833544   -2.405971   -0.650970
    138          1           0        3.497661   -4.662150   -0.552716
    139          1           0        4.656913   -5.812636    0.212339
    140          1           0        4.975943   -5.227830   -1.350440
 ---------------------------------------------------------------------

 SCF Done:  E(RCAM-B3LYP) =  -3007.16284824     A.U. after   17 cycles

 Excitation energies and oscillator strengths:

 Excited State   1:      Singlet-A      1.8066 eV  686.29 nm  f=0.3759  <S**2>=0.000
     245 -> 248       -0.18808
     246 -> 247        0.68256
     245 <- 248       -0.10506
 This state for optimization and/or second-order correction.
 Total Energy, E(TD-HF/TD-DFT) =  -3007.09645722
 Copying the excited state density for this state as the 1-particle RhoCI density.

 Excited State   2:      Singlet-A      2.2492 eV  551.23 nm  f=0.1278  <S**2>=0.000
     245 -> 247        0.64253
     246 -> 248        0.28128

 Excited State   3:      Singlet-A      3.3490 eV  370.21 nm  f=0.0016  <S**2>=0.000
     241 -> 247        0.53570
     241 -> 248       -0.10249
     241 -> 249        0.26369
     241 -> 250        0.21435
     242 -> 247        0.22019

 Excited State   4:      Singlet-A      3.3846 eV  366.32 nm  f=0.0094  <S**2>=0.000
     241 -> 247       -0.19582
     242 -> 247        0.47288
     244 -> 247       -0.45711

 Excited State   5:      Singlet-A      3.4796 eV  356.31 nm  f=0.0209  <S**2>=0.000
     239 -> 247       -0.11186
     242 -> 247        0.39433
     244 -> 247        0.49411
     246 -> 248       -0.24544

 The electronic state is 1-A.
 Alpha  occ. eigenvalues --  -46.90328 -19.25459 -19.24475 -19.19699 -19.19645
 Alpha  occ. eigenvalues --  -19.19240 -19.18735 -14.43061 -14.42646 -14.40363
 Alpha  occ. eigenvalues --  -14.39282 -10.39684 -10.39213 -10.35674 -10.35076
 Alpha  occ. eigenvalues --  -10.31928 -10.31891 -10.31841 -10.31812 -10.31720
 Alpha  occ. eigenvalues --  -10.31512 -10.31449 -10.30758 -10.29400 -10.29371
 Alpha  occ. eigenvalues --  -10.29299 -10.29049 -10.28925 -10.28710 -10.28371
 Alpha  occ. eigenvalues --  -10.28169 -10.28078 -10.28051 -10.28001 -10.27983
 Alpha  occ. eigenvalues --  -10.27746 -10.27609 -10.27522 -10.27207 -10.27085
 Alpha  occ. eigenvalues --  -10.27035 -10.26746 -10.26471 -10.26312 -10.26142
 Alpha  occ. eigenvalues --  -10.26045 -10.25950 -10.25936 -10.25918 -10.25822
 Alpha  occ. eigenvalues --  -10.25806 -10.25762 -10.25704 -10.25491 -10.25147
 Alpha  occ. eigenvalues --  -10.25134 -10.24971 -10.24971 -10.24934 -10.24888
 Alpha  occ. eigenvalues --  -10.24825 -10.24821 -10.24774 -10.24603 -10.24540
 Alpha  occ. eigenvalues --  -10.24394  -3.18607  -1.93527  -1.93034  -1.92918
 Alpha  occ. eigenvalues --   -1.15103  -1.14320  -1.10082  -1.08522  -1.06341
 Alpha  occ. eigenvalues --   -1.06229  -1.06175  -1.05064  -1.03341  -1.02272
 Alpha  occ. eigenvalues --   -0.92491  -0.91139  -0.89898  -0.89647  -0.89070
 Alpha  occ. eigenvalues --   -0.88823  -0.87993  -0.87257  -0.87192  -0.86534
 Alpha  occ. eigenvalues --   -0.85954  -0.85678  -0.84651  -0.83883  -0.83337
 Alpha  occ. eigenvalues --   -0.82683  -0.81837  -0.81086  -0.80871  -0.80574
 Alpha  occ. eigenvalues --   -0.80123  -0.78090  -0.77590  -0.77088  -0.76390
 Alpha  occ. eigenvalues --   -0.76279  -0.75612  -0.75138  -0.74674  -0.74013
 Alpha  occ. eigenvalues --   -0.73415  -0.72761  -0.71970  -0.70795  -0.69706
 Alpha  occ. eigenvalues --   -0.68888  -0.67930  -0.67780  -0.66571  -0.66439
 Alpha  occ. eigenvalues --   -0.66155  -0.65430  -0.65155  -0.64674  -0.64220
 Alpha  occ. eigenvalues --   -0.63748  -0.62836  -0.62618  -0.62169  -0.60531
 Alpha  occ. eigenvalues --   -0.60107  -0.59997  -0.59628  -0.58978  -0.58286
 Alpha  occ. eigenvalues --   -0.58070  -0.56525  -0.56307  -0.56094  -0.55675
 Alpha  occ. eigenvalues --   -0.55111  -0.55032  -0.54379  -0.53986  -0.53796
 Alpha  occ. eigenvalues --   -0.53396  -0.53229  -0.53155  -0.53081  -0.52484
 Alpha  occ. eigenvalues --   -0.52350  -0.52107  -0.51916  -0.51838  -0.51622
 Alpha  occ. eigenvalues --   -0.51244  -0.51166  -0.50916  -0.50591  -0.50413
 Alpha  occ. eigenvalues --   -0.50298  -0.50145  -0.49968  -0.49843  -0.49607
 Alpha  occ. eigenvalues --   -0.49510  -0.49180  -0.49082  -0.48998  -0.48605
 Alpha  occ. eigenvalues --   -0.48525  -0.48416  -0.48228  -0.48043  -0.47744
 Alpha  occ. eigenvalues --   -0.47573  -0.47058  -0.47021  -0.46947  -0.46834
 Alpha  occ. eigenvalues --   -0.46486  -0.46451  -0.46164  -0.45874  -0.45864
 Alpha  occ. eigenvalues --   -0.45681  -0.45524  -0.45071  -0.44970  -0.44906
 Alpha  occ. eigenvalues --   -0.44791  -0.44502  -0.44424  -0.44089  -0.43878
 Alpha  occ. eigenvalues --   -0.43832  -0.43636  -0.43521  -0.43402  -0.43151
 Alpha  occ. eigenvalues --   -0.42923  -0.42840  -0.42617  -0.42495  -0.42372
 Alpha  occ. eigenvalues --   -0.42018  -0.41915  -0.41870  -0.41847  -0.41734
 Alpha  occ. eigenvalues --   -0.41520  -0.41228  -0.41140  -0.41009  -0.40703
 Alpha  occ. eigenvalues --   -0.40366  -0.39923  -0.39796  -0.39327  -0.39148
 Alpha  occ. eigenvalues --   -0.38855  -0.38667  -0.38301  -0.37887  -0.37689
 Alpha  occ. eigenvalues --   -0.37290  -0.37072  -0.36613  -0.36488  -0.36345
 Alpha  occ. eigenvalues --   -0.36324  -0.35411  -0.34677  -0.34530  -0.34328
 Alpha  occ. eigenvalues --   -0.34271  -0.33964  -0.33528  -0.31437  -0.30944
 Alpha  occ. eigenvalues --   -0.30831  -0.30508  -0.29678  -0.29493  -0.24408
 Alpha  occ. eigenvalues --   -0.21974
 Alpha virt. eigenvalues --   -0.09089  -0.02275  -0.00067   0.02033   0.02206
 Alpha virt. eigenvalues --    0.03977   0.04247   0.04787   0.04976   0.06359
 Alpha virt. eigenvalues --    0.07036   0.07698   0.08223   0.08398   0.08844

 Mulliken charges:
               1
     1  Mg   0.820184
     2  C   -0.078882
     3  C   -0.074337
     4  C   -0.092315
     5  C   -0.067514
     6  N   -0.231788
     7  C   -0.030732
     8  C   -0.025789
     9  C   -0.059582
    10  C   -0.007988
    11  C    0.081254
    12  C    0.084076
    13  C    0.045288
    14  C    0.144725
    15  O   -0.271273
    16  O   -0.360862
    17  N   -0.322504
    18  C    0.184564
    19  C   -0.135071
    20  C   -0.071080
    21  C    0.174740
    22  C    0.120745
    23  C   -0.004987
    24  O   -0.198046
    25  C    0.036786
    26  N   -0.303252
    27  C    0.049186
    28  C   -0.086633
    29  C   -0.022268
    30  C    0.069145
    31  C    0.053625
    32  C    0.031127
    33  C   -0.008757
    34  N   -0.367831
    35  C    0.117895
    36  C   -0.135293
    37  C   -0.046707
    38  C    0.167595
    39  C    0.118487
    40  C    0.081375
    41  O   -0.189017
    42  C    0.026218
    43  C    0.228627
    44  O   -0.244317
    45  O   -0.352990
    46  C    0.181993
    47  C    0.308160
    48  C   -0.120853
    49  C   -0.189367
    50  C    0.088153
    51  C    0.068576
    52  C    0.000293
    53  C    0.051669
    54  C   -0.154742
    55  C    0.077169
    56  C    0.050470
    57  C    0.054375
    58  C    0.039536
    59  C   -0.178155
    60  C    0.043552
    61  C    0.066319
    62  C    0.005249
    63  C    0.061144
    64  C   -0.172569
    65  C    0.014669
    66  C    0.031446
    67  H   -0.029679
    68  H   -0.038162
    69  H   -0.026557
    70  H    0.022496
    71  H    0.004205
    72  H    0.021934
    73  H    0.017954
    74  H    0.017113
    75  H    0.017372
    76  H    0.023825
    77  H    0.027000
    78  H    0.040399
    79  H    0.011013
    80  H    0.020842
    81  H    0.050390
    82  H    0.029738
    83  H    0.048157
    84  H    0.021896
    85  H    0.025658
    86  H    0.019156
    87  H    0.018875
    88  H    0.018626
    89  H    0.013505
    90  H    0.010395
    91  H    0.001115
    92  H    0.013802
    93  H    0.015650
    94  H    0.019573
    95  H    0.039295
    96  H   -0.000158
    97  H    0.019178
    98  H    0.042988
    99  H    0.042492
   100  H    0.052663
   101  H    0.030406
   102  H    0.031176
   103  H    0.025277
   104  H    0.001071
   105  H    0.028926
   106  H   -0.005095
   107  H    0.028558
   108  H    0.014533
   109  H   -0.002223
   110  H    0.000180
   111  H   -0.013281
   112  H    0.000085
   113  H   -0.009656
   114  H   -0.003309
   115  H    0.016696
   116  H    0.000626
   117  H   -0.002889
   118  H   -0.000275
   119  H   -0.002905
   120  H    0.000804
   121  H    0.007090
   122  H   -0.014663
   123  H   -0.020140
   124  H   -0.005758
   125  H    0.017564
   126  H    0.014001
   127  H   -0.001663
   128  H   -0.002955
   129  H   -0.004249
   130  H   -0.006491
   131  H    0.014289
   132  H   -0.009283
   133  H   -0.001448
   134  H   -0.001750
   135  H    0.029045
   136  H    0.006142
   137  H    0.014147
   138  H    0.007572
   139  H    0.003667
   140  H    0.010512
 Sum of Mulliken charges =  -0.00000

 Dipole moment (field-independent basis, Debye):
    X=              0.7851    Y=             -3.3811    Z=              1.5753  Tot=              3.8118
 Quadrupole moment (field-independent basis, Debye-Ang):
   XX=           -356.7688   YY=           -440.4924   ZZ=           -408.9633
   XY=              9.4569   XZ=            -23.4828   YZ=            -30.0241

 Normal termination of Gaussian 16 at Wed May  4 09:49:11 2022.
