 Gaussian 16, Revision A.03,
 Gaussian 16:  ES64L-G16RevA.03 25-Dec-2016

 ---------------------------------
 #p PBE1PBE/Def2SVP td=(nstates=5)
 ---------------------------------

 ------------------------------------------------------
 step_1601_chromophore_23 TDDFT with PBE1PBE functional
 ------------------------------------------------------
 Symbolic Z-matrix:
 Charge =  0 Multiplicity = 1

                         Standard orientation:
 ---------------------------------------------------------------------
 Center     Atomic      Atomic             Coordinates (Angstroms)
 Number     Number       Type             X           Y           Z
 ---------------------------------------------------------------------
      1         12           0       -4.827375    0.043858   -0.397327
      2          6           0       -2.607748    2.663328    0.142595
      3          6           0       -2.900595   -1.023180   -3.021007
      4          6           0       -6.412257   -2.970412   -0.299355
      5          6           0       -6.287433    0.841639    2.774552
      6          7           0       -3.048617    0.823588   -1.430448
      7          6           0       -2.331255    1.884013   -1.018879
      8          6           0       -1.088435    2.116002   -1.915668
      9          6           0       -1.384043    1.151569   -3.052312
     10          6           0       -2.527852    0.233765   -2.469587
     11          6           0       -1.742695    1.766188   -4.406416
     12          6           0        0.244504    1.865822   -1.090320
     13          6           0        1.198371    3.090715   -1.048455
     14          6           0        2.379853    3.020711   -2.015122
     15          8           0        2.313981    3.212215   -3.250331
     16          8           0        3.558892    2.798548   -1.308507
     17          7           0       -4.804742   -1.713515   -1.632989
     18          6           0       -3.915685   -1.926740   -2.640608
     19          6           0       -4.175139   -3.182847   -3.192159
     20          6           0       -5.170410   -3.871416   -2.390639
     21          6           0       -5.542287   -2.771325   -1.379277
     22          6           0       -3.373000   -3.779567   -4.461972
     23          6           0       -5.820943   -5.173070   -2.713602
     24          8           0       -5.497225   -5.902019   -3.637948
     25          6           0       -6.847560   -5.776454   -1.750454
     26          7           0       -6.350203   -0.881992    0.880532
     27          6           0       -6.913553   -2.065512    0.663017
     28          6           0       -7.891688   -2.514420    1.823535
     29          6           0       -7.772823   -1.284315    2.837653
     30          6           0       -6.796053   -0.297351    2.122035
     31          6           0       -9.386954   -2.870065    1.461534
     32          6           0       -7.235779   -1.857445    4.249548
     33          6           0       -8.002439   -1.329141    5.503536
     34          7           0       -4.573464    1.453753    1.162546
     35          6           0       -5.259080    1.721653    2.378193
     36          6           0       -4.629485    2.816825    3.041004
     37          6           0       -3.609266    3.237647    2.138916
     38          6           0       -3.662982    2.421630    1.040870
     39          6           0       -5.074512    3.463183    4.312696
     40          6           0       -2.698213    4.372330    1.915243
     41          8           0       -2.469316    5.355641    2.644216
     42          6           0       -1.929946    4.008071    0.559807
     43          6           0       -2.072781    5.086496   -0.418768
     44          8           0       -3.119758    5.393575   -1.016714
     45          8           0       -0.890363    5.786891   -0.632255
     46          6           0       -0.983830    6.855490   -1.689704
     47          6           0        4.717621    2.375522   -2.159005
     48          6           0        5.856156    2.091683   -1.272630
     49          6           0        6.622950    0.946472   -1.323423
     50          6           0        6.255207   -0.204954   -2.284442
     51          6           0        7.714240    0.743854   -0.340053
     52          6           0        9.104396    0.870954   -0.922186
     53          6           0       10.258985    0.579433    0.110230
     54          6           0       11.208093   -0.607209   -0.126989
     55          6           0       12.459150   -0.178488   -0.847568
     56          6           0       11.642508   -1.177990    1.271838
     57          6           0       10.575954   -2.197355    1.769845
     58          6           0        9.859115   -1.831042    3.071318
     59          6           0        8.283340   -1.748301    2.929713
     60          6           0        7.695777   -0.682464    3.906280
     61          6           0        7.592210   -3.147863    3.278547
     62          6           0        7.162519   -3.925007    1.998158
     63          6           0        5.589870   -3.982947    1.818818
     64          6           0        5.239287   -3.673662    0.381820
     65          6           0        4.261941   -2.435994    0.351495
     66          6           0        4.546002   -4.916691   -0.398130
     67          1           0       -2.214480   -1.281479   -3.830348
     68          1           0       -6.844954   -3.945837   -0.070033
     69          1           0       -6.791779    1.073519    3.714534
     70          1           0       -1.005625    3.137366   -2.286375
     71          1           0       -0.542726    0.517917   -3.331996
     72          1           0       -1.233597    1.328423   -5.265221
     73          1           0       -1.472380    2.816412   -4.297195
     74          1           0       -2.809472    1.685427   -4.613443
     75          1           0        0.741349    0.986140   -1.500164
     76          1           0        0.024705    1.617364   -0.052365
     77          1           0        1.658869    3.304274   -0.083605
     78          1           0        0.762343    4.041223   -1.357289
     79          1           0       -2.368415   -3.357015   -4.496821
     80          1           0       -3.793981   -3.392242   -5.389824
     81          1           0       -3.448298   -4.866724   -4.478379
     82          1           0       -7.690413   -5.086093   -1.769244
     83          1           0       -6.459618   -5.939462   -0.744888
     84          1           0       -7.182299   -6.748023   -2.114845
     85          1           0       -7.535144   -3.498592    2.125812
     86          1           0       -8.738730   -0.817186    3.032198
     87          1           0       -9.567749   -2.921967    0.388396
     88          1           0      -10.085910   -2.160494    1.905430
     89          1           0       -9.597991   -3.872196    1.835838
     90          1           0       -6.161270   -1.685451    4.316127
     91          1           0       -7.197280   -2.945427    4.196348
     92          1           0       -8.443990   -2.096508    6.138620
     93          1           0       -8.845537   -0.668797    5.295926
     94          1           0       -7.316846   -0.804587    6.168715
     95          1           0       -4.423968    4.219882    4.750761
     96          1           0       -5.206235    2.667313    5.046629
     97          1           0       -6.101761    3.827785    4.307635
     98          1           0       -0.900155    3.792295    0.844235
     99          1           0       -0.058307    7.424728   -1.602520
    100          1           0       -1.869007    7.488510   -1.647422
    101          1           0       -1.030050    6.443257   -2.698062
    102          1           0        5.072327    3.247639   -2.708012
    103          1           0        4.353409    1.541709   -2.760387
    104          1           0        6.097875    2.863684   -0.541446
    105          1           0        5.731744   -1.010648   -1.769538
    106          1           0        7.226383   -0.640565   -2.521669
    107          1           0        5.788153    0.102087   -3.219491
    108          1           0        7.574628   -0.200713    0.185382
    109          1           0        7.632852    1.596701    0.334730
    110          1           0        9.169365    1.811061   -1.469430
    111          1           0        9.201124    0.084428   -1.669407
    112          1           0        9.798295    0.567622    1.097310
    113          1           0       10.830421    1.504576    0.034676
    114          1           0       10.630191   -1.305982   -0.731432
    115          1           0       12.889472   -0.936506   -1.501771
    116          1           0       13.154437    0.094390   -0.053049
    117          1           0       12.321162    0.754364   -1.394322
    118          1           0       11.693769   -0.356518    1.986545
    119          1           0       12.643818   -1.597214    1.174955
    120          1           0       11.073015   -3.145277    1.976462
    121          1           0        9.841998   -2.292501    0.969588
    122          1           0       10.318977   -0.977683    3.570412
    123          1           0        9.911532   -2.563011    3.877489
    124          1           0        8.061233   -1.418804    1.914852
    125          1           0        8.018215   -0.799502    4.940658
    126          1           0        6.620713   -0.683622    3.729132
    127          1           0        8.119402    0.245547    3.521129
    128          1           0        6.745824   -2.909769    3.922591
    129          1           0        8.303012   -3.776172    3.815109
    130          1           0        7.317430   -4.980629    2.219597
    131          1           0        7.718472   -3.627443    1.108295
    132          1           0        5.092527   -3.259801    2.466009
    133          1           0        5.214430   -4.935002    2.194271
    134          1           0        6.049998   -3.272374   -0.226651
    135          1           0        4.782086   -1.547024    0.708238
    136          1           0        3.458356   -2.740770    1.022134
    137          1           0        3.833544   -2.405971   -0.650970
    138          1           0        3.497661   -4.662150   -0.552716
    139          1           0        4.656913   -5.812636    0.212339
    140          1           0        4.975943   -5.227830   -1.350440
 ---------------------------------------------------------------------

 SCF Done:  E(RPBE1PBE) =  -3005.35044899     A.U. after   16 cycles

 Excitation energies and oscillator strengths:

 Excited State   1:      Singlet-A      1.9158 eV  647.16 nm  f=0.3626  <S**2>=0.000
     245 -> 248       -0.18698
     246 -> 247        0.68742
 This state for optimization and/or second-order correction.
 Total Energy, E(TD-HF/TD-DFT) =  -3005.28004353
 Copying the excited state density for this state as the 1-particle RhoCI density.

 Excited State   2:      Singlet-A      2.2487 eV  551.37 nm  f=0.1231  <S**2>=0.000
     245 -> 247        0.65303
     246 -> 248        0.25784

 Excited State   3:      Singlet-A      2.8222 eV  439.32 nm  f=0.0003  <S**2>=0.000
     243 -> 247        0.67370
     243 -> 249       -0.14140
     243 -> 250        0.11810

 Excited State   4:      Singlet-A      3.0191 eV  410.66 nm  f=0.0019  <S**2>=0.000
     240 -> 247        0.11804
     241 -> 247       -0.17141
     242 -> 247        0.66563

 Excited State   5:      Singlet-A      3.0756 eV  403.13 nm  f=0.0006  <S**2>=0.000
     240 -> 247        0.66142
     240 -> 249        0.17914
     242 -> 247       -0.11369

 The electronic state is 1-A.
 Alpha  occ. eigenvalues --  -46.93716 -19.26149 -19.25217 -19.19978 -19.19975
 Alpha  occ. eigenvalues --  -19.19759 -19.18700 -14.42473 -14.42234 -14.39846
 Alpha  occ. eigenvalues --  -14.39131 -10.36723 -10.36321 -10.33076 -10.31963
 Alpha  occ. eigenvalues --  -10.29572 -10.29391 -10.29377 -10.29372 -10.29159
 Alpha  occ. eigenvalues --  -10.29099 -10.29087 -10.27999 -10.27548 -10.27028
 Alpha  occ. eigenvalues --  -10.26896 -10.26872 -10.26664 -10.26586 -10.26207
 Alpha  occ. eigenvalues --  -10.26098 -10.25847 -10.25766 -10.25682 -10.25544
 Alpha  occ. eigenvalues --  -10.25431 -10.25289 -10.25289 -10.24837 -10.24774
 Alpha  occ. eigenvalues --  -10.24672 -10.24188 -10.23820 -10.23704 -10.23694
 Alpha  occ. eigenvalues --  -10.23670 -10.23564 -10.23529 -10.23483 -10.23402
 Alpha  occ. eigenvalues --  -10.23338 -10.23305 -10.23043 -10.22907 -10.22869
 Alpha  occ. eigenvalues --  -10.22746 -10.22716 -10.22532 -10.22511 -10.22475
 Alpha  occ. eigenvalues --  -10.22371 -10.22316 -10.22205 -10.22184 -10.21951
 Alpha  occ. eigenvalues --  -10.21783  -3.15582  -1.88442  -1.87927  -1.87815
 Alpha  occ. eigenvalues --   -1.09884  -1.09146  -1.04579  -1.03501  -1.01144
 Alpha  occ. eigenvalues --   -1.01068  -1.00837  -0.99519  -0.98270  -0.96919
 Alpha  occ. eigenvalues --   -0.86971  -0.85261  -0.84095  -0.83804  -0.83312
 Alpha  occ. eigenvalues --   -0.82902  -0.82285  -0.81532  -0.81333  -0.81073
 Alpha  occ. eigenvalues --   -0.80222  -0.79722  -0.78869  -0.78198  -0.77592
 Alpha  occ. eigenvalues --   -0.76835  -0.76118  -0.75366  -0.75038  -0.74720
 Alpha  occ. eigenvalues --   -0.74311  -0.72447  -0.71961  -0.71320  -0.70537
 Alpha  occ. eigenvalues --   -0.70506  -0.69845  -0.69190  -0.68811  -0.68183
 Alpha  occ. eigenvalues --   -0.67921  -0.67103  -0.66424  -0.65077  -0.64107
 Alpha  occ. eigenvalues --   -0.63312  -0.62378  -0.62025  -0.60904  -0.60777
 Alpha  occ. eigenvalues --   -0.60568  -0.59720  -0.59611  -0.59259  -0.58341
 Alpha  occ. eigenvalues --   -0.57878  -0.57173  -0.56980  -0.56831  -0.55097
 Alpha  occ. eigenvalues --   -0.54623  -0.54399  -0.54292  -0.53512  -0.52960
 Alpha  occ. eigenvalues --   -0.52629  -0.50891  -0.50746  -0.50548  -0.50299
 Alpha  occ. eigenvalues --   -0.49762  -0.49514  -0.48902  -0.48536  -0.48191
 Alpha  occ. eigenvalues --   -0.48082  -0.47841  -0.47689  -0.47591  -0.46993
 Alpha  occ. eigenvalues --   -0.46823  -0.46554  -0.46366  -0.46197  -0.46094
 Alpha  occ. eigenvalues --   -0.45918  -0.45714  -0.45563  -0.45101  -0.45021
 Alpha  occ. eigenvalues --   -0.44936  -0.44674  -0.44499  -0.44399  -0.44243
 Alpha  occ. eigenvalues --   -0.44005  -0.43780  -0.43717  -0.43590  -0.43257
 Alpha  occ. eigenvalues --   -0.43131  -0.43089  -0.42875  -0.42684  -0.42327
 Alpha  occ. eigenvalues --   -0.42213  -0.41723  -0.41639  -0.41562  -0.41551
 Alpha  occ. eigenvalues --   -0.41203  -0.41023  -0.40892  -0.40538  -0.40508
 Alpha  occ. eigenvalues --   -0.40493  -0.40311  -0.39789  -0.39681  -0.39565
 Alpha  occ. eigenvalues --   -0.39488  -0.39172  -0.39138  -0.38883  -0.38682
 Alpha  occ. eigenvalues --   -0.38563  -0.38485  -0.38396  -0.38190  -0.37948
 Alpha  occ. eigenvalues --   -0.37798  -0.37713  -0.37417  -0.37281  -0.37046
 Alpha  occ. eigenvalues --   -0.36877  -0.36694  -0.36636  -0.36562  -0.36534
 Alpha  occ. eigenvalues --   -0.36403  -0.36100  -0.35999  -0.35727  -0.35610
 Alpha  occ. eigenvalues --   -0.35344  -0.34819  -0.34584  -0.34102  -0.33911
 Alpha  occ. eigenvalues --   -0.33662  -0.33597  -0.33172  -0.32912  -0.32545
 Alpha  occ. eigenvalues --   -0.32402  -0.31907  -0.31682  -0.31466  -0.31321
 Alpha  occ. eigenvalues --   -0.31298  -0.30311  -0.29927  -0.29579  -0.29438
 Alpha  occ. eigenvalues --   -0.29171  -0.29016  -0.28366  -0.27115  -0.26076
 Alpha  occ. eigenvalues --   -0.25891  -0.25422  -0.25332  -0.25028  -0.21352
 Alpha  occ. eigenvalues --   -0.19541
 Alpha virt. eigenvalues --   -0.11597  -0.05799  -0.04294  -0.02384  -0.00774
 Alpha virt. eigenvalues --   -0.00563  -0.00213   0.00400   0.01129   0.02327
 Alpha virt. eigenvalues --    0.03725   0.03755   0.04008   0.05115   0.05404

 Mulliken charges:
               1
     1  Mg   0.959352
     2  C   -0.088398
     3  C   -0.062778
     4  C   -0.091165
     5  C   -0.070007
     6  N   -0.346810
     7  C    0.043141
     8  C   -0.098365
     9  C   -0.133273
    10  C    0.032968
    11  C    0.027588
    12  C    0.037663
    13  C   -0.038634
    14  C    0.214728
    15  O   -0.301928
    16  O   -0.388897
    17  N   -0.442009
    18  C    0.196496
    19  C   -0.151095
    20  C   -0.110285
    21  C    0.199780
    22  C    0.062978
    23  C    0.040333
    24  O   -0.235601
    25  C   -0.044987
    26  N   -0.401880
    27  C    0.100257
    28  C   -0.161565
    29  C   -0.097339
    30  C    0.104978
    31  C   -0.001191
    32  C   -0.024041
    33  C   -0.081698
    34  N   -0.487851
    35  C    0.138859
    36  C   -0.156236
    37  C   -0.090857
    38  C    0.226798
    39  C    0.067494
    40  C    0.176749
    41  O   -0.231458
    42  C   -0.087044
    43  C    0.317365
    44  O   -0.277995
    45  O   -0.385044
    46  C    0.124400
    47  C    0.262851
    48  C   -0.129455
    49  C   -0.223290
    50  C    0.017070
    51  C   -0.018746
    52  C   -0.059016
    53  C    0.000986
    54  C   -0.247517
    55  C    0.016321
    56  C   -0.004966
    57  C   -0.011584
    58  C   -0.006956
    59  C   -0.280387
    60  C   -0.021171
    61  C    0.018826
    62  C   -0.066859
    63  C    0.014391
    64  C   -0.263302
    65  C   -0.055016
    66  C   -0.028437
    67  H    0.002148
    68  H   -0.003830
    69  H    0.007235
    70  H    0.062274
    71  H    0.040557
    72  H    0.048017
    73  H    0.044555
    74  H    0.044915
    75  H    0.049644
    76  H    0.056275
    77  H    0.058739
    78  H    0.075205
    79  H    0.036628
    80  H    0.048042
    81  H    0.075951
    82  H    0.056916
    83  H    0.072786
    84  H    0.049865
    85  H    0.060177
    86  H    0.055308
    87  H    0.046457
    88  H    0.044460
    89  H    0.040348
    90  H    0.042762
    91  H    0.034538
    92  H    0.042168
    93  H    0.041706
    94  H    0.046532
    95  H    0.067029
    96  H    0.029123
    97  H    0.048535
    98  H    0.082494
    99  H    0.064251
   100  H    0.074174
   101  H    0.052560
   102  H    0.059278
   103  H    0.050388
   104  H    0.030305
   105  H    0.065199
   106  H    0.024514
   107  H    0.054501
   108  H    0.057555
   109  H    0.031282
   110  H    0.032062
   111  H    0.021615
   112  H    0.036414
   113  H    0.023707
   114  H    0.032633
   115  H    0.044853
   116  H    0.028998
   117  H    0.025616
   118  H    0.031481
   119  H    0.030213
   120  H    0.034363
   121  H    0.039952
   122  H    0.015920
   123  H    0.012761
   124  H    0.046485
   125  H    0.045128
   126  H    0.042786
   127  H    0.028261
   128  H    0.028461
   129  H    0.026984
   130  H    0.028413
   131  H    0.045806
   132  H    0.022327
   133  H    0.029164
   134  H    0.037229
   135  H    0.058994
   136  H    0.035834
   137  H    0.041575
   138  H    0.034509
   139  H    0.030994
   140  H    0.037656
 Sum of Mulliken charges =  -0.00000

 Dipole moment (field-independent basis, Debye):
    X=              0.7748    Y=             -2.8964    Z=              2.1562  Tot=              3.6931
 Quadrupole moment (field-independent basis, Debye-Ang):
   XX=           -352.4773   YY=           -438.2187   ZZ=           -404.8752
   XY=              7.5046   XZ=            -27.1363   YZ=            -30.3180

 Normal termination of Gaussian 16 at Wed May  4 10:10:38 2022.
