 Gaussian 16, Revision A.03,
 Gaussian 16:  ES64L-G16RevA.03 25-Dec-2016

 --------------------------------
 #p wB97XD/Def2SVP td=(nstates=5)
 --------------------------------

 -----------------------------------------------------
 step_1601_chromophore_23 TDDFT with wB97XD functional
 -----------------------------------------------------
 Symbolic Z-matrix:
 Charge =  0 Multiplicity = 1

                         Standard orientation:
 ---------------------------------------------------------------------
 Center     Atomic      Atomic             Coordinates (Angstroms)
 Number     Number       Type             X           Y           Z
 ---------------------------------------------------------------------
      1         12           0       -4.827375    0.043858   -0.397327
      2          6           0       -2.607748    2.663328    0.142595
      3          6           0       -2.900595   -1.023180   -3.021007
      4          6           0       -6.412257   -2.970412   -0.299355
      5          6           0       -6.287433    0.841639    2.774552
      6          7           0       -3.048617    0.823588   -1.430448
      7          6           0       -2.331255    1.884013   -1.018879
      8          6           0       -1.088435    2.116002   -1.915668
      9          6           0       -1.384043    1.151569   -3.052312
     10          6           0       -2.527852    0.233765   -2.469587
     11          6           0       -1.742695    1.766188   -4.406416
     12          6           0        0.244504    1.865822   -1.090320
     13          6           0        1.198371    3.090715   -1.048455
     14          6           0        2.379853    3.020711   -2.015122
     15          8           0        2.313981    3.212215   -3.250331
     16          8           0        3.558892    2.798548   -1.308507
     17          7           0       -4.804742   -1.713515   -1.632989
     18          6           0       -3.915685   -1.926740   -2.640608
     19          6           0       -4.175139   -3.182847   -3.192159
     20          6           0       -5.170410   -3.871416   -2.390639
     21          6           0       -5.542287   -2.771325   -1.379277
     22          6           0       -3.373000   -3.779567   -4.461972
     23          6           0       -5.820943   -5.173070   -2.713602
     24          8           0       -5.497225   -5.902019   -3.637948
     25          6           0       -6.847560   -5.776454   -1.750454
     26          7           0       -6.350203   -0.881992    0.880532
     27          6           0       -6.913553   -2.065512    0.663017
     28          6           0       -7.891688   -2.514420    1.823535
     29          6           0       -7.772823   -1.284315    2.837653
     30          6           0       -6.796053   -0.297351    2.122035
     31          6           0       -9.386954   -2.870065    1.461534
     32          6           0       -7.235779   -1.857445    4.249548
     33          6           0       -8.002439   -1.329141    5.503536
     34          7           0       -4.573464    1.453753    1.162546
     35          6           0       -5.259080    1.721653    2.378193
     36          6           0       -4.629485    2.816825    3.041004
     37          6           0       -3.609266    3.237647    2.138916
     38          6           0       -3.662982    2.421630    1.040870
     39          6           0       -5.074512    3.463183    4.312696
     40          6           0       -2.698213    4.372330    1.915243
     41          8           0       -2.469316    5.355641    2.644216
     42          6           0       -1.929946    4.008071    0.559807
     43          6           0       -2.072781    5.086496   -0.418768
     44          8           0       -3.119758    5.393575   -1.016714
     45          8           0       -0.890363    5.786891   -0.632255
     46          6           0       -0.983830    6.855490   -1.689704
     47          6           0        4.717621    2.375522   -2.159005
     48          6           0        5.856156    2.091683   -1.272630
     49          6           0        6.622950    0.946472   -1.323423
     50          6           0        6.255207   -0.204954   -2.284442
     51          6           0        7.714240    0.743854   -0.340053
     52          6           0        9.104396    0.870954   -0.922186
     53          6           0       10.258985    0.579433    0.110230
     54          6           0       11.208093   -0.607209   -0.126989
     55          6           0       12.459150   -0.178488   -0.847568
     56          6           0       11.642508   -1.177990    1.271838
     57          6           0       10.575954   -2.197355    1.769845
     58          6           0        9.859115   -1.831042    3.071318
     59          6           0        8.283340   -1.748301    2.929713
     60          6           0        7.695777   -0.682464    3.906280
     61          6           0        7.592210   -3.147863    3.278547
     62          6           0        7.162519   -3.925007    1.998158
     63          6           0        5.589870   -3.982947    1.818818
     64          6           0        5.239287   -3.673662    0.381820
     65          6           0        4.261941   -2.435994    0.351495
     66          6           0        4.546002   -4.916691   -0.398130
     67          1           0       -2.214480   -1.281479   -3.830348
     68          1           0       -6.844954   -3.945837   -0.070033
     69          1           0       -6.791779    1.073519    3.714534
     70          1           0       -1.005625    3.137366   -2.286375
     71          1           0       -0.542726    0.517917   -3.331996
     72          1           0       -1.233597    1.328423   -5.265221
     73          1           0       -1.472380    2.816412   -4.297195
     74          1           0       -2.809472    1.685427   -4.613443
     75          1           0        0.741349    0.986140   -1.500164
     76          1           0        0.024705    1.617364   -0.052365
     77          1           0        1.658869    3.304274   -0.083605
     78          1           0        0.762343    4.041223   -1.357289
     79          1           0       -2.368415   -3.357015   -4.496821
     80          1           0       -3.793981   -3.392242   -5.389824
     81          1           0       -3.448298   -4.866724   -4.478379
     82          1           0       -7.690413   -5.086093   -1.769244
     83          1           0       -6.459618   -5.939462   -0.744888
     84          1           0       -7.182299   -6.748023   -2.114845
     85          1           0       -7.535144   -3.498592    2.125812
     86          1           0       -8.738730   -0.817186    3.032198
     87          1           0       -9.567749   -2.921967    0.388396
     88          1           0      -10.085910   -2.160494    1.905430
     89          1           0       -9.597991   -3.872196    1.835838
     90          1           0       -6.161270   -1.685451    4.316127
     91          1           0       -7.197280   -2.945427    4.196348
     92          1           0       -8.443990   -2.096508    6.138620
     93          1           0       -8.845537   -0.668797    5.295926
     94          1           0       -7.316846   -0.804587    6.168715
     95          1           0       -4.423968    4.219882    4.750761
     96          1           0       -5.206235    2.667313    5.046629
     97          1           0       -6.101761    3.827785    4.307635
     98          1           0       -0.900155    3.792295    0.844235
     99          1           0       -0.058307    7.424728   -1.602520
    100          1           0       -1.869007    7.488510   -1.647422
    101          1           0       -1.030050    6.443257   -2.698062
    102          1           0        5.072327    3.247639   -2.708012
    103          1           0        4.353409    1.541709   -2.760387
    104          1           0        6.097875    2.863684   -0.541446
    105          1           0        5.731744   -1.010648   -1.769538
    106          1           0        7.226383   -0.640565   -2.521669
    107          1           0        5.788153    0.102087   -3.219491
    108          1           0        7.574628   -0.200713    0.185382
    109          1           0        7.632852    1.596701    0.334730
    110          1           0        9.169365    1.811061   -1.469430
    111          1           0        9.201124    0.084428   -1.669407
    112          1           0        9.798295    0.567622    1.097310
    113          1           0       10.830421    1.504576    0.034676
    114          1           0       10.630191   -1.305982   -0.731432
    115          1           0       12.889472   -0.936506   -1.501771
    116          1           0       13.154437    0.094390   -0.053049
    117          1           0       12.321162    0.754364   -1.394322
    118          1           0       11.693769   -0.356518    1.986545
    119          1           0       12.643818   -1.597214    1.174955
    120          1           0       11.073015   -3.145277    1.976462
    121          1           0        9.841998   -2.292501    0.969588
    122          1           0       10.318977   -0.977683    3.570412
    123          1           0        9.911532   -2.563011    3.877489
    124          1           0        8.061233   -1.418804    1.914852
    125          1           0        8.018215   -0.799502    4.940658
    126          1           0        6.620713   -0.683622    3.729132
    127          1           0        8.119402    0.245547    3.521129
    128          1           0        6.745824   -2.909769    3.922591
    129          1           0        8.303012   -3.776172    3.815109
    130          1           0        7.317430   -4.980629    2.219597
    131          1           0        7.718472   -3.627443    1.108295
    132          1           0        5.092527   -3.259801    2.466009
    133          1           0        5.214430   -4.935002    2.194271
    134          1           0        6.049998   -3.272374   -0.226651
    135          1           0        4.782086   -1.547024    0.708238
    136          1           0        3.458356   -2.740770    1.022134
    137          1           0        3.833544   -2.405971   -0.650970
    138          1           0        3.497661   -4.662150   -0.552716
    139          1           0        4.656913   -5.812636    0.212339
    140          1           0        4.975943   -5.227830   -1.350440
 ---------------------------------------------------------------------

 SCF Done:  E(RwB97XD) =  -3007.86441411     A.U. after   19 cycles

 Excitation energies and oscillator strengths:

 Excited State   1:      Singlet-A      1.7724 eV  699.53 nm  f=0.3747  <S**2>=0.000
     245 -> 248       -0.19110
     246 -> 247        0.68082
     245 <- 248       -0.11258
 This state for optimization and/or second-order correction.
 Total Energy, E(TD-HF/TD-DFT) =  -3007.79927992
 Copying the excited state density for this state as the 1-particle RhoCI density.

 Excited State   2:      Singlet-A      2.2004 eV  563.47 nm  f=0.1242  <S**2>=0.000
     245 -> 247        0.64012
     246 -> 248        0.28337

 Excited State   3:      Singlet-A      3.3526 eV  369.81 nm  f=0.0011  <S**2>=0.000
     240 -> 247       -0.17364
     240 -> 249       -0.10413
     241 -> 247        0.37076
     241 -> 249        0.20914
     241 -> 250        0.16516
     242 -> 247        0.39602
     242 -> 249        0.18953
     242 -> 250        0.13646

 Excited State   4:      Singlet-A      3.4056 eV  364.06 nm  f=0.0159  <S**2>=0.000
     240 -> 247        0.17095
     241 -> 247       -0.35480
     242 -> 247        0.42708
     244 -> 247       -0.34711
     246 -> 248       -0.12849

 Excited State   5:      Singlet-A      3.5220 eV  352.03 nm  f=0.0441  <S**2>=0.000
     239 -> 247       -0.11462
     241 -> 247       -0.13404
     242 -> 247        0.20641
     244 -> 247        0.54892
     244 -> 249       -0.10753
     246 -> 248       -0.29394

 The electronic state is 1-A.
 Alpha  occ. eigenvalues --  -46.96668 -19.30660 -19.29747 -19.24627 -19.24619
 Alpha  occ. eigenvalues --  -19.24249 -19.23825 -14.47627 -14.47249 -14.44988
 Alpha  occ. eigenvalues --  -14.43856 -10.43507 -10.43069 -10.39668 -10.39102
 Alpha  occ. eigenvalues --  -10.36021 -10.35982 -10.35969 -10.35613 -10.35556
 Alpha  occ. eigenvalues --  -10.35509 -10.35434 -10.34902 -10.33644 -10.33337
 Alpha  occ. eigenvalues --  -10.33313 -10.33130 -10.32988 -10.32833 -10.32429
 Alpha  occ. eigenvalues --  -10.32218 -10.32153 -10.32071 -10.32062 -10.32036
 Alpha  occ. eigenvalues --  -10.31770 -10.31632 -10.31501 -10.31157 -10.31121
 Alpha  occ. eigenvalues --  -10.31021 -10.30619 -10.30482 -10.30166 -10.30091
 Alpha  occ. eigenvalues --  -10.29950 -10.29869 -10.29860 -10.29799 -10.29778
 Alpha  occ. eigenvalues --  -10.29730 -10.29684 -10.29514 -10.29421 -10.29092
 Alpha  occ. eigenvalues --  -10.29082 -10.28887 -10.28883 -10.28826 -10.28750
 Alpha  occ. eigenvalues --  -10.28733 -10.28731 -10.28647 -10.28540 -10.28371
 Alpha  occ. eigenvalues --  -10.28217  -3.22419  -1.96023  -1.95504  -1.95394
 Alpha  occ. eigenvalues --   -1.17235  -1.16515  -1.12361  -1.10707  -1.08470
 Alpha  occ. eigenvalues --   -1.08403  -1.08281  -1.07183  -1.05318  -1.04281
 Alpha  occ. eigenvalues --   -0.94423  -0.92935  -0.91723  -0.91458  -0.91046
 Alpha  occ. eigenvalues --   -0.90576  -0.89878  -0.89132  -0.88997  -0.88444
 Alpha  occ. eigenvalues --   -0.87835  -0.87707  -0.86523  -0.85802  -0.85201
 Alpha  occ. eigenvalues --   -0.84502  -0.83745  -0.83015  -0.82809  -0.82441
 Alpha  occ. eigenvalues --   -0.81972  -0.79979  -0.79507  -0.79046  -0.78260
 Alpha  occ. eigenvalues --   -0.78184  -0.77571  -0.76916  -0.76492  -0.75849
 Alpha  occ. eigenvalues --   -0.75371  -0.74694  -0.73968  -0.72707  -0.71601
 Alpha  occ. eigenvalues --   -0.70918  -0.69953  -0.69660  -0.68444  -0.68368
 Alpha  occ. eigenvalues --   -0.68080  -0.67267  -0.67159  -0.66682  -0.66023
 Alpha  occ. eigenvalues --   -0.65553  -0.64694  -0.64578  -0.64151  -0.62517
 Alpha  occ. eigenvalues --   -0.62114  -0.61912  -0.61639  -0.60885  -0.60278
 Alpha  occ. eigenvalues --   -0.60044  -0.58390  -0.58320  -0.58014  -0.57666
 Alpha  occ. eigenvalues --   -0.57062  -0.56946  -0.56323  -0.55879  -0.55646
 Alpha  occ. eigenvalues --   -0.55320  -0.55129  -0.55096  -0.55009  -0.54415
 Alpha  occ. eigenvalues --   -0.54275  -0.54068  -0.53831  -0.53738  -0.53477
 Alpha  occ. eigenvalues --   -0.53175  -0.53077  -0.52822  -0.52461  -0.52365
 Alpha  occ. eigenvalues --   -0.52206  -0.52045  -0.51917  -0.51718  -0.51549
 Alpha  occ. eigenvalues --   -0.51367  -0.51120  -0.50988  -0.50892  -0.50553
 Alpha  occ. eigenvalues --   -0.50456  -0.50328  -0.50132  -0.49960  -0.49652
 Alpha  occ. eigenvalues --   -0.49497  -0.48979  -0.48961  -0.48828  -0.48734
 Alpha  occ. eigenvalues --   -0.48407  -0.48291  -0.48066  -0.47847  -0.47728
 Alpha  occ. eigenvalues --   -0.47569  -0.47419  -0.47015  -0.46852  -0.46730
 Alpha  occ. eigenvalues --   -0.46686  -0.46376  -0.46340  -0.46020  -0.45799
 Alpha  occ. eigenvalues --   -0.45703  -0.45529  -0.45449  -0.45301  -0.45063
 Alpha  occ. eigenvalues --   -0.44861  -0.44769  -0.44523  -0.44482  -0.44336
 Alpha  occ. eigenvalues --   -0.43959  -0.43864  -0.43716  -0.43695  -0.43616
 Alpha  occ. eigenvalues --   -0.43441  -0.43140  -0.43034  -0.42852  -0.42653
 Alpha  occ. eigenvalues --   -0.42267  -0.41858  -0.41643  -0.41169  -0.40973
 Alpha  occ. eigenvalues --   -0.40685  -0.40627  -0.40146  -0.39827  -0.39518
 Alpha  occ. eigenvalues --   -0.39384  -0.38933  -0.38576  -0.38481  -0.38354
 Alpha  occ. eigenvalues --   -0.38196  -0.37264  -0.36715  -0.36371  -0.36301
 Alpha  occ. eigenvalues --   -0.36104  -0.36087  -0.35456  -0.33670  -0.32880
 Alpha  occ. eigenvalues --   -0.32848  -0.32754  -0.31710  -0.31598  -0.26347
 Alpha  occ. eigenvalues --   -0.23801
 Alpha virt. eigenvalues --   -0.07428  -0.00357   0.01987   0.04124   0.05387
 Alpha virt. eigenvalues --    0.06169   0.06439   0.07097   0.07661   0.08807
 Alpha virt. eigenvalues --    0.10244   0.10380   0.10821   0.11727   0.12123

 Mulliken charges:
               1
     1  Mg   0.953974
     2  C   -0.087418
     3  C   -0.084556
     4  C   -0.104522
     5  C   -0.077595
     6  N   -0.307986
     7  C    0.008412
     8  C   -0.067070
     9  C   -0.109310
    10  C    0.018995
    11  C    0.035018
    12  C    0.045428
    13  C   -0.015424
    14  C    0.203021
    15  O   -0.299926
    16  O   -0.389186
    17  N   -0.407196
    18  C    0.198293
    19  C   -0.149263
    20  C   -0.106941
    21  C    0.199505
    22  C    0.078611
    23  C    0.038565
    24  O   -0.229079
    25  C   -0.027924
    26  N   -0.373446
    27  C    0.082471
    28  C   -0.136343
    29  C   -0.069057
    30  C    0.088770
    31  C    0.008745
    32  C   -0.011723
    33  C   -0.065006
    34  N   -0.451671
    35  C    0.125781
    36  C   -0.151661
    37  C   -0.086740
    38  C    0.202103
    39  C    0.075385
    40  C    0.154485
    41  O   -0.224288
    42  C   -0.044676
    43  C    0.292375
    44  O   -0.272657
    45  O   -0.382989
    46  C    0.139814
    47  C    0.277343
    48  C   -0.139882
    49  C   -0.214776
    50  C    0.039308
    51  C    0.016392
    52  C   -0.040034
    53  C    0.016160
    54  C   -0.213309
    55  C    0.027781
    56  C    0.011519
    57  C    0.011174
    58  C    0.003625
    59  C   -0.229673
    60  C   -0.004435
    61  C    0.030066
    62  C   -0.043596
    63  C    0.025022
    64  C   -0.232017
    65  C   -0.037726
    66  C   -0.015354
    67  H   -0.003160
    68  H   -0.016382
    69  H    0.000580
    70  H    0.043744
    71  H    0.031219
    72  H    0.043955
    73  H    0.040226
    74  H    0.038768
    75  H    0.041883
    76  H    0.048505
    77  H    0.054968
    78  H    0.062665
    79  H    0.032015
    80  H    0.044776
    81  H    0.073456
    82  H    0.050093
    83  H    0.069031
    84  H    0.049434
    85  H    0.049504
    86  H    0.042665
    87  H    0.040104
    88  H    0.039794
    89  H    0.035161
    90  H    0.034662
    91  H    0.025046
    92  H    0.036239
    93  H    0.035270
    94  H    0.040823
    95  H    0.063797
    96  H    0.020763
    97  H    0.041783
    98  H    0.072783
    99  H    0.061391
   100  H    0.070373
   101  H    0.047784
   102  H    0.054907
   103  H    0.044587
   104  H    0.028589
   105  H    0.052195
   106  H    0.016854
   107  H    0.049436
   108  H    0.040828
   109  H    0.022247
   110  H    0.025080
   111  H    0.006532
   112  H    0.019240
   113  H    0.015011
   114  H    0.020466
   115  H    0.040489
   116  H    0.021121
   117  H    0.019094
   118  H    0.020495
   119  H    0.022807
   120  H    0.028239
   121  H    0.022257
   122  H    0.007430
   123  H    0.002388
   124  H    0.009806
   125  H    0.039421
   126  H    0.035517
   127  H    0.020530
   128  H    0.018874
   129  H    0.019099
   130  H    0.020509
   131  H    0.034145
   132  H    0.010731
   133  H    0.022476
   134  H    0.022176
   135  H    0.051276
   136  H    0.027970
   137  H    0.035140
   138  H    0.027808
   139  H    0.024131
   140  H    0.032689
 Sum of Mulliken charges =  -0.00000

 Dipole moment (field-independent basis, Debye):
    X=              0.7672    Y=             -3.5794    Z=              1.4677  Tot=              3.9440
 Quadrupole moment (field-independent basis, Debye-Ang):
   XX=           -352.1968   YY=           -436.7977   ZZ=           -404.7357
   XY=             10.8876   XZ=            -23.5615   YZ=            -29.8102

 Normal termination of Gaussian 16 at Wed May  4 10:43:19 2022.
