 Gaussian 16, Revision A.03,
 Gaussian 16:  ES64L-G16RevA.03 25-Dec-2016

 --------------------
 #p ZINDO=(nstates=5)
 --------------------

 ------------------------------
 step_1601_chromophore_23 ZINDO
 ------------------------------
 Symbolic Z-matrix:
 Charge =  0 Multiplicity = 1

                         Standard orientation:
 ---------------------------------------------------------------------
 Center     Atomic      Atomic             Coordinates (Angstroms)
 Number     Number       Type             X           Y           Z
 ---------------------------------------------------------------------
      1         12           0       -4.827375    0.043858   -0.397327
      2          6           0       -2.607748    2.663328    0.142595
      3          6           0       -2.900595   -1.023180   -3.021007
      4          6           0       -6.412257   -2.970412   -0.299355
      5          6           0       -6.287433    0.841639    2.774552
      6          7           0       -3.048617    0.823588   -1.430448
      7          6           0       -2.331255    1.884013   -1.018879
      8          6           0       -1.088435    2.116002   -1.915668
      9          6           0       -1.384043    1.151569   -3.052312
     10          6           0       -2.527852    0.233765   -2.469587
     11          6           0       -1.742695    1.766188   -4.406416
     12          6           0        0.244504    1.865822   -1.090320
     13          6           0        1.198371    3.090715   -1.048455
     14          6           0        2.379853    3.020711   -2.015122
     15          8           0        2.313981    3.212215   -3.250331
     16          8           0        3.558892    2.798548   -1.308507
     17          7           0       -4.804742   -1.713515   -1.632989
     18          6           0       -3.915685   -1.926740   -2.640608
     19          6           0       -4.175139   -3.182847   -3.192159
     20          6           0       -5.170410   -3.871416   -2.390639
     21          6           0       -5.542287   -2.771325   -1.379277
     22          6           0       -3.373000   -3.779567   -4.461972
     23          6           0       -5.820943   -5.173070   -2.713602
     24          8           0       -5.497225   -5.902019   -3.637948
     25          6           0       -6.847560   -5.776454   -1.750454
     26          7           0       -6.350203   -0.881992    0.880532
     27          6           0       -6.913553   -2.065512    0.663017
     28          6           0       -7.891688   -2.514420    1.823535
     29          6           0       -7.772823   -1.284315    2.837653
     30          6           0       -6.796053   -0.297351    2.122035
     31          6           0       -9.386954   -2.870065    1.461534
     32          6           0       -7.235779   -1.857445    4.249548
     33          6           0       -8.002439   -1.329141    5.503536
     34          7           0       -4.573464    1.453753    1.162546
     35          6           0       -5.259080    1.721653    2.378193
     36          6           0       -4.629485    2.816825    3.041004
     37          6           0       -3.609266    3.237647    2.138916
     38          6           0       -3.662982    2.421630    1.040870
     39          6           0       -5.074512    3.463183    4.312696
     40          6           0       -2.698213    4.372330    1.915243
     41          8           0       -2.469316    5.355641    2.644216
     42          6           0       -1.929946    4.008071    0.559807
     43          6           0       -2.072781    5.086496   -0.418768
     44          8           0       -3.119758    5.393575   -1.016714
     45          8           0       -0.890363    5.786891   -0.632255
     46          6           0       -0.983830    6.855490   -1.689704
     47          6           0        4.717621    2.375522   -2.159005
     48          6           0        5.856156    2.091683   -1.272630
     49          6           0        6.622950    0.946472   -1.323423
     50          6           0        6.255207   -0.204954   -2.284442
     51          6           0        7.714240    0.743854   -0.340053
     52          6           0        9.104396    0.870954   -0.922186
     53          6           0       10.258985    0.579433    0.110230
     54          6           0       11.208093   -0.607209   -0.126989
     55          6           0       12.459150   -0.178488   -0.847568
     56          6           0       11.642508   -1.177990    1.271838
     57          6           0       10.575954   -2.197355    1.769845
     58          6           0        9.859115   -1.831042    3.071318
     59          6           0        8.283340   -1.748301    2.929713
     60          6           0        7.695777   -0.682464    3.906280
     61          6           0        7.592210   -3.147863    3.278547
     62          6           0        7.162519   -3.925007    1.998158
     63          6           0        5.589870   -3.982947    1.818818
     64          6           0        5.239287   -3.673662    0.381820
     65          6           0        4.261941   -2.435994    0.351495
     66          6           0        4.546002   -4.916691   -0.398130
     67          1           0       -2.214480   -1.281479   -3.830348
     68          1           0       -6.844954   -3.945837   -0.070033
     69          1           0       -6.791779    1.073519    3.714534
     70          1           0       -1.005625    3.137366   -2.286375
     71          1           0       -0.542726    0.517917   -3.331996
     72          1           0       -1.233597    1.328423   -5.265221
     73          1           0       -1.472380    2.816412   -4.297195
     74          1           0       -2.809472    1.685427   -4.613443
     75          1           0        0.741349    0.986140   -1.500164
     76          1           0        0.024705    1.617364   -0.052365
     77          1           0        1.658869    3.304274   -0.083605
     78          1           0        0.762343    4.041223   -1.357289
     79          1           0       -2.368415   -3.357015   -4.496821
     80          1           0       -3.793981   -3.392242   -5.389824
     81          1           0       -3.448298   -4.866724   -4.478379
     82          1           0       -7.690413   -5.086093   -1.769244
     83          1           0       -6.459618   -5.939462   -0.744888
     84          1           0       -7.182299   -6.748023   -2.114845
     85          1           0       -7.535144   -3.498592    2.125812
     86          1           0       -8.738730   -0.817186    3.032198
     87          1           0       -9.567749   -2.921967    0.388396
     88          1           0      -10.085910   -2.160494    1.905430
     89          1           0       -9.597991   -3.872196    1.835838
     90          1           0       -6.161270   -1.685451    4.316127
     91          1           0       -7.197280   -2.945427    4.196348
     92          1           0       -8.443990   -2.096508    6.138620
     93          1           0       -8.845537   -0.668797    5.295926
     94          1           0       -7.316846   -0.804587    6.168715
     95          1           0       -4.423968    4.219882    4.750761
     96          1           0       -5.206235    2.667313    5.046629
     97          1           0       -6.101761    3.827785    4.307635
     98          1           0       -0.900155    3.792295    0.844235
     99          1           0       -0.058307    7.424728   -1.602520
    100          1           0       -1.869007    7.488510   -1.647422
    101          1           0       -1.030050    6.443257   -2.698062
    102          1           0        5.072327    3.247639   -2.708012
    103          1           0        4.353409    1.541709   -2.760387
    104          1           0        6.097875    2.863684   -0.541446
    105          1           0        5.731744   -1.010648   -1.769538
    106          1           0        7.226383   -0.640565   -2.521669
    107          1           0        5.788153    0.102087   -3.219491
    108          1           0        7.574628   -0.200713    0.185382
    109          1           0        7.632852    1.596701    0.334730
    110          1           0        9.169365    1.811061   -1.469430
    111          1           0        9.201124    0.084428   -1.669407
    112          1           0        9.798295    0.567622    1.097310
    113          1           0       10.830421    1.504576    0.034676
    114          1           0       10.630191   -1.305982   -0.731432
    115          1           0       12.889472   -0.936506   -1.501771
    116          1           0       13.154437    0.094390   -0.053049
    117          1           0       12.321162    0.754364   -1.394322
    118          1           0       11.693769   -0.356518    1.986545
    119          1           0       12.643818   -1.597214    1.174955
    120          1           0       11.073015   -3.145277    1.976462
    121          1           0        9.841998   -2.292501    0.969588
    122          1           0       10.318977   -0.977683    3.570412
    123          1           0        9.911532   -2.563011    3.877489
    124          1           0        8.061233   -1.418804    1.914852
    125          1           0        8.018215   -0.799502    4.940658
    126          1           0        6.620713   -0.683622    3.729132
    127          1           0        8.119402    0.245547    3.521129
    128          1           0        6.745824   -2.909769    3.922591
    129          1           0        8.303012   -3.776172    3.815109
    130          1           0        7.317430   -4.980629    2.219597
    131          1           0        7.718472   -3.627443    1.108295
    132          1           0        5.092527   -3.259801    2.466009
    133          1           0        5.214430   -4.935002    2.194271
    134          1           0        6.049998   -3.272374   -0.226651
    135          1           0        4.782086   -1.547024    0.708238
    136          1           0        3.458356   -2.740770    1.022134
    137          1           0        3.833544   -2.405971   -0.650970
    138          1           0        3.497661   -4.662150   -0.552716
    139          1           0        4.656913   -5.812636    0.212339
    140          1           0        4.975943   -5.227830   -1.350440
 ---------------------------------------------------------------------

 SCF Done:  E(RZINDO/S) =  -473.865589825     A.U. after   20 cycles

 Excitation energies and oscillator strengths:

 Excited State   1:      Singlet-A      1.3927 eV  890.24 nm  f=0.5452  <S**2>=0.000
     175 ->178        -0.16756
     176 ->177         0.67115
 This state for optimization and/or second-order correction.
 Total Energy, E(CIS/TDA) =  -473.814409015
 Copying the excited state density for this state as the 1-particle RhoCI density.

 Excited State   2:      Singlet-A      1.9400 eV  639.11 nm  f=0.0687  <S**2>=0.000
     175 ->177         0.55931
     176 ->178         0.39680

 Excited State   3:      Singlet-A      2.8327 eV  437.69 nm  f=0.0008  <S**2>=0.000
     168 ->177         0.37408
     168 ->178        -0.10895
     168 ->179        -0.38625
     168 ->180         0.22058
     168 ->181         0.10259
     168 ->185        -0.22919
     168 ->193        -0.12476

 Excited State   4:      Singlet-A      3.0436 eV  407.36 nm  f=1.0233  <S**2>=0.000
     171 ->177        -0.12403
     175 ->177        -0.35610
     176 ->178         0.52072
     176 ->179        -0.11673

 Excited State   5:      Singlet-A      3.1043 eV  399.40 nm  f=0.1180  <S**2>=0.000
     170 ->177         0.24797
     170 ->178        -0.11078
     170 ->179         0.29447
     170 ->180         0.30005
     170 ->181         0.15135
     170 ->183         0.12148
     170 ->185         0.18945
     170 ->187         0.17486
     170 ->201        -0.10837
     171 ->177         0.10265
     175 ->177         0.10047
     176 ->178        -0.15518
     176 ->179        -0.18552

 The electronic state is 1-A.
 Alpha  occ. eigenvalues --   -1.84486  -1.82358  -1.78558  -1.70932  -1.70577
 Alpha  occ. eigenvalues --   -1.69327  -1.66228  -1.60145  -1.60072  -1.56107
 Alpha  occ. eigenvalues --   -1.55473  -1.51778  -1.48892  -1.46694  -1.45214
 Alpha  occ. eigenvalues --   -1.43164  -1.41902  -1.38488  -1.37805  -1.37439
 Alpha  occ. eigenvalues --   -1.35168  -1.33349  -1.32820  -1.30835  -1.29244
 Alpha  occ. eigenvalues --   -1.28459  -1.26701  -1.22392  -1.21344  -1.18114
 Alpha  occ. eigenvalues --   -1.16795  -1.15938  -1.14718  -1.14373  -1.13028
 Alpha  occ. eigenvalues --   -1.12078  -1.10267  -1.09468  -1.06153  -1.04323
 Alpha  occ. eigenvalues --   -1.02303  -1.01752  -0.98936  -0.97858  -0.97192
 Alpha  occ. eigenvalues --   -0.95861  -0.95625  -0.93944  -0.93772  -0.92693
 Alpha  occ. eigenvalues --   -0.91080  -0.90305  -0.89869  -0.88923  -0.86895
 Alpha  occ. eigenvalues --   -0.86413  -0.84290  -0.83134  -0.82701  -0.80073
 Alpha  occ. eigenvalues --   -0.79809  -0.79667  -0.77218  -0.76730  -0.76490
 Alpha  occ. eigenvalues --   -0.76137  -0.75573  -0.74597  -0.74165  -0.73925
 Alpha  occ. eigenvalues --   -0.73440  -0.72211  -0.71939  -0.71579  -0.71090
 Alpha  occ. eigenvalues --   -0.69973  -0.69738  -0.69175  -0.68672  -0.67805
 Alpha  occ. eigenvalues --   -0.67702  -0.67201  -0.66096  -0.65674  -0.65513
 Alpha  occ. eigenvalues --   -0.65131  -0.64797  -0.64322  -0.63908  -0.63305
 Alpha  occ. eigenvalues --   -0.63040  -0.62697  -0.62403  -0.61913  -0.61400
 Alpha  occ. eigenvalues --   -0.61145  -0.60720  -0.60358  -0.60178  -0.59960
 Alpha  occ. eigenvalues --   -0.59682  -0.59517  -0.59402  -0.58687  -0.58394
 Alpha  occ. eigenvalues --   -0.58088  -0.57688  -0.57336  -0.57298  -0.56555
 Alpha  occ. eigenvalues --   -0.56288  -0.56105  -0.55687  -0.55312  -0.55104
 Alpha  occ. eigenvalues --   -0.54754  -0.54596  -0.54034  -0.53502  -0.53041
 Alpha  occ. eigenvalues --   -0.53022  -0.52649  -0.52441  -0.52300  -0.51809
 Alpha  occ. eigenvalues --   -0.51412  -0.51330  -0.51021  -0.50717  -0.50505
 Alpha  occ. eigenvalues --   -0.50283  -0.49925  -0.49679  -0.49372  -0.49253
 Alpha  occ. eigenvalues --   -0.49044  -0.49002  -0.48731  -0.48262  -0.48015
 Alpha  occ. eigenvalues --   -0.47972  -0.47651  -0.47483  -0.47425  -0.47290
 Alpha  occ. eigenvalues --   -0.47131  -0.46601  -0.46521  -0.46462  -0.46236
 Alpha  occ. eigenvalues --   -0.45155  -0.45079  -0.44778  -0.44622  -0.44456
 Alpha  occ. eigenvalues --   -0.44296  -0.43441  -0.42856  -0.42290  -0.42268
 Alpha  occ. eigenvalues --   -0.42100  -0.41996  -0.41572  -0.39591  -0.39197
 Alpha  occ. eigenvalues --   -0.38519  -0.37536  -0.36065  -0.35735  -0.34731
 Alpha  occ. eigenvalues --   -0.34208  -0.32828  -0.31848  -0.31728  -0.27121
 Alpha  occ. eigenvalues --   -0.22815
 Alpha virt. eigenvalues --   -0.08897  -0.02598  -0.01169   0.00856   0.01213
 Alpha virt. eigenvalues --    0.01252   0.02235   0.02573   0.04148   0.04210
 Alpha virt. eigenvalues --    0.05670   0.06042   0.06346   0.07179   0.07487

 Mulliken charges:
               1
     1  Mg   0.433424
     2  C   -0.039861
     3  C   -0.083419
     4  C   -0.104960
     5  C   -0.035259
     6  N   -0.245250
     7  C    0.089893
     8  C    0.004135
     9  C    0.011015
    10  C    0.169578
    11  C   -0.047420
    12  C   -0.015120
    13  C    0.002415
    14  C    0.463104
    15  O   -0.533689
    16  O   -0.278904
    17  N   -0.317887
    18  C    0.150145
    19  C    0.048407
    20  C   -0.061308
    21  C    0.168726
    22  C   -0.047786
    23  C    0.332601
    24  O   -0.514682
    25  C   -0.030362
    26  N   -0.271830
    27  C    0.173995
    28  C   -0.006924
    29  C    0.001289
    30  C    0.055314
    31  C   -0.053947
    32  C   -0.035209
    33  C   -0.056740
    34  N   -0.333241
    35  C    0.056613
    36  C    0.016198
    37  C   -0.064838
    38  C    0.119910
    39  C   -0.038667
    40  C    0.326349
    41  O   -0.528741
    42  C    0.061064
    43  C    0.492401
    44  O   -0.529247
    45  O   -0.274098
    46  C    0.075137
    47  C    0.105799
    48  C   -0.093217
    49  C   -0.019406
    50  C   -0.050420
    51  C   -0.012169
    52  C   -0.035669
    53  C   -0.040744
    54  C   -0.005749
    55  C   -0.055580
    56  C   -0.036047
    57  C   -0.036456
    58  C   -0.043760
    59  C   -0.026226
    60  C   -0.062286
    61  C   -0.039752
    62  C   -0.047693
    63  C   -0.027682
    64  C   -0.020061
    65  C   -0.065895
    66  C   -0.067210
    67  H    0.029203
    68  H    0.026546
    69  H    0.025399
    70  H    0.042431
    71  H    0.024613
    72  H    0.025914
    73  H    0.028030
    74  H    0.021830
    75  H    0.028232
    76  H    0.025944
    77  H    0.036799
    78  H    0.049705
    79  H    0.027025
    80  H    0.032178
    81  H    0.051088
    82  H    0.033220
    83  H    0.039095
    84  H    0.034529
    85  H    0.037832
    86  H    0.038092
    87  H    0.021256
    88  H    0.026978
    89  H    0.017620
    90  H    0.022748
    91  H    0.017334
    92  H    0.017102
    93  H    0.022257
    94  H    0.019257
    95  H    0.037267
    96  H    0.013565
    97  H    0.029360
    98  H    0.051351
    99  H    0.032812
   100  H    0.056245
   101  H    0.037296
   102  H    0.054155
   103  H    0.054504
   104  H    0.036055
   105  H    0.034452
   106  H    0.014683
   107  H    0.032373
   108  H    0.030492
   109  H    0.017169
   110  H    0.026977
   111  H    0.009477
   112  H    0.020026
   113  H    0.012986
   114  H    0.025128
   115  H    0.021068
   116  H    0.016026
   117  H    0.013997
   118  H    0.024038
   119  H    0.020487
   120  H    0.017126
   121  H    0.025311
   122  H    0.019863
   123  H    0.014173
   124  H    0.024573
   125  H    0.029898
   126  H    0.020894
   127  H    0.008450
   128  H    0.024857
   129  H    0.021366
   130  H    0.011141
   131  H    0.035077
   132  H    0.016347
   133  H    0.022497
   134  H    0.022610
   135  H    0.027294
   136  H    0.015228
   137  H    0.017333
   138  H    0.022075
   139  H    0.016586
   140  H    0.020952
 Sum of Mulliken charges =  -0.00000

 Dipole moment (field-independent basis, Debye):
    X=              0.8736    Y=             -6.8755    Z=              0.3486  Tot=              6.9396
 N-N= 4.472799628928D+03 E-N= 0.000000000000D+00  KE=-9.618737110013D+03
 Leave Link  601 at Wed May  4 10:57:34 2022, MaxMem=  6710886400 cpu:               1.0 elap:               0.1
 (Enter /sw/apps/gaussian-16.0/g16/l9999.exe)
 1\1\GINC-BP1-COMPUTE123\SP\RZINDO CIS\STO-3G\C55H74Mg1N4O6\OF15641\04-
 May-2022\0\\#p ZINDO=(nstates=5)\\step_1601_chromophore_23 ZINDO\\0,1\
 Mg,0,-8.963,41.388,42.621\C,0,-8.564,38.129,41.481\C,0,-6.394,42.393,4
 0.59\C,0,-9.972,44.621,42.991\C,0,-12.052,40.324,44.089\N,0,-7.53,40.3
 55,41.31\C,0,-7.581,39.046,41.006\C,0,-6.482,38.653,39.986\C,0,-5.649,
 39.924,39.974\C,0,-6.586,40.986,40.67\C,0,-4.259,39.847,40.608\C,0,-7.
 137,38.211,38.609\C,0,-6.76,36.771,38.166\C,0,-5.671,36.69,37.097\O,0,

 Normal termination of Gaussian 16 at Wed May  4 10:57:34 2022.
