 Gaussian 16, Revision A.03,
 Gaussian 16:  ES64L-G16RevA.03 25-Dec-2016

 ------------------------------
 #p blyp/Def2SVP td=(nstates=5)
 ------------------------------

 ---------------------------------------------------
 step_1401_chromophore_20 TDDFT with blyp functional
 ---------------------------------------------------
 Symbolic Z-matrix:
 Charge =  0 Multiplicity = 1

                         Standard orientation:
 ---------------------------------------------------------------------
 Center     Atomic      Atomic             Coordinates (Angstroms)
 Number     Number       Type             X           Y           Z
 ---------------------------------------------------------------------
      1         12           0       -4.139903   -1.576107   -0.627907
      2          6           0       -4.438127    1.914560   -0.812203
      3          6           0       -1.887265   -1.457178   -3.006176
      4          6           0       -3.692608   -4.835085   -0.044863
      5          6           0       -6.339929   -1.538153    2.212117
      6          7           0       -3.088239    0.142490   -1.503137
      7          6           0       -3.339834    1.416909   -1.546200
      8          6           0       -2.292069    2.183347   -2.458673
      9          6           0       -1.895775    1.053101   -3.406017
     10          6           0       -2.336627   -0.202026   -2.570335
     11          6           0       -2.629257    1.059595   -4.818238
     12          6           0       -1.138277    2.752410   -1.637685
     13          6           0       -0.332199    3.736040   -2.417392
     14          6           0        0.212185    4.914425   -1.601359
     15          8           0       -0.487424    5.819607   -1.159248
     16          8           0        1.561421    4.772603   -1.299448
     17          7           0       -2.829138   -2.932012   -1.358921
     18          6           0       -1.979650   -2.753879   -2.435645
     19          6           0       -1.195830   -3.966893   -2.648249
     20          6           0       -1.702830   -4.953452   -1.756847
     21          6           0       -2.840922   -4.233757   -0.998630
     22          6           0       -0.101848   -3.955638   -3.685863
     23          6           0       -1.143504   -6.369005   -1.723423
     24          8           0       -0.215573   -6.728568   -2.436187
     25          6           0       -1.889661   -7.535047   -0.966753
     26          7           0       -4.843331   -2.985370    0.925918
     27          6           0       -4.599181   -4.275047    0.833417
     28          6           0       -5.368411   -5.066907    1.891246
     29          6           0       -5.888930   -3.975364    2.866860
     30          6           0       -5.687632   -2.754006    1.961439
     31          6           0       -6.344121   -6.106053    1.375475
     32          6           0       -5.095578   -3.849103    4.201307
     33          6           0       -5.868268   -3.279412    5.432267
     34          7           0       -5.223873   -0.086731    0.519359
     35          6           0       -6.179385   -0.228229    1.522084
     36          6           0       -6.699766    1.113641    1.811903
     37          6           0       -6.172598    1.919294    0.760784
     38          6           0       -5.173038    1.206227    0.136712
     39          6           0       -7.674650    1.478883    2.899447
     40          6           0       -6.150799    3.298327    0.301988
     41          8           0       -6.833457    4.311035    0.502865
     42          6           0       -5.030186    3.286495   -0.830997
     43          6           0       -4.109747    4.457388   -0.689724
     44          8           0       -3.290433    4.671753    0.169838
     45          8           0       -4.383804    5.241677   -1.765891
     46          6           0       -3.650280    6.502813   -1.933455
     47          6           0        2.097654    5.815870   -0.428479
     48          6           0        3.385014    5.210342    0.038076
     49          6           0        4.287671    5.673840    0.919836
     50          6           0        4.129854    7.016184    1.669999
     51          6           0        5.434663    4.810722    1.232032
     52          6           0        5.080122    3.404646    1.726287
     53          6           0        5.349426    3.084413    3.200256
     54          6           0        5.762485    1.554750    3.424187
     55          6           0        5.394072    1.013952    4.838342
     56          6           0        7.220490    1.347014    3.121102
     57          6           0        7.421959   -0.140078    2.797839
     58          6           0        7.289378   -0.538876    1.360148
     59          6           0        8.715418   -0.973997    0.720864
     60          6           0        8.730151   -0.521466   -0.767049
     61          6           0        8.940442   -2.478660    0.896365
     62          6           0       10.401670   -2.914952    0.753257
     63          6           0       10.713405   -3.611989   -0.599313
     64          6           0       12.042936   -3.022011   -1.187354
     65          6           0       11.848030   -2.583252   -2.673549
     66          6           0       13.210697   -4.034449   -1.180926
     67          1           0       -1.279919   -1.497611   -3.912658
     68          1           0       -3.709462   -5.908424    0.154698
     69          1           0       -7.067173   -1.424970    3.018290
     70          1           0       -3.012677    2.896590   -2.857432
     71          1           0       -0.823903    1.024590   -3.604921
     72          1           0       -2.989944    2.075445   -4.980591
     73          1           0       -3.459421    0.363446   -4.938161
     74          1           0       -1.850759    0.890437   -5.560962
     75          1           0       -0.569504    1.854235   -1.398223
     76          1           0       -1.597293    3.201440   -0.756805
     77          1           0       -0.844472    4.026346   -3.333888
     78          1           0        0.393776    3.139724   -2.969885
     79          1           0        0.803129   -3.492217   -3.293760
     80          1           0       -0.320567   -3.337525   -4.556339
     81          1           0        0.163473   -4.940577   -4.071947
     82          1           0       -1.817574   -7.205222    0.069512
     83          1           0       -1.411121   -8.514334   -0.978806
     84          1           0       -2.937400   -7.557393   -1.263721
     85          1           0       -4.594712   -5.559018    2.479838
     86          1           0       -6.946316   -4.155648    3.061183
     87          1           0       -6.309698   -6.136876    0.286592
     88          1           0       -7.376643   -5.913128    1.665667
     89          1           0       -6.088288   -7.073304    1.809582
     90          1           0       -4.159584   -3.323910    4.010313
     91          1           0       -4.802207   -4.859289    4.485306
     92          1           0       -5.303647   -2.533150    5.992250
     93          1           0       -6.012697   -3.965841    6.266871
     94          1           0       -6.843370   -2.878929    5.154476
     95          1           0       -7.167665    1.453301    3.863900
     96          1           0       -8.402923    0.670030    2.950637
     97          1           0       -8.227215    2.380767    2.635396
     98          1           0       -5.461861    3.298941   -1.831531
     99          1           0       -2.733149    6.270151   -2.474808
    100          1           0       -3.329349    7.132755   -1.102810
    101          1           0       -4.289304    7.187666   -2.489689
    102          1           0        1.466535    6.062060    0.426224
    103          1           0        2.328365    6.713513   -1.001217
    104          1           0        3.602539    4.207214   -0.328044
    105          1           0        3.209128    6.962433    2.250698
    106          1           0        4.114441    7.780851    0.893251
    107          1           0        4.935061    7.285324    2.353846
    108          1           0        6.066782    5.301597    1.972335
    109          1           0        6.053828    4.655200    0.348719
    110          1           0        5.720243    2.662480    1.248854
    111          1           0        4.011299    3.219062    1.620015
    112          1           0        4.457992    3.348428    3.770638
    113          1           0        6.194438    3.678948    3.548616
    114          1           0        5.189635    0.967710    2.706412
    115          1           0        5.185842    1.877233    5.470118
    116          1           0        6.167793    0.385896    5.281137
    117          1           0        4.546395    0.340224    4.706434
    118          1           0        8.025817    1.652105    3.789507
    119          1           0        7.446779    1.953763    2.244940
    120          1           0        6.662531   -0.782297    3.243332
    121          1           0        8.394296   -0.480910    3.152962
    122          1           0        6.897732    0.319302    0.813315
    123          1           0        6.555306   -1.339937    1.277773
    124          1           0        9.408553   -0.376048    1.313902
    125          1           0        9.378844    0.353480   -0.760960
    126          1           0        7.743955   -0.235977   -1.132945
    127          1           0        9.142277   -1.292648   -1.418014
    128          1           0        8.308417   -2.975672    0.159712
    129          1           0        8.491453   -2.762406    1.848201
    130          1           0       10.549647   -3.616701    1.574818
    131          1           0       10.991880   -2.030546    0.991502
    132          1           0        9.871574   -3.608746   -1.292730
    133          1           0       10.797377   -4.673987   -0.370420
    134          1           0       12.307408   -2.089357   -0.690583
    135          1           0       12.224498   -3.386364   -3.307690
    136          1           0       12.390371   -1.684202   -2.966845
    137          1           0       10.790657   -2.554739   -2.935723
    138          1           0       13.321732   -4.657481   -2.068646
    139          1           0       13.293380   -4.541259   -0.219264
    140          1           0       14.106079   -3.413609   -1.166269
 ---------------------------------------------------------------------

 SCF Done:  E(RB-LYP) =  -3007.36401007     A.U. after   22 cycles

 Excitation energies and oscillator strengths:

 Excited State   1:      Singlet-A      1.8239 eV  679.78 nm  f=0.1571  <S**2>=0.000
     243 -> 247       -0.24184
     244 -> 247        0.39413
     245 -> 247        0.19214
     245 -> 248        0.13152
     246 -> 247        0.48548
     246 <- 247       -0.10193
 This state for optimization and/or second-order correction.
 Total Energy, E(TD-HF/TD-DFT) =  -3007.29698384
 Copying the excited state density for this state as the 1-particle RhoCI density.

 Excited State   2:      Singlet-A      1.8521 eV  669.43 nm  f=0.0526  <S**2>=0.000
     243 -> 247        0.26920
     244 -> 247        0.57792
     246 -> 247       -0.27908

 Excited State   3:      Singlet-A      1.8619 eV  665.88 nm  f=0.1325  <S**2>=0.000
     243 -> 247        0.50085
     245 -> 247       -0.26393
     245 -> 248        0.10656
     246 -> 247        0.40052

 Excited State   4:      Singlet-A      1.9910 eV  622.71 nm  f=0.0704  <S**2>=0.000
     243 -> 247        0.33853
     245 -> 247        0.56651
     246 -> 248       -0.18371

 Excited State   5:      Singlet-A      2.0526 eV  604.05 nm  f=0.0001  <S**2>=0.000
     242 -> 247        0.70672

 The electronic state is 1-A.
 Alpha  occ. eigenvalues --  -46.28247 -18.82418 -18.81643 -18.77363 -18.76101
 Alpha  occ. eigenvalues --  -18.75653 -18.75642 -14.03745 -14.03008 -14.01998
 Alpha  occ. eigenvalues --  -14.00520 -10.04638 -10.03097 -10.00398  -9.99552
 Alpha  occ. eigenvalues --   -9.97826  -9.97397  -9.97148  -9.96508  -9.96408
 Alpha  occ. eigenvalues --   -9.96344  -9.96135  -9.96000  -9.95853  -9.94657
 Alpha  occ. eigenvalues --   -9.94458  -9.94044  -9.94035  -9.93915  -9.93864
 Alpha  occ. eigenvalues --   -9.93834  -9.93720  -9.93607  -9.93391  -9.93364
 Alpha  occ. eigenvalues --   -9.93356  -9.93305  -9.93115  -9.92915  -9.92897
 Alpha  occ. eigenvalues --   -9.92711  -9.92655  -9.92372  -9.92320  -9.92193
 Alpha  occ. eigenvalues --   -9.92132  -9.92043  -9.92009  -9.91986  -9.91783
 Alpha  occ. eigenvalues --   -9.91496  -9.91181  -9.90986  -9.90946  -9.90839
 Alpha  occ. eigenvalues --   -9.90812  -9.90805  -9.90698  -9.90695  -9.90549
 Alpha  occ. eigenvalues --   -9.90529  -9.90438  -9.90348  -9.90328  -9.90237
 Alpha  occ. eigenvalues --   -9.90071  -2.92796  -1.73204  -1.72696  -1.72502
 Alpha  occ. eigenvalues --   -0.97676  -0.97343  -0.91459  -0.90214  -0.90071
 Alpha  occ. eigenvalues --   -0.89757  -0.88438  -0.87578  -0.85761  -0.85274
 Alpha  occ. eigenvalues --   -0.75541  -0.74056  -0.73714  -0.72879  -0.72779
 Alpha  occ. eigenvalues --   -0.72203  -0.71855  -0.71097  -0.70279  -0.69954
 Alpha  occ. eigenvalues --   -0.69339  -0.69282  -0.68116  -0.67568  -0.67121
 Alpha  occ. eigenvalues --   -0.66437  -0.65820  -0.65015  -0.64844  -0.64342
 Alpha  occ. eigenvalues --   -0.63761  -0.62691  -0.62213  -0.61738  -0.60592
 Alpha  occ. eigenvalues --   -0.60503  -0.60249  -0.59606  -0.59325  -0.58904
 Alpha  occ. eigenvalues --   -0.57996  -0.57441  -0.56731  -0.55550  -0.55249
 Alpha  occ. eigenvalues --   -0.53770  -0.53249  -0.53089  -0.52180  -0.52178
 Alpha  occ. eigenvalues --   -0.51994  -0.51023  -0.50626  -0.50540  -0.50364
 Alpha  occ. eigenvalues --   -0.49958  -0.49235  -0.48076  -0.48055  -0.47081
 Alpha  occ. eigenvalues --   -0.46540  -0.46196  -0.45488  -0.45243  -0.44316
 Alpha  occ. eigenvalues --   -0.43783  -0.43677  -0.43261  -0.42772  -0.42448
 Alpha  occ. eigenvalues --   -0.42190  -0.41630  -0.41493  -0.41120  -0.40920
 Alpha  occ. eigenvalues --   -0.40795  -0.40612  -0.40449  -0.40194  -0.39625
 Alpha  occ. eigenvalues --   -0.39509  -0.39387  -0.39338  -0.39124  -0.38749
 Alpha  occ. eigenvalues --   -0.38342  -0.38296  -0.38156  -0.38122  -0.37964
 Alpha  occ. eigenvalues --   -0.37919  -0.37722  -0.37627  -0.37271  -0.37187
 Alpha  occ. eigenvalues --   -0.37045  -0.36818  -0.36495  -0.36319  -0.36242
 Alpha  occ. eigenvalues --   -0.36154  -0.36121  -0.35933  -0.35885  -0.35552
 Alpha  occ. eigenvalues --   -0.35251  -0.35171  -0.34907  -0.34735  -0.34684
 Alpha  occ. eigenvalues --   -0.34368  -0.34337  -0.34304  -0.34173  -0.34066
 Alpha  occ. eigenvalues --   -0.33912  -0.33471  -0.33437  -0.33267  -0.33232
 Alpha  occ. eigenvalues --   -0.33170  -0.33012  -0.32866  -0.32710  -0.32423
 Alpha  occ. eigenvalues --   -0.32354  -0.32039  -0.31834  -0.31778  -0.31655
 Alpha  occ. eigenvalues --   -0.31448  -0.31342  -0.30761  -0.30445  -0.30390
 Alpha  occ. eigenvalues --   -0.30332  -0.30230  -0.29962  -0.29622  -0.29551
 Alpha  occ. eigenvalues --   -0.29447  -0.29359  -0.29181  -0.29139  -0.28970
 Alpha  occ. eigenvalues --   -0.28864  -0.28279  -0.28100  -0.27846  -0.27772
 Alpha  occ. eigenvalues --   -0.27721  -0.27169  -0.26801  -0.26651  -0.26457
 Alpha  occ. eigenvalues --   -0.26393  -0.26124  -0.25800  -0.25581  -0.25483
 Alpha  occ. eigenvalues --   -0.25037  -0.24659  -0.24593  -0.23864  -0.23413
 Alpha  occ. eigenvalues --   -0.23028  -0.22538  -0.22195  -0.21373  -0.21068
 Alpha  occ. eigenvalues --   -0.20183  -0.19273  -0.18534  -0.18419  -0.17279
 Alpha  occ. eigenvalues --   -0.16107
 Alpha virt. eigenvalues --   -0.11730  -0.06940  -0.06212  -0.04741  -0.03774
 Alpha virt. eigenvalues --   -0.03484  -0.01910  -0.01497  -0.01364   0.00125
 Alpha virt. eigenvalues --    0.01116   0.01299   0.02450   0.03159   0.03248

 Mulliken charges:
               1
     1  Mg   0.679117
     2  C    0.001740
     3  C   -0.046919
     4  C   -0.054718
     5  C   -0.043808
     6  N   -0.151990
     7  C   -0.166557
     8  C    0.024082
     9  C   -0.043579
    10  C    0.061590
    11  C    0.123791
    12  C    0.136084
    13  C    0.173550
    14  C    0.127377
    15  O   -0.187795
    16  O   -0.277445
    17  N   -0.317076
    18  C    0.089662
    19  C   -0.074717
    20  C   -0.007149
    21  C    0.191912
    22  C    0.160606
    23  C   -0.073904
    24  O   -0.159175
    25  C    0.113715
    26  N   -0.164089
    27  C   -0.061504
    28  C    0.020309
    29  C   -0.001094
    30  C    0.050821
    31  C    0.159599
    32  C    0.123288
    33  C    0.064974
    34  N   -0.232606
    35  C    0.038061
    36  C   -0.162821
    37  C    0.034072
    38  C    0.065004
    39  C    0.185724
    40  C    0.012125
    41  O   -0.144373
    42  C    0.035506
    43  C    0.115993
    44  O   -0.156027
    45  O   -0.267898
    46  C    0.217367
    47  C    0.355452
    48  C   -0.152085
    49  C   -0.184390
    50  C    0.138907
    51  C    0.201789
    52  C    0.049908
    53  C    0.091077
    54  C   -0.099527
    55  C    0.129627
    56  C    0.133147
    57  C    0.065298
    58  C    0.082286
    59  C   -0.107763
    60  C    0.119838
    61  C    0.087643
    62  C    0.101908
    63  C    0.125114
    64  C   -0.083313
    65  C    0.085837
    66  C    0.112656
    67  H   -0.069721
    68  H   -0.086565
    69  H   -0.068887
    70  H   -0.033907
    71  H   -0.025963
    72  H   -0.009695
    73  H    0.006678
    74  H   -0.006012
    75  H   -0.019529
    76  H    0.020913
    77  H   -0.019131
    78  H   -0.040407
    79  H   -0.001235
    80  H   -0.014186
    81  H    0.008510
    82  H   -0.002921
    83  H   -0.007267
    84  H    0.022373
    85  H   -0.034597
    86  H   -0.039613
    87  H   -0.005338
    88  H   -0.011767
    89  H   -0.004904
    90  H   -0.013239
    91  H   -0.023651
    92  H   -0.012041
    93  H   -0.016889
    94  H   -0.001611
    95  H    0.006259
    96  H   -0.012241
    97  H    0.015097
    98  H    0.004188
    99  H    0.007229
   100  H    0.021099
   101  H    0.002734
   102  H    0.016239
   103  H    0.000719
   104  H   -0.026066
   105  H    0.010420
   106  H    0.003362
   107  H   -0.015941
   108  H   -0.049884
   109  H   -0.023039
   110  H   -0.029092
   111  H   -0.015574
   112  H   -0.037830
   113  H   -0.040409
   114  H   -0.034923
   115  H   -0.011724
   116  H   -0.016308
   117  H   -0.020223
   118  H   -0.040151
   119  H   -0.056020
   120  H   -0.040279
   121  H   -0.038396
   122  H   -0.042334
   123  H   -0.039716
   124  H   -0.037041
   125  H   -0.020047
   126  H   -0.011409
   127  H   -0.019053
   128  H   -0.040941
   129  H   -0.047970
   130  H   -0.035673
   131  H   -0.028285
   132  H   -0.028023
   133  H   -0.040617
   134  H   -0.023509
   135  H   -0.036366
   136  H   -0.009655
   137  H   -0.017361
   138  H   -0.001444
   139  H   -0.020320
   140  H   -0.033115
 Sum of Mulliken charges =  -0.00000

 Dipole moment (field-independent basis, Debye):
    X=              0.4426    Y=             -2.7598    Z=             -0.3411  Tot=              2.8158
 Quadrupole moment (field-independent basis, Debye-Ang):
   XX=           -398.0669   YY=           -421.0410   ZZ=           -387.5569
   XY=             54.0252   XZ=              2.4915   YZ=            -28.5014

 Normal termination of Gaussian 16 at Wed May  4 06:20:03 2022.
