 Gaussian 16, Revision A.03,
 Gaussian 16:  ES64L-G16RevA.03 25-Dec-2016

 -----------------------------------
 #p cam-b3lyp/Def2SVP td=(nstates=5)
 -----------------------------------

 --------------------------------------------------------
 step_1401_chromophore_20 TDDFT with cam-b3lyp functional
 --------------------------------------------------------
 Symbolic Z-matrix:
 Charge =  0 Multiplicity = 1

                         Standard orientation:
 ---------------------------------------------------------------------
 Center     Atomic      Atomic             Coordinates (Angstroms)
 Number     Number       Type             X           Y           Z
 ---------------------------------------------------------------------
      1         12           0       -4.139903   -1.576107   -0.627907
      2          6           0       -4.438127    1.914560   -0.812203
      3          6           0       -1.887265   -1.457178   -3.006176
      4          6           0       -3.692608   -4.835085   -0.044863
      5          6           0       -6.339929   -1.538153    2.212117
      6          7           0       -3.088239    0.142490   -1.503137
      7          6           0       -3.339834    1.416909   -1.546200
      8          6           0       -2.292069    2.183347   -2.458673
      9          6           0       -1.895775    1.053101   -3.406017
     10          6           0       -2.336627   -0.202026   -2.570335
     11          6           0       -2.629257    1.059595   -4.818238
     12          6           0       -1.138277    2.752410   -1.637685
     13          6           0       -0.332199    3.736040   -2.417392
     14          6           0        0.212185    4.914425   -1.601359
     15          8           0       -0.487424    5.819607   -1.159248
     16          8           0        1.561421    4.772603   -1.299448
     17          7           0       -2.829138   -2.932012   -1.358921
     18          6           0       -1.979650   -2.753879   -2.435645
     19          6           0       -1.195830   -3.966893   -2.648249
     20          6           0       -1.702830   -4.953452   -1.756847
     21          6           0       -2.840922   -4.233757   -0.998630
     22          6           0       -0.101848   -3.955638   -3.685863
     23          6           0       -1.143504   -6.369005   -1.723423
     24          8           0       -0.215573   -6.728568   -2.436187
     25          6           0       -1.889661   -7.535047   -0.966753
     26          7           0       -4.843331   -2.985370    0.925918
     27          6           0       -4.599181   -4.275047    0.833417
     28          6           0       -5.368411   -5.066907    1.891246
     29          6           0       -5.888930   -3.975364    2.866860
     30          6           0       -5.687632   -2.754006    1.961439
     31          6           0       -6.344121   -6.106053    1.375475
     32          6           0       -5.095578   -3.849103    4.201307
     33          6           0       -5.868268   -3.279412    5.432267
     34          7           0       -5.223873   -0.086731    0.519359
     35          6           0       -6.179385   -0.228229    1.522084
     36          6           0       -6.699766    1.113641    1.811903
     37          6           0       -6.172598    1.919294    0.760784
     38          6           0       -5.173038    1.206227    0.136712
     39          6           0       -7.674650    1.478883    2.899447
     40          6           0       -6.150799    3.298327    0.301988
     41          8           0       -6.833457    4.311035    0.502865
     42          6           0       -5.030186    3.286495   -0.830997
     43          6           0       -4.109747    4.457388   -0.689724
     44          8           0       -3.290433    4.671753    0.169838
     45          8           0       -4.383804    5.241677   -1.765891
     46          6           0       -3.650280    6.502813   -1.933455
     47          6           0        2.097654    5.815870   -0.428479
     48          6           0        3.385014    5.210342    0.038076
     49          6           0        4.287671    5.673840    0.919836
     50          6           0        4.129854    7.016184    1.669999
     51          6           0        5.434663    4.810722    1.232032
     52          6           0        5.080122    3.404646    1.726287
     53          6           0        5.349426    3.084413    3.200256
     54          6           0        5.762485    1.554750    3.424187
     55          6           0        5.394072    1.013952    4.838342
     56          6           0        7.220490    1.347014    3.121102
     57          6           0        7.421959   -0.140078    2.797839
     58          6           0        7.289378   -0.538876    1.360148
     59          6           0        8.715418   -0.973997    0.720864
     60          6           0        8.730151   -0.521466   -0.767049
     61          6           0        8.940442   -2.478660    0.896365
     62          6           0       10.401670   -2.914952    0.753257
     63          6           0       10.713405   -3.611989   -0.599313
     64          6           0       12.042936   -3.022011   -1.187354
     65          6           0       11.848030   -2.583252   -2.673549
     66          6           0       13.210697   -4.034449   -1.180926
     67          1           0       -1.279919   -1.497611   -3.912658
     68          1           0       -3.709462   -5.908424    0.154698
     69          1           0       -7.067173   -1.424970    3.018290
     70          1           0       -3.012677    2.896590   -2.857432
     71          1           0       -0.823903    1.024590   -3.604921
     72          1           0       -2.989944    2.075445   -4.980591
     73          1           0       -3.459421    0.363446   -4.938161
     74          1           0       -1.850759    0.890437   -5.560962
     75          1           0       -0.569504    1.854235   -1.398223
     76          1           0       -1.597293    3.201440   -0.756805
     77          1           0       -0.844472    4.026346   -3.333888
     78          1           0        0.393776    3.139724   -2.969885
     79          1           0        0.803129   -3.492217   -3.293760
     80          1           0       -0.320567   -3.337525   -4.556339
     81          1           0        0.163473   -4.940577   -4.071947
     82          1           0       -1.817574   -7.205222    0.069512
     83          1           0       -1.411121   -8.514334   -0.978806
     84          1           0       -2.937400   -7.557393   -1.263721
     85          1           0       -4.594712   -5.559018    2.479838
     86          1           0       -6.946316   -4.155648    3.061183
     87          1           0       -6.309698   -6.136876    0.286592
     88          1           0       -7.376643   -5.913128    1.665667
     89          1           0       -6.088288   -7.073304    1.809582
     90          1           0       -4.159584   -3.323910    4.010313
     91          1           0       -4.802207   -4.859289    4.485306
     92          1           0       -5.303647   -2.533150    5.992250
     93          1           0       -6.012697   -3.965841    6.266871
     94          1           0       -6.843370   -2.878929    5.154476
     95          1           0       -7.167665    1.453301    3.863900
     96          1           0       -8.402923    0.670030    2.950637
     97          1           0       -8.227215    2.380767    2.635396
     98          1           0       -5.461861    3.298941   -1.831531
     99          1           0       -2.733149    6.270151   -2.474808
    100          1           0       -3.329349    7.132755   -1.102810
    101          1           0       -4.289304    7.187666   -2.489689
    102          1           0        1.466535    6.062060    0.426224
    103          1           0        2.328365    6.713513   -1.001217
    104          1           0        3.602539    4.207214   -0.328044
    105          1           0        3.209128    6.962433    2.250698
    106          1           0        4.114441    7.780851    0.893251
    107          1           0        4.935061    7.285324    2.353846
    108          1           0        6.066782    5.301597    1.972335
    109          1           0        6.053828    4.655200    0.348719
    110          1           0        5.720243    2.662480    1.248854
    111          1           0        4.011299    3.219062    1.620015
    112          1           0        4.457992    3.348428    3.770638
    113          1           0        6.194438    3.678948    3.548616
    114          1           0        5.189635    0.967710    2.706412
    115          1           0        5.185842    1.877233    5.470118
    116          1           0        6.167793    0.385896    5.281137
    117          1           0        4.546395    0.340224    4.706434
    118          1           0        8.025817    1.652105    3.789507
    119          1           0        7.446779    1.953763    2.244940
    120          1           0        6.662531   -0.782297    3.243332
    121          1           0        8.394296   -0.480910    3.152962
    122          1           0        6.897732    0.319302    0.813315
    123          1           0        6.555306   -1.339937    1.277773
    124          1           0        9.408553   -0.376048    1.313902
    125          1           0        9.378844    0.353480   -0.760960
    126          1           0        7.743955   -0.235977   -1.132945
    127          1           0        9.142277   -1.292648   -1.418014
    128          1           0        8.308417   -2.975672    0.159712
    129          1           0        8.491453   -2.762406    1.848201
    130          1           0       10.549647   -3.616701    1.574818
    131          1           0       10.991880   -2.030546    0.991502
    132          1           0        9.871574   -3.608746   -1.292730
    133          1           0       10.797377   -4.673987   -0.370420
    134          1           0       12.307408   -2.089357   -0.690583
    135          1           0       12.224498   -3.386364   -3.307690
    136          1           0       12.390371   -1.684202   -2.966845
    137          1           0       10.790657   -2.554739   -2.935723
    138          1           0       13.321732   -4.657481   -2.068646
    139          1           0       13.293380   -4.541259   -0.219264
    140          1           0       14.106079   -3.413609   -1.166269
 ---------------------------------------------------------------------

 SCF Done:  E(RCAM-B3LYP) =  -3007.16018064     A.U. after   17 cycles

 Excitation energies and oscillator strengths:

 Excited State   1:      Singlet-A      1.7485 eV  709.08 nm  f=0.3878  <S**2>=0.000
     245 -> 248        0.18340
     246 -> 247        0.68413
     245 <- 248        0.10624
 This state for optimization and/or second-order correction.
 Total Energy, E(TD-HF/TD-DFT) =  -3007.09592376
 Copying the excited state density for this state as the 1-particle RhoCI density.

 Excited State   2:      Singlet-A      2.2166 eV  559.34 nm  f=0.1239  <S**2>=0.000
     245 -> 247        0.64844
     246 -> 248       -0.26678

 Excited State   3:      Singlet-A      3.2821 eV  377.76 nm  f=0.0019  <S**2>=0.000
     242 -> 247       -0.12325
     243 -> 247        0.64763
     246 -> 248        0.14683

 Excited State   4:      Singlet-A      3.4723 eV  357.06 nm  f=0.0043  <S**2>=0.000
     240 -> 247        0.20394
     240 -> 249       -0.13553
     241 -> 247        0.49938
     241 -> 248        0.12083
     241 -> 249       -0.28797
     241 -> 251        0.20349

 Excited State   5:      Singlet-A      3.4873 eV  355.53 nm  f=0.0040  <S**2>=0.000
     242 -> 247        0.56529
     242 -> 249        0.25688
     242 -> 251        0.20542
     243 -> 247        0.17437

 The electronic state is 1-A.
 Alpha  occ. eigenvalues --  -46.89902 -19.25206 -19.24504 -19.20312 -19.19141
 Alpha  occ. eigenvalues --  -19.19068 -19.18663 -14.42789 -14.41718 -14.40694
 Alpha  occ. eigenvalues --  -14.38779 -10.39949 -10.38454 -10.35854 -10.34798
 Alpha  occ. eigenvalues --  -10.32345 -10.31834 -10.31737 -10.30772 -10.30731
 Alpha  occ. eigenvalues --  -10.30708 -10.30697 -10.30277 -10.29856 -10.29499
 Alpha  occ. eigenvalues --  -10.28812 -10.28607 -10.28124 -10.27957 -10.27911
 Alpha  occ. eigenvalues --  -10.27881 -10.27781 -10.27705 -10.27683 -10.27557
 Alpha  occ. eigenvalues --  -10.27235 -10.27046 -10.26962 -10.26957 -10.26718
 Alpha  occ. eigenvalues --  -10.26702 -10.26648 -10.26295 -10.26194 -10.26025
 Alpha  occ. eigenvalues --  -10.25883 -10.25836 -10.25818 -10.25769 -10.25519
 Alpha  occ. eigenvalues --  -10.25283 -10.24773 -10.24767 -10.24669 -10.24476
 Alpha  occ. eigenvalues --  -10.24466 -10.24449 -10.24419 -10.24317 -10.24280
 Alpha  occ. eigenvalues --  -10.24118 -10.24088 -10.23962 -10.23945 -10.23942
 Alpha  occ. eigenvalues --  -10.23691  -3.18347  -1.93233  -1.92809  -1.92643
 Alpha  occ. eigenvalues --   -1.16036  -1.15841  -1.10070  -1.08405  -1.07857
 Alpha  occ. eigenvalues --   -1.07669  -1.06330  -1.05314  -1.03583  -1.02633
 Alpha  occ. eigenvalues --   -0.92577  -0.90943  -0.90588  -0.89692  -0.89473
 Alpha  occ. eigenvalues --   -0.88987  -0.88561  -0.87721  -0.86837  -0.86799
 Alpha  occ. eigenvalues --   -0.85750  -0.85604  -0.84363  -0.83692  -0.83236
 Alpha  occ. eigenvalues --   -0.82454  -0.81906  -0.80902  -0.80645  -0.80396
 Alpha  occ. eigenvalues --   -0.79543  -0.78303  -0.77701  -0.77568  -0.75958
 Alpha  occ. eigenvalues --   -0.75891  -0.75566  -0.74943  -0.74628  -0.74144
 Alpha  occ. eigenvalues --   -0.72962  -0.72409  -0.71642  -0.70364  -0.69794
 Alpha  occ. eigenvalues --   -0.68429  -0.67800  -0.67654  -0.66500  -0.66339
 Alpha  occ. eigenvalues --   -0.66237  -0.65088  -0.64847  -0.64533  -0.64234
 Alpha  occ. eigenvalues --   -0.64020  -0.63212  -0.61896  -0.61713  -0.60783
 Alpha  occ. eigenvalues --   -0.60247  -0.59689  -0.59009  -0.58684  -0.57679
 Alpha  occ. eigenvalues --   -0.57252  -0.56830  -0.56587  -0.55959  -0.55660
 Alpha  occ. eigenvalues --   -0.55178  -0.54660  -0.54286  -0.54186  -0.53877
 Alpha  occ. eigenvalues --   -0.53617  -0.53426  -0.53248  -0.52876  -0.52585
 Alpha  occ. eigenvalues --   -0.52195  -0.52139  -0.51866  -0.51808  -0.51602
 Alpha  occ. eigenvalues --   -0.51028  -0.50709  -0.50553  -0.50537  -0.50440
 Alpha  occ. eigenvalues --   -0.50215  -0.50126  -0.49931  -0.49673  -0.49423
 Alpha  occ. eigenvalues --   -0.49389  -0.49234  -0.48883  -0.48793  -0.48591
 Alpha  occ. eigenvalues --   -0.48394  -0.48232  -0.48143  -0.47995  -0.47787
 Alpha  occ. eigenvalues --   -0.47342  -0.47114  -0.46998  -0.46797  -0.46618
 Alpha  occ. eigenvalues --   -0.46481  -0.46406  -0.46342  -0.46072  -0.45893
 Alpha  occ. eigenvalues --   -0.45693  -0.45293  -0.45215  -0.45062  -0.45011
 Alpha  occ. eigenvalues --   -0.44836  -0.44711  -0.44560  -0.44276  -0.44162
 Alpha  occ. eigenvalues --   -0.43901  -0.43860  -0.43529  -0.43350  -0.43134
 Alpha  occ. eigenvalues --   -0.43065  -0.43001  -0.42324  -0.41972  -0.41701
 Alpha  occ. eigenvalues --   -0.41664  -0.41515  -0.41401  -0.41084  -0.40830
 Alpha  occ. eigenvalues --   -0.40753  -0.40691  -0.40460  -0.40291  -0.40130
 Alpha  occ. eigenvalues --   -0.39967  -0.39329  -0.39203  -0.38771  -0.38753
 Alpha  occ. eigenvalues --   -0.38623  -0.37983  -0.37922  -0.37601  -0.37234
 Alpha  occ. eigenvalues --   -0.37140  -0.37069  -0.36707  -0.36637  -0.36200
 Alpha  occ. eigenvalues --   -0.36164  -0.35614  -0.35166  -0.34364  -0.34249
 Alpha  occ. eigenvalues --   -0.33931  -0.33345  -0.32909  -0.31558  -0.30904
 Alpha  occ. eigenvalues --   -0.30735  -0.30423  -0.29060  -0.28844  -0.24078
 Alpha  occ. eigenvalues --   -0.21505
 Alpha virt. eigenvalues --   -0.08848  -0.01726   0.00135   0.01229   0.02251
 Alpha virt. eigenvalues --    0.04276   0.05325   0.05977   0.06193   0.06598
 Alpha virt. eigenvalues --    0.07722   0.08237   0.09096   0.09303   0.09507

 Mulliken charges:
               1
     1  Mg   0.810270
     2  C   -0.028227
     3  C   -0.060007
     4  C   -0.084058
     5  C   -0.051229
     6  N   -0.217740
     7  C   -0.116178
     8  C   -0.024376
     9  C   -0.098519
    10  C    0.074168
    11  C    0.069371
    12  C    0.081548
    13  C    0.104059
    14  C    0.203533
    15  O   -0.228895
    16  O   -0.343207
    17  N   -0.406145
    18  C    0.097626
    19  C   -0.081158
    20  C   -0.071710
    21  C    0.227591
    22  C    0.104293
    23  C    0.001572
    24  O   -0.198789
    25  C    0.038098
    26  N   -0.238565
    27  C   -0.031839
    28  C   -0.038894
    29  C   -0.050562
    30  C    0.063954
    31  C    0.096644
    32  C    0.065874
    33  C    0.003974
    34  N   -0.317661
    35  C    0.045378
    36  C   -0.162521
    37  C   -0.038131
    38  C    0.098995
    39  C    0.128051
    40  C    0.106833
    41  O   -0.184015
    42  C   -0.039261
    43  C    0.197391
    44  O   -0.192557
    45  O   -0.331857
    46  C    0.181841
    47  C    0.323573
    48  C   -0.172832
    49  C   -0.208307
    50  C    0.078979
    51  C    0.139420
    52  C   -0.009627
    53  C    0.045228
    54  C   -0.158129
    55  C    0.070574
    56  C    0.077216
    57  C    0.003834
    58  C    0.036027
    59  C   -0.159085
    60  C    0.065093
    61  C    0.036301
    62  C    0.044454
    63  C    0.065871
    64  C   -0.144617
    65  C    0.030116
    66  C    0.052069
    67  H   -0.033645
    68  H   -0.050872
    69  H   -0.035295
    70  H   -0.000102
    71  H    0.008961
    72  H    0.015219
    73  H    0.031973
    74  H    0.017674
    75  H    0.011027
    76  H    0.053653
    77  H    0.013476
    78  H   -0.003736
    79  H    0.028343
    80  H    0.012381
    81  H    0.040786
    82  H    0.023077
    83  H    0.028375
    84  H    0.047436
    85  H    0.002608
    86  H   -0.003142
    87  H    0.020253
    88  H    0.014655
    89  H    0.019505
    90  H    0.016277
    91  H    0.003862
    92  H    0.013152
    93  H    0.007761
    94  H    0.018403
    95  H    0.031469
    96  H    0.010734
    97  H    0.041682
    98  H    0.048017
    99  H    0.026937
   100  H    0.045823
   101  H    0.025895
   102  H    0.044564
   103  H    0.027155
   104  H    0.009333
   105  H    0.033718
   106  H    0.026665
   107  H    0.010231
   108  H   -0.019218
   109  H    0.009156
   110  H   -0.004155
   111  H    0.014669
   112  H   -0.008358
   113  H   -0.013079
   114  H   -0.003015
   115  H    0.012784
   116  H    0.008016
   117  H    0.004267
   118  H   -0.008417
   119  H   -0.027022
   120  H   -0.010495
   121  H   -0.009355
   122  H   -0.016018
   123  H   -0.010569
   124  H   -0.006846
   125  H    0.004114
   126  H    0.012856
   127  H   -0.000421
   128  H   -0.012668
   129  H   -0.017688
   130  H   -0.005340
   131  H   -0.001467
   132  H   -0.001132
   133  H   -0.009317
   134  H    0.007467
   135  H   -0.011909
   136  H    0.014763
   137  H    0.004494
   138  H    0.021526
   139  H    0.004272
   140  H   -0.007308
 Sum of Mulliken charges =  -0.00000

 Dipole moment (field-independent basis, Debye):
    X=              0.7995    Y=             -3.5475    Z=             -0.8410  Tot=              3.7325
 Quadrupole moment (field-independent basis, Debye-Ang):
   XX=           -401.1588   YY=           -416.4187   ZZ=           -385.1882
   XY=             57.0753   XZ=              3.3083   YZ=            -28.9494

 Normal termination of Gaussian 16 at Wed May  4 05:17:33 2022.
