 Gaussian 16, Revision A.03,
 Gaussian 16:  ES64L-G16RevA.03 25-Dec-2016

 ---------------------------------
 #p PBE1PBE/Def2SVP td=(nstates=5)
 ---------------------------------

 ------------------------------------------------------
 step_1401_chromophore_20 TDDFT with PBE1PBE functional
 ------------------------------------------------------
 Symbolic Z-matrix:
 Charge =  0 Multiplicity = 1

                         Standard orientation:
 ---------------------------------------------------------------------
 Center     Atomic      Atomic             Coordinates (Angstroms)
 Number     Number       Type             X           Y           Z
 ---------------------------------------------------------------------
      1         12           0       -4.139903   -1.576107   -0.627907
      2          6           0       -4.438127    1.914560   -0.812203
      3          6           0       -1.887265   -1.457178   -3.006176
      4          6           0       -3.692608   -4.835085   -0.044863
      5          6           0       -6.339929   -1.538153    2.212117
      6          7           0       -3.088239    0.142490   -1.503137
      7          6           0       -3.339834    1.416909   -1.546200
      8          6           0       -2.292069    2.183347   -2.458673
      9          6           0       -1.895775    1.053101   -3.406017
     10          6           0       -2.336627   -0.202026   -2.570335
     11          6           0       -2.629257    1.059595   -4.818238
     12          6           0       -1.138277    2.752410   -1.637685
     13          6           0       -0.332199    3.736040   -2.417392
     14          6           0        0.212185    4.914425   -1.601359
     15          8           0       -0.487424    5.819607   -1.159248
     16          8           0        1.561421    4.772603   -1.299448
     17          7           0       -2.829138   -2.932012   -1.358921
     18          6           0       -1.979650   -2.753879   -2.435645
     19          6           0       -1.195830   -3.966893   -2.648249
     20          6           0       -1.702830   -4.953452   -1.756847
     21          6           0       -2.840922   -4.233757   -0.998630
     22          6           0       -0.101848   -3.955638   -3.685863
     23          6           0       -1.143504   -6.369005   -1.723423
     24          8           0       -0.215573   -6.728568   -2.436187
     25          6           0       -1.889661   -7.535047   -0.966753
     26          7           0       -4.843331   -2.985370    0.925918
     27          6           0       -4.599181   -4.275047    0.833417
     28          6           0       -5.368411   -5.066907    1.891246
     29          6           0       -5.888930   -3.975364    2.866860
     30          6           0       -5.687632   -2.754006    1.961439
     31          6           0       -6.344121   -6.106053    1.375475
     32          6           0       -5.095578   -3.849103    4.201307
     33          6           0       -5.868268   -3.279412    5.432267
     34          7           0       -5.223873   -0.086731    0.519359
     35          6           0       -6.179385   -0.228229    1.522084
     36          6           0       -6.699766    1.113641    1.811903
     37          6           0       -6.172598    1.919294    0.760784
     38          6           0       -5.173038    1.206227    0.136712
     39          6           0       -7.674650    1.478883    2.899447
     40          6           0       -6.150799    3.298327    0.301988
     41          8           0       -6.833457    4.311035    0.502865
     42          6           0       -5.030186    3.286495   -0.830997
     43          6           0       -4.109747    4.457388   -0.689724
     44          8           0       -3.290433    4.671753    0.169838
     45          8           0       -4.383804    5.241677   -1.765891
     46          6           0       -3.650280    6.502813   -1.933455
     47          6           0        2.097654    5.815870   -0.428479
     48          6           0        3.385014    5.210342    0.038076
     49          6           0        4.287671    5.673840    0.919836
     50          6           0        4.129854    7.016184    1.669999
     51          6           0        5.434663    4.810722    1.232032
     52          6           0        5.080122    3.404646    1.726287
     53          6           0        5.349426    3.084413    3.200256
     54          6           0        5.762485    1.554750    3.424187
     55          6           0        5.394072    1.013952    4.838342
     56          6           0        7.220490    1.347014    3.121102
     57          6           0        7.421959   -0.140078    2.797839
     58          6           0        7.289378   -0.538876    1.360148
     59          6           0        8.715418   -0.973997    0.720864
     60          6           0        8.730151   -0.521466   -0.767049
     61          6           0        8.940442   -2.478660    0.896365
     62          6           0       10.401670   -2.914952    0.753257
     63          6           0       10.713405   -3.611989   -0.599313
     64          6           0       12.042936   -3.022011   -1.187354
     65          6           0       11.848030   -2.583252   -2.673549
     66          6           0       13.210697   -4.034449   -1.180926
     67          1           0       -1.279919   -1.497611   -3.912658
     68          1           0       -3.709462   -5.908424    0.154698
     69          1           0       -7.067173   -1.424970    3.018290
     70          1           0       -3.012677    2.896590   -2.857432
     71          1           0       -0.823903    1.024590   -3.604921
     72          1           0       -2.989944    2.075445   -4.980591
     73          1           0       -3.459421    0.363446   -4.938161
     74          1           0       -1.850759    0.890437   -5.560962
     75          1           0       -0.569504    1.854235   -1.398223
     76          1           0       -1.597293    3.201440   -0.756805
     77          1           0       -0.844472    4.026346   -3.333888
     78          1           0        0.393776    3.139724   -2.969885
     79          1           0        0.803129   -3.492217   -3.293760
     80          1           0       -0.320567   -3.337525   -4.556339
     81          1           0        0.163473   -4.940577   -4.071947
     82          1           0       -1.817574   -7.205222    0.069512
     83          1           0       -1.411121   -8.514334   -0.978806
     84          1           0       -2.937400   -7.557393   -1.263721
     85          1           0       -4.594712   -5.559018    2.479838
     86          1           0       -6.946316   -4.155648    3.061183
     87          1           0       -6.309698   -6.136876    0.286592
     88          1           0       -7.376643   -5.913128    1.665667
     89          1           0       -6.088288   -7.073304    1.809582
     90          1           0       -4.159584   -3.323910    4.010313
     91          1           0       -4.802207   -4.859289    4.485306
     92          1           0       -5.303647   -2.533150    5.992250
     93          1           0       -6.012697   -3.965841    6.266871
     94          1           0       -6.843370   -2.878929    5.154476
     95          1           0       -7.167665    1.453301    3.863900
     96          1           0       -8.402923    0.670030    2.950637
     97          1           0       -8.227215    2.380767    2.635396
     98          1           0       -5.461861    3.298941   -1.831531
     99          1           0       -2.733149    6.270151   -2.474808
    100          1           0       -3.329349    7.132755   -1.102810
    101          1           0       -4.289304    7.187666   -2.489689
    102          1           0        1.466535    6.062060    0.426224
    103          1           0        2.328365    6.713513   -1.001217
    104          1           0        3.602539    4.207214   -0.328044
    105          1           0        3.209128    6.962433    2.250698
    106          1           0        4.114441    7.780851    0.893251
    107          1           0        4.935061    7.285324    2.353846
    108          1           0        6.066782    5.301597    1.972335
    109          1           0        6.053828    4.655200    0.348719
    110          1           0        5.720243    2.662480    1.248854
    111          1           0        4.011299    3.219062    1.620015
    112          1           0        4.457992    3.348428    3.770638
    113          1           0        6.194438    3.678948    3.548616
    114          1           0        5.189635    0.967710    2.706412
    115          1           0        5.185842    1.877233    5.470118
    116          1           0        6.167793    0.385896    5.281137
    117          1           0        4.546395    0.340224    4.706434
    118          1           0        8.025817    1.652105    3.789507
    119          1           0        7.446779    1.953763    2.244940
    120          1           0        6.662531   -0.782297    3.243332
    121          1           0        8.394296   -0.480910    3.152962
    122          1           0        6.897732    0.319302    0.813315
    123          1           0        6.555306   -1.339937    1.277773
    124          1           0        9.408553   -0.376048    1.313902
    125          1           0        9.378844    0.353480   -0.760960
    126          1           0        7.743955   -0.235977   -1.132945
    127          1           0        9.142277   -1.292648   -1.418014
    128          1           0        8.308417   -2.975672    0.159712
    129          1           0        8.491453   -2.762406    1.848201
    130          1           0       10.549647   -3.616701    1.574818
    131          1           0       10.991880   -2.030546    0.991502
    132          1           0        9.871574   -3.608746   -1.292730
    133          1           0       10.797377   -4.673987   -0.370420
    134          1           0       12.307408   -2.089357   -0.690583
    135          1           0       12.224498   -3.386364   -3.307690
    136          1           0       12.390371   -1.684202   -2.966845
    137          1           0       10.790657   -2.554739   -2.935723
    138          1           0       13.321732   -4.657481   -2.068646
    139          1           0       13.293380   -4.541259   -0.219264
    140          1           0       14.106079   -3.413609   -1.166269
 ---------------------------------------------------------------------

 SCF Done:  E(RPBE1PBE) =  -3005.34943131     A.U. after   15 cycles

 Excitation energies and oscillator strengths:

 Excited State   1:      Singlet-A      1.8928 eV  655.02 nm  f=0.3758  <S**2>=0.000
     245 -> 248        0.17793
     246 -> 247        0.69034
     246 <- 247       -0.10450
 This state for optimization and/or second-order correction.
 Total Energy, E(TD-HF/TD-DFT) =  -3005.27987065
 Copying the excited state density for this state as the 1-particle RhoCI density.

 Excited State   2:      Singlet-A      2.2013 eV  563.24 nm  f=0.1174  <S**2>=0.000
     245 -> 247        0.65961
     246 -> 248       -0.23246

 Excited State   3:      Singlet-A      2.8710 eV  431.86 nm  f=0.0032  <S**2>=0.000
     241 -> 247        0.32050
     241 -> 249        0.11174
     243 -> 247        0.59674

 Excited State   4:      Singlet-A      2.9576 eV  419.20 nm  f=0.0001  <S**2>=0.000
     241 -> 247       -0.10013
     242 -> 247        0.66064
     242 -> 249       -0.16485
     242 -> 250        0.10792

 Excited State   5:      Singlet-A      3.0291 eV  409.30 nm  f=0.0055  <S**2>=0.000
     241 -> 247        0.59054
     243 -> 247       -0.33768

 The electronic state is 1-A.
 Alpha  occ. eigenvalues --  -46.93271 -19.25928 -19.25207 -19.20583 -19.19367
 Alpha  occ. eigenvalues --  -19.19146 -19.19034 -14.42151 -14.41268 -14.40233
 Alpha  occ. eigenvalues --  -14.38553 -10.37002 -10.35465 -10.32886 -10.32064
 Alpha  occ. eigenvalues --  -10.29780 -10.29456 -10.29141 -10.28607 -10.28575
 Alpha  occ. eigenvalues --  -10.28297 -10.28190 -10.27863 -10.27530 -10.26900
 Alpha  occ. eigenvalues --  -10.26578 -10.26170 -10.25945 -10.25940 -10.25797
 Alpha  occ. eigenvalues --  -10.25733 -10.25467 -10.25449 -10.25266 -10.25045
 Alpha  occ. eigenvalues --  -10.25032 -10.24734 -10.24635 -10.24405 -10.24378
 Alpha  occ. eigenvalues --  -10.24311 -10.24086 -10.23690 -10.23496 -10.23478
 Alpha  occ. eigenvalues --  -10.23441 -10.23428 -10.23374 -10.23224 -10.23202
 Alpha  occ. eigenvalues --  -10.22988 -10.22677 -10.22318 -10.22231 -10.22048
 Alpha  occ. eigenvalues --  -10.22036 -10.21989 -10.21979 -10.21866 -10.21658
 Alpha  occ. eigenvalues --  -10.21614 -10.21514 -10.21502 -10.21355 -10.21299
 Alpha  occ. eigenvalues --  -10.21231  -3.15301  -1.88127  -1.87679  -1.87519
 Alpha  occ. eigenvalues --   -1.10853  -1.10639  -1.04674  -1.03260  -1.02732
 Alpha  occ. eigenvalues --   -1.02522  -1.00930  -0.99953  -0.98108  -0.97478
 Alpha  occ. eigenvalues --   -0.87028  -0.85151  -0.84724  -0.83799  -0.83770
 Alpha  occ. eigenvalues --   -0.83263  -0.82644  -0.82026  -0.80966  -0.80919
 Alpha  occ. eigenvalues --   -0.80105  -0.79936  -0.78545  -0.77949  -0.77572
 Alpha  occ. eigenvalues --   -0.76657  -0.76138  -0.75081  -0.74984  -0.74601
 Alpha  occ. eigenvalues --   -0.73686  -0.72578  -0.72004  -0.71730  -0.70266
 Alpha  occ. eigenvalues --   -0.70090  -0.69935  -0.69014  -0.68721  -0.68306
 Alpha  occ. eigenvalues --   -0.67438  -0.66758  -0.66077  -0.64653  -0.64191
 Alpha  occ. eigenvalues --   -0.62899  -0.62117  -0.61979  -0.60881  -0.60684
 Alpha  occ. eigenvalues --   -0.60584  -0.59647  -0.59094  -0.58993  -0.58729
 Alpha  occ. eigenvalues --   -0.58107  -0.57381  -0.56328  -0.56073  -0.55208
 Alpha  occ. eigenvalues --   -0.54736  -0.54314  -0.53571  -0.53268  -0.52316
 Alpha  occ. eigenvalues --   -0.51716  -0.51339  -0.51118  -0.50341  -0.50226
 Alpha  occ. eigenvalues --   -0.49753  -0.49142  -0.48851  -0.48718  -0.48451
 Alpha  occ. eigenvalues --   -0.48034  -0.47956  -0.47894  -0.47296  -0.47155
 Alpha  occ. eigenvalues --   -0.46741  -0.46648  -0.46465  -0.46294  -0.45881
 Alpha  occ. eigenvalues --   -0.45549  -0.45293  -0.45140  -0.45092  -0.44952
 Alpha  occ. eigenvalues --   -0.44814  -0.44731  -0.44449  -0.44193  -0.43978
 Alpha  occ. eigenvalues --   -0.43969  -0.43843  -0.43440  -0.43424  -0.43156
 Alpha  occ. eigenvalues --   -0.42991  -0.42827  -0.42775  -0.42620  -0.42467
 Alpha  occ. eigenvalues --   -0.42061  -0.41710  -0.41598  -0.41394  -0.41259
 Alpha  occ. eigenvalues --   -0.41092  -0.41080  -0.41019  -0.40751  -0.40710
 Alpha  occ. eigenvalues --   -0.40257  -0.40011  -0.39902  -0.39809  -0.39712
 Alpha  occ. eigenvalues --   -0.39535  -0.39450  -0.39344  -0.39160  -0.38957
 Alpha  occ. eigenvalues --   -0.38664  -0.38514  -0.38326  -0.38098  -0.37923
 Alpha  occ. eigenvalues --   -0.37834  -0.37815  -0.37012  -0.36770  -0.36603
 Alpha  occ. eigenvalues --   -0.36412  -0.36361  -0.36335  -0.36003  -0.35600
 Alpha  occ. eigenvalues --   -0.35543  -0.35465  -0.35308  -0.35039  -0.34985
 Alpha  occ. eigenvalues --   -0.34682  -0.34254  -0.34028  -0.33731  -0.33489
 Alpha  occ. eigenvalues --   -0.33342  -0.32906  -0.32731  -0.32419  -0.32201
 Alpha  occ. eigenvalues --   -0.32059  -0.32020  -0.31770  -0.31540  -0.31117
 Alpha  occ. eigenvalues --   -0.31036  -0.30489  -0.30003  -0.29499  -0.29352
 Alpha  occ. eigenvalues --   -0.28967  -0.28308  -0.28291  -0.27091  -0.26332
 Alpha  occ. eigenvalues --   -0.25487  -0.25408  -0.24849  -0.24125  -0.20994
 Alpha  occ. eigenvalues --   -0.19100
 Alpha virt. eigenvalues --   -0.11335  -0.05252  -0.04005  -0.02179  -0.01525
 Alpha virt. eigenvalues --   -0.00337   0.01006   0.01570   0.01671   0.02948
 Alpha virt. eigenvalues --    0.04043   0.04114   0.05344   0.05962   0.06282

 Mulliken charges:
               1
     1  Mg   0.952757
     2  C   -0.050560
     3  C   -0.057802
     4  C   -0.074870
     5  C   -0.047165
     6  N   -0.320172
     7  C   -0.022404
     8  C   -0.099274
     9  C   -0.172829
    10  C    0.098163
    11  C    0.016177
    12  C    0.027138
    13  C    0.035974
    14  C    0.262255
    15  O   -0.260144
    16  O   -0.374662
    17  N   -0.519159
    18  C    0.123163
    19  C   -0.109419
    20  C   -0.113461
    21  C    0.248628
    22  C    0.051083
    23  C    0.051521
    24  O   -0.234238
    25  C   -0.039554
    26  N   -0.342368
    27  C    0.009836
    28  C   -0.118089
    29  C   -0.124661
    30  C    0.094175
    31  C    0.038331
    32  C    0.006477
    33  C   -0.065546
    34  N   -0.439201
    35  C    0.083963
    36  C   -0.186112
    37  C   -0.073721
    38  C    0.149931
    39  C    0.069326
    40  C    0.191907
    41  O   -0.229205
    42  C   -0.141806
    43  C    0.285678
    44  O   -0.231493
    45  O   -0.365116
    46  C    0.125934
    47  C    0.285797
    48  C   -0.184600
    49  C   -0.253277
    50  C    0.016535
    51  C    0.079759
    52  C   -0.084786
    53  C   -0.005362
    54  C   -0.249391
    55  C    0.012990
    56  C    0.023706
    57  C   -0.061881
    58  C   -0.015111
    59  C   -0.245492
    60  C    0.002290
    61  C   -0.017391
    62  C   -0.018670
    63  C    0.013995
    64  C   -0.238880
    65  C   -0.027258
    66  C   -0.011540
    67  H   -0.002414
    68  H   -0.016400
    69  H   -0.001180
    70  H    0.039973
    71  H    0.044344
    72  H    0.042509
    73  H    0.058599
    74  H    0.044634
    75  H    0.045577
    76  H    0.089084
    77  H    0.044358
    78  H    0.028704
    79  H    0.055738
    80  H    0.038219
    81  H    0.067159
    82  H    0.049879
    83  H    0.055495
    84  H    0.072750
    85  H    0.041039
    86  H    0.033336
    87  H    0.047650
    88  H    0.041450
    89  H    0.046475
    90  H    0.048426
    91  H    0.037998
    92  H    0.040908
    93  H    0.035586
    94  H    0.044552
    95  H    0.060511
    96  H    0.039319
    97  H    0.069572
    98  H    0.085861
    99  H    0.051490
   100  H    0.066719
   101  H    0.048100
   102  H    0.070015
   103  H    0.054445
   104  H    0.040117
   105  H    0.060473
   106  H    0.054064
   107  H    0.036409
   108  H    0.013024
   109  H    0.042649
   110  H    0.032057
   111  H    0.048242
   112  H    0.024679
   113  H    0.020314
   114  H    0.036865
   115  H    0.040300
   116  H    0.035197
   117  H    0.031962
   118  H    0.023175
   119  H    0.007292
   120  H    0.023106
   121  H    0.023187
   122  H    0.019186
   123  H    0.021660
   124  H    0.030453
   125  H    0.031871
   126  H    0.039219
   127  H    0.032225
   128  H    0.020897
   129  H    0.015773
   130  H    0.028165
   131  H    0.029457
   132  H    0.027424
   133  H    0.023659
   134  H    0.043895
   135  H    0.016111
   136  H    0.041970
   137  H    0.030859
   138  H    0.047551
   139  H    0.032993
   140  H    0.022221
 Sum of Mulliken charges =  -0.00000

 Dipole moment (field-independent basis, Debye):
    X=              0.5350    Y=             -3.3188    Z=             -0.5298  Tot=              3.4031
 Quadrupole moment (field-independent basis, Debye-Ang):
   XX=           -395.5128   YY=           -414.2239   ZZ=           -381.3840
   XY=             56.9595   XZ=              1.4272   YZ=            -30.1084

 Normal termination of Gaussian 16 at Wed May  4 05:34:14 2022.
