 Gaussian 16, Revision A.03,
 Gaussian 16:  ES64L-G16RevA.03 25-Dec-2016

 --------------------------------
 #p wB97XD/Def2SVP td=(nstates=5)
 --------------------------------

 -----------------------------------------------------
 step_1401_chromophore_20 TDDFT with wB97XD functional
 -----------------------------------------------------
 Symbolic Z-matrix:
 Charge =  0 Multiplicity = 1

                         Standard orientation:
 ---------------------------------------------------------------------
 Center     Atomic      Atomic             Coordinates (Angstroms)
 Number     Number       Type             X           Y           Z
 ---------------------------------------------------------------------
      1         12           0       -4.139903   -1.576107   -0.627907
      2          6           0       -4.438127    1.914560   -0.812203
      3          6           0       -1.887265   -1.457178   -3.006176
      4          6           0       -3.692608   -4.835085   -0.044863
      5          6           0       -6.339929   -1.538153    2.212117
      6          7           0       -3.088239    0.142490   -1.503137
      7          6           0       -3.339834    1.416909   -1.546200
      8          6           0       -2.292069    2.183347   -2.458673
      9          6           0       -1.895775    1.053101   -3.406017
     10          6           0       -2.336627   -0.202026   -2.570335
     11          6           0       -2.629257    1.059595   -4.818238
     12          6           0       -1.138277    2.752410   -1.637685
     13          6           0       -0.332199    3.736040   -2.417392
     14          6           0        0.212185    4.914425   -1.601359
     15          8           0       -0.487424    5.819607   -1.159248
     16          8           0        1.561421    4.772603   -1.299448
     17          7           0       -2.829138   -2.932012   -1.358921
     18          6           0       -1.979650   -2.753879   -2.435645
     19          6           0       -1.195830   -3.966893   -2.648249
     20          6           0       -1.702830   -4.953452   -1.756847
     21          6           0       -2.840922   -4.233757   -0.998630
     22          6           0       -0.101848   -3.955638   -3.685863
     23          6           0       -1.143504   -6.369005   -1.723423
     24          8           0       -0.215573   -6.728568   -2.436187
     25          6           0       -1.889661   -7.535047   -0.966753
     26          7           0       -4.843331   -2.985370    0.925918
     27          6           0       -4.599181   -4.275047    0.833417
     28          6           0       -5.368411   -5.066907    1.891246
     29          6           0       -5.888930   -3.975364    2.866860
     30          6           0       -5.687632   -2.754006    1.961439
     31          6           0       -6.344121   -6.106053    1.375475
     32          6           0       -5.095578   -3.849103    4.201307
     33          6           0       -5.868268   -3.279412    5.432267
     34          7           0       -5.223873   -0.086731    0.519359
     35          6           0       -6.179385   -0.228229    1.522084
     36          6           0       -6.699766    1.113641    1.811903
     37          6           0       -6.172598    1.919294    0.760784
     38          6           0       -5.173038    1.206227    0.136712
     39          6           0       -7.674650    1.478883    2.899447
     40          6           0       -6.150799    3.298327    0.301988
     41          8           0       -6.833457    4.311035    0.502865
     42          6           0       -5.030186    3.286495   -0.830997
     43          6           0       -4.109747    4.457388   -0.689724
     44          8           0       -3.290433    4.671753    0.169838
     45          8           0       -4.383804    5.241677   -1.765891
     46          6           0       -3.650280    6.502813   -1.933455
     47          6           0        2.097654    5.815870   -0.428479
     48          6           0        3.385014    5.210342    0.038076
     49          6           0        4.287671    5.673840    0.919836
     50          6           0        4.129854    7.016184    1.669999
     51          6           0        5.434663    4.810722    1.232032
     52          6           0        5.080122    3.404646    1.726287
     53          6           0        5.349426    3.084413    3.200256
     54          6           0        5.762485    1.554750    3.424187
     55          6           0        5.394072    1.013952    4.838342
     56          6           0        7.220490    1.347014    3.121102
     57          6           0        7.421959   -0.140078    2.797839
     58          6           0        7.289378   -0.538876    1.360148
     59          6           0        8.715418   -0.973997    0.720864
     60          6           0        8.730151   -0.521466   -0.767049
     61          6           0        8.940442   -2.478660    0.896365
     62          6           0       10.401670   -2.914952    0.753257
     63          6           0       10.713405   -3.611989   -0.599313
     64          6           0       12.042936   -3.022011   -1.187354
     65          6           0       11.848030   -2.583252   -2.673549
     66          6           0       13.210697   -4.034449   -1.180926
     67          1           0       -1.279919   -1.497611   -3.912658
     68          1           0       -3.709462   -5.908424    0.154698
     69          1           0       -7.067173   -1.424970    3.018290
     70          1           0       -3.012677    2.896590   -2.857432
     71          1           0       -0.823903    1.024590   -3.604921
     72          1           0       -2.989944    2.075445   -4.980591
     73          1           0       -3.459421    0.363446   -4.938161
     74          1           0       -1.850759    0.890437   -5.560962
     75          1           0       -0.569504    1.854235   -1.398223
     76          1           0       -1.597293    3.201440   -0.756805
     77          1           0       -0.844472    4.026346   -3.333888
     78          1           0        0.393776    3.139724   -2.969885
     79          1           0        0.803129   -3.492217   -3.293760
     80          1           0       -0.320567   -3.337525   -4.556339
     81          1           0        0.163473   -4.940577   -4.071947
     82          1           0       -1.817574   -7.205222    0.069512
     83          1           0       -1.411121   -8.514334   -0.978806
     84          1           0       -2.937400   -7.557393   -1.263721
     85          1           0       -4.594712   -5.559018    2.479838
     86          1           0       -6.946316   -4.155648    3.061183
     87          1           0       -6.309698   -6.136876    0.286592
     88          1           0       -7.376643   -5.913128    1.665667
     89          1           0       -6.088288   -7.073304    1.809582
     90          1           0       -4.159584   -3.323910    4.010313
     91          1           0       -4.802207   -4.859289    4.485306
     92          1           0       -5.303647   -2.533150    5.992250
     93          1           0       -6.012697   -3.965841    6.266871
     94          1           0       -6.843370   -2.878929    5.154476
     95          1           0       -7.167665    1.453301    3.863900
     96          1           0       -8.402923    0.670030    2.950637
     97          1           0       -8.227215    2.380767    2.635396
     98          1           0       -5.461861    3.298941   -1.831531
     99          1           0       -2.733149    6.270151   -2.474808
    100          1           0       -3.329349    7.132755   -1.102810
    101          1           0       -4.289304    7.187666   -2.489689
    102          1           0        1.466535    6.062060    0.426224
    103          1           0        2.328365    6.713513   -1.001217
    104          1           0        3.602539    4.207214   -0.328044
    105          1           0        3.209128    6.962433    2.250698
    106          1           0        4.114441    7.780851    0.893251
    107          1           0        4.935061    7.285324    2.353846
    108          1           0        6.066782    5.301597    1.972335
    109          1           0        6.053828    4.655200    0.348719
    110          1           0        5.720243    2.662480    1.248854
    111          1           0        4.011299    3.219062    1.620015
    112          1           0        4.457992    3.348428    3.770638
    113          1           0        6.194438    3.678948    3.548616
    114          1           0        5.189635    0.967710    2.706412
    115          1           0        5.185842    1.877233    5.470118
    116          1           0        6.167793    0.385896    5.281137
    117          1           0        4.546395    0.340224    4.706434
    118          1           0        8.025817    1.652105    3.789507
    119          1           0        7.446779    1.953763    2.244940
    120          1           0        6.662531   -0.782297    3.243332
    121          1           0        8.394296   -0.480910    3.152962
    122          1           0        6.897732    0.319302    0.813315
    123          1           0        6.555306   -1.339937    1.277773
    124          1           0        9.408553   -0.376048    1.313902
    125          1           0        9.378844    0.353480   -0.760960
    126          1           0        7.743955   -0.235977   -1.132945
    127          1           0        9.142277   -1.292648   -1.418014
    128          1           0        8.308417   -2.975672    0.159712
    129          1           0        8.491453   -2.762406    1.848201
    130          1           0       10.549647   -3.616701    1.574818
    131          1           0       10.991880   -2.030546    0.991502
    132          1           0        9.871574   -3.608746   -1.292730
    133          1           0       10.797377   -4.673987   -0.370420
    134          1           0       12.307408   -2.089357   -0.690583
    135          1           0       12.224498   -3.386364   -3.307690
    136          1           0       12.390371   -1.684202   -2.966845
    137          1           0       10.790657   -2.554739   -2.935723
    138          1           0       13.321732   -4.657481   -2.068646
    139          1           0       13.293380   -4.541259   -0.219264
    140          1           0       14.106079   -3.413609   -1.166269
 ---------------------------------------------------------------------

 SCF Done:  E(RwB97XD) =  -3007.85898527     A.U. after   18 cycles

 Excitation energies and oscillator strengths:

 Excited State   1:      Singlet-A      1.6976 eV  730.36 nm  f=0.3867  <S**2>=0.000
     245 -> 248        0.18811
     246 -> 247        0.68219
     245 <- 248        0.11477
 This state for optimization and/or second-order correction.
 Total Energy, E(TD-HF/TD-DFT) =  -3007.79660066
 Copying the excited state density for this state as the 1-particle RhoCI density.

 Excited State   2:      Singlet-A      2.1669 eV  572.17 nm  f=0.1200  <S**2>=0.000
     245 -> 247        0.64614
     246 -> 248       -0.27035

 Excited State   3:      Singlet-A      3.3209 eV  373.35 nm  f=0.0026  <S**2>=0.000
     240 -> 247       -0.10175
     243 -> 247        0.63923
     243 -> 249       -0.11481
     246 -> 248        0.16705

 Excited State   4:      Singlet-A      3.4849 eV  355.77 nm  f=0.0046  <S**2>=0.000
     241 -> 247        0.51982
     241 -> 248        0.12932
     241 -> 249        0.34798
     241 -> 250        0.22331

 Excited State   5:      Singlet-A      3.5327 eV  350.96 nm  f=0.0052  <S**2>=0.000
     240 -> 247       -0.11527
     242 -> 247        0.55152
     242 -> 249       -0.28211
     242 -> 250        0.16800
     242 -> 251       -0.13951
     243 -> 247        0.15124

 The electronic state is 1-A.
 Alpha  occ. eigenvalues --  -46.96242 -19.30453 -19.29728 -19.25221 -19.24132
 Alpha  occ. eigenvalues --  -19.24060 -19.23695 -14.47381 -14.46274 -14.45306
 Alpha  occ. eigenvalues --  -14.43361 -10.43760 -10.42285 -10.39879 -10.38804
 Alpha  occ. eigenvalues --  -10.36467 -10.35910 -10.35605 -10.34815 -10.34798
 Alpha  occ. eigenvalues --  -10.34716 -10.34694 -10.34024 -10.33861 -10.33721
 Alpha  occ. eigenvalues --  -10.32887 -10.32790 -10.32183 -10.32031 -10.31952
 Alpha  occ. eigenvalues --  -10.31890 -10.31847 -10.31800 -10.31720 -10.31453
 Alpha  occ. eigenvalues --  -10.31254 -10.30977 -10.30975 -10.30850 -10.30770
 Alpha  occ. eigenvalues --  -10.30651 -10.30502 -10.30194 -10.30168 -10.30010
 Alpha  occ. eigenvalues --  -10.29729 -10.29700 -10.29663 -10.29637 -10.29498
 Alpha  occ. eigenvalues --  -10.29268 -10.28768 -10.28688 -10.28606 -10.28407
 Alpha  occ. eigenvalues --  -10.28400 -10.28356 -10.28350 -10.28239 -10.28103
 Alpha  occ. eigenvalues --  -10.27994 -10.27936 -10.27876 -10.27785 -10.27760
 Alpha  occ. eigenvalues --  -10.27603  -3.22146  -1.95719  -1.95270  -1.95107
 Alpha  occ. eigenvalues --   -1.18201  -1.18001  -1.12327  -1.10615  -1.10045
 Alpha  occ. eigenvalues --   -1.09850  -1.08345  -1.07310  -1.05665  -1.04645
 Alpha  occ. eigenvalues --   -0.94546  -0.92778  -0.92377  -0.91466  -0.91357
 Alpha  occ. eigenvalues --   -0.90920  -0.90321  -0.89652  -0.88816  -0.88601
 Alpha  occ. eigenvalues --   -0.87657  -0.87501  -0.86203  -0.85550  -0.85158
 Alpha  occ. eigenvalues --   -0.84307  -0.83818  -0.82775  -0.82599  -0.82317
 Alpha  occ. eigenvalues --   -0.81358  -0.80194  -0.79639  -0.79491  -0.77873
 Alpha  occ. eigenvalues --   -0.77763  -0.77510  -0.76731  -0.76425  -0.75973
 Alpha  occ. eigenvalues --   -0.74921  -0.74350  -0.73617  -0.72285  -0.71694
 Alpha  occ. eigenvalues --   -0.70443  -0.69710  -0.69626  -0.68439  -0.68220
 Alpha  occ. eigenvalues --   -0.68141  -0.67101  -0.66676  -0.66517  -0.66196
 Alpha  occ. eigenvalues --   -0.65809  -0.65038  -0.63720  -0.63692  -0.62693
 Alpha  occ. eigenvalues --   -0.62258  -0.61677  -0.60989  -0.60661  -0.59699
 Alpha  occ. eigenvalues --   -0.59190  -0.58758  -0.58601  -0.57798  -0.57645
 Alpha  occ. eigenvalues --   -0.57102  -0.56559  -0.56221  -0.56099  -0.55805
 Alpha  occ. eigenvalues --   -0.55465  -0.55345  -0.55175  -0.54736  -0.54509
 Alpha  occ. eigenvalues --   -0.54122  -0.54046  -0.53760  -0.53707  -0.53556
 Alpha  occ. eigenvalues --   -0.52993  -0.52596  -0.52459  -0.52435  -0.52307
 Alpha  occ. eigenvalues --   -0.52121  -0.52017  -0.51821  -0.51616  -0.51373
 Alpha  occ. eigenvalues --   -0.51270  -0.51131  -0.50817  -0.50730  -0.50481
 Alpha  occ. eigenvalues --   -0.50292  -0.50101  -0.50038  -0.49893  -0.49695
 Alpha  occ. eigenvalues --   -0.49265  -0.49085  -0.48868  -0.48764  -0.48567
 Alpha  occ. eigenvalues --   -0.48370  -0.48324  -0.48271  -0.47929  -0.47802
 Alpha  occ. eigenvalues --   -0.47544  -0.47235  -0.47121  -0.47009  -0.46918
 Alpha  occ. eigenvalues --   -0.46690  -0.46607  -0.46470  -0.46160  -0.46096
 Alpha  occ. eigenvalues --   -0.45797  -0.45739  -0.45471  -0.45229  -0.45014
 Alpha  occ. eigenvalues --   -0.44982  -0.44910  -0.44337  -0.43863  -0.43660
 Alpha  occ. eigenvalues --   -0.43525  -0.43408  -0.43292  -0.43022  -0.42687
 Alpha  occ. eigenvalues --   -0.42627  -0.42548  -0.42376  -0.42146  -0.42031
 Alpha  occ. eigenvalues --   -0.41807  -0.41226  -0.41063  -0.40678  -0.40578
 Alpha  occ. eigenvalues --   -0.40438  -0.39865  -0.39810  -0.39446  -0.39262
 Alpha  occ. eigenvalues --   -0.39095  -0.39052  -0.38664  -0.38506  -0.38155
 Alpha  occ. eigenvalues --   -0.38034  -0.37449  -0.37001  -0.36331  -0.36235
 Alpha  occ. eigenvalues --   -0.35911  -0.35177  -0.35078  -0.33771  -0.33119
 Alpha  occ. eigenvalues --   -0.32731  -0.32391  -0.31194  -0.30879  -0.26005
 Alpha  occ. eigenvalues --   -0.23327
 Alpha virt. eigenvalues --   -0.07195   0.00193   0.02223   0.04338   0.04369
 Alpha virt. eigenvalues --    0.06514   0.07778   0.08329   0.08474   0.09320
 Alpha virt. eigenvalues --    0.10634   0.10904   0.12050   0.12622   0.13007

 Mulliken charges:
               1
     1  Mg   0.945302
     2  C   -0.044440
     3  C   -0.069708
     4  C   -0.095491
     5  C   -0.060158
     6  N   -0.284967
     7  C   -0.070135
     8  C   -0.064093
     9  C   -0.149786
    10  C    0.089057
    11  C    0.023902
    12  C    0.041997
    13  C    0.048017
    14  C    0.255088
    15  O   -0.256957
    16  O   -0.373636
    17  N   -0.489598
    18  C    0.115688
    19  C   -0.099445
    20  C   -0.111804
    21  C    0.251873
    22  C    0.060021
    23  C    0.047693
    24  O   -0.229076
    25  C   -0.023534
    26  N   -0.309503
    27  C   -0.002404
    28  C   -0.090504
    29  C   -0.096629
    30  C    0.082360
    31  C    0.047462
    32  C    0.016904
    33  C   -0.049860
    34  N   -0.402283
    35  C    0.065426
    36  C   -0.180487
    37  C   -0.073254
    38  C    0.131159
    39  C    0.080479
    40  C    0.175985
    41  O   -0.220411
    42  C   -0.102497
    43  C    0.257781
    44  O   -0.222272
    45  O   -0.362230
    46  C    0.142559
    47  C    0.296545
    48  C   -0.192014
    49  C   -0.239352
    50  C    0.030427
    51  C    0.095917
    52  C   -0.059476
    53  C    0.008407
    54  C   -0.211543
    55  C    0.020193
    56  C    0.036565
    57  C   -0.043206
    58  C    0.001145
    59  C   -0.213825
    60  C    0.020588
    61  C   -0.001031
    62  C   -0.002155
    63  C    0.024264
    64  C   -0.209039
    65  C   -0.014091
    66  C    0.002144
    67  H   -0.009076
    68  H   -0.028882
    69  H   -0.009008
    70  H    0.022728
    71  H    0.034770
    72  H    0.037031
    73  H    0.053430
    74  H    0.039597
    75  H    0.036801
    76  H    0.077304
    77  H    0.037684
    78  H    0.022980
    79  H    0.052567
    80  H    0.033954
    81  H    0.064899
    82  H    0.043193
    83  H    0.055359
    84  H    0.068005
    85  H    0.028910
    86  H    0.023220
    87  H    0.041309
    88  H    0.036737
    89  H    0.041653
    90  H    0.041540
    91  H    0.028423
    92  H    0.035399
    93  H    0.030021
    94  H    0.037495
    95  H    0.054750
    96  H    0.031793
    97  H    0.066014
    98  H    0.078147
    99  H    0.043587
   100  H    0.064036
   101  H    0.044933
   102  H    0.065432
   103  H    0.049628
   104  H    0.034799
   105  H    0.054797
   106  H    0.048002
   107  H    0.032348
   108  H    0.003635
   109  H    0.035897
   110  H    0.016747
   111  H    0.038265
   112  H    0.017134
   113  H    0.009175
   114  H    0.020921
   115  H    0.034911
   116  H    0.029123
   117  H    0.027113
   118  H    0.017644
   119  H   -0.005734
   120  H    0.012770
   121  H    0.013598
   122  H    0.003424
   123  H    0.013774
   124  H    0.015903
   125  H    0.026502
   126  H    0.034094
   127  H    0.017087
   128  H    0.009758
   129  H    0.007096
   130  H    0.021550
   131  H    0.018855
   132  H    0.017597
   133  H    0.016792
   134  H    0.032744
   135  H    0.008310
   136  H    0.037405
   137  H    0.023924
   138  H    0.041573
   139  H    0.026616
   140  H    0.015438
 Sum of Mulliken charges =  -0.00000

 Dipole moment (field-independent basis, Debye):
    X=              0.8721    Y=             -3.6887    Z=             -0.9020  Tot=              3.8962
 Quadrupole moment (field-independent basis, Debye-Ang):
   XX=           -397.7987   YY=           -411.9451   ZZ=           -380.9195
   XY=             57.4744   XZ=              2.9098   YZ=            -29.1014

 Normal termination of Gaussian 16 at Wed May  4 06:05:37 2022.
