 Gaussian 16, Revision A.03,
 Gaussian 16:  ES64L-G16RevA.03 25-Dec-2016

 --------------------
 #p ZINDO=(nstates=5)
 --------------------

 ------------------------------
 step_1401_chromophore_20 ZINDO
 ------------------------------
 Symbolic Z-matrix:
 Charge =  0 Multiplicity = 1

                         Standard orientation:
 ---------------------------------------------------------------------
 Center     Atomic      Atomic             Coordinates (Angstroms)
 Number     Number       Type             X           Y           Z
 ---------------------------------------------------------------------
      1         12           0       -4.139903   -1.576107   -0.627907
      2          6           0       -4.438127    1.914560   -0.812203
      3          6           0       -1.887265   -1.457178   -3.006176
      4          6           0       -3.692608   -4.835085   -0.044863
      5          6           0       -6.339929   -1.538153    2.212117
      6          7           0       -3.088239    0.142490   -1.503137
      7          6           0       -3.339834    1.416909   -1.546200
      8          6           0       -2.292069    2.183347   -2.458673
      9          6           0       -1.895775    1.053101   -3.406017
     10          6           0       -2.336627   -0.202026   -2.570335
     11          6           0       -2.629257    1.059595   -4.818238
     12          6           0       -1.138277    2.752410   -1.637685
     13          6           0       -0.332199    3.736040   -2.417392
     14          6           0        0.212185    4.914425   -1.601359
     15          8           0       -0.487424    5.819607   -1.159248
     16          8           0        1.561421    4.772603   -1.299448
     17          7           0       -2.829138   -2.932012   -1.358921
     18          6           0       -1.979650   -2.753879   -2.435645
     19          6           0       -1.195830   -3.966893   -2.648249
     20          6           0       -1.702830   -4.953452   -1.756847
     21          6           0       -2.840922   -4.233757   -0.998630
     22          6           0       -0.101848   -3.955638   -3.685863
     23          6           0       -1.143504   -6.369005   -1.723423
     24          8           0       -0.215573   -6.728568   -2.436187
     25          6           0       -1.889661   -7.535047   -0.966753
     26          7           0       -4.843331   -2.985370    0.925918
     27          6           0       -4.599181   -4.275047    0.833417
     28          6           0       -5.368411   -5.066907    1.891246
     29          6           0       -5.888930   -3.975364    2.866860
     30          6           0       -5.687632   -2.754006    1.961439
     31          6           0       -6.344121   -6.106053    1.375475
     32          6           0       -5.095578   -3.849103    4.201307
     33          6           0       -5.868268   -3.279412    5.432267
     34          7           0       -5.223873   -0.086731    0.519359
     35          6           0       -6.179385   -0.228229    1.522084
     36          6           0       -6.699766    1.113641    1.811903
     37          6           0       -6.172598    1.919294    0.760784
     38          6           0       -5.173038    1.206227    0.136712
     39          6           0       -7.674650    1.478883    2.899447
     40          6           0       -6.150799    3.298327    0.301988
     41          8           0       -6.833457    4.311035    0.502865
     42          6           0       -5.030186    3.286495   -0.830997
     43          6           0       -4.109747    4.457388   -0.689724
     44          8           0       -3.290433    4.671753    0.169838
     45          8           0       -4.383804    5.241677   -1.765891
     46          6           0       -3.650280    6.502813   -1.933455
     47          6           0        2.097654    5.815870   -0.428479
     48          6           0        3.385014    5.210342    0.038076
     49          6           0        4.287671    5.673840    0.919836
     50          6           0        4.129854    7.016184    1.669999
     51          6           0        5.434663    4.810722    1.232032
     52          6           0        5.080122    3.404646    1.726287
     53          6           0        5.349426    3.084413    3.200256
     54          6           0        5.762485    1.554750    3.424187
     55          6           0        5.394072    1.013952    4.838342
     56          6           0        7.220490    1.347014    3.121102
     57          6           0        7.421959   -0.140078    2.797839
     58          6           0        7.289378   -0.538876    1.360148
     59          6           0        8.715418   -0.973997    0.720864
     60          6           0        8.730151   -0.521466   -0.767049
     61          6           0        8.940442   -2.478660    0.896365
     62          6           0       10.401670   -2.914952    0.753257
     63          6           0       10.713405   -3.611989   -0.599313
     64          6           0       12.042936   -3.022011   -1.187354
     65          6           0       11.848030   -2.583252   -2.673549
     66          6           0       13.210697   -4.034449   -1.180926
     67          1           0       -1.279919   -1.497611   -3.912658
     68          1           0       -3.709462   -5.908424    0.154698
     69          1           0       -7.067173   -1.424970    3.018290
     70          1           0       -3.012677    2.896590   -2.857432
     71          1           0       -0.823903    1.024590   -3.604921
     72          1           0       -2.989944    2.075445   -4.980591
     73          1           0       -3.459421    0.363446   -4.938161
     74          1           0       -1.850759    0.890437   -5.560962
     75          1           0       -0.569504    1.854235   -1.398223
     76          1           0       -1.597293    3.201440   -0.756805
     77          1           0       -0.844472    4.026346   -3.333888
     78          1           0        0.393776    3.139724   -2.969885
     79          1           0        0.803129   -3.492217   -3.293760
     80          1           0       -0.320567   -3.337525   -4.556339
     81          1           0        0.163473   -4.940577   -4.071947
     82          1           0       -1.817574   -7.205222    0.069512
     83          1           0       -1.411121   -8.514334   -0.978806
     84          1           0       -2.937400   -7.557393   -1.263721
     85          1           0       -4.594712   -5.559018    2.479838
     86          1           0       -6.946316   -4.155648    3.061183
     87          1           0       -6.309698   -6.136876    0.286592
     88          1           0       -7.376643   -5.913128    1.665667
     89          1           0       -6.088288   -7.073304    1.809582
     90          1           0       -4.159584   -3.323910    4.010313
     91          1           0       -4.802207   -4.859289    4.485306
     92          1           0       -5.303647   -2.533150    5.992250
     93          1           0       -6.012697   -3.965841    6.266871
     94          1           0       -6.843370   -2.878929    5.154476
     95          1           0       -7.167665    1.453301    3.863900
     96          1           0       -8.402923    0.670030    2.950637
     97          1           0       -8.227215    2.380767    2.635396
     98          1           0       -5.461861    3.298941   -1.831531
     99          1           0       -2.733149    6.270151   -2.474808
    100          1           0       -3.329349    7.132755   -1.102810
    101          1           0       -4.289304    7.187666   -2.489689
    102          1           0        1.466535    6.062060    0.426224
    103          1           0        2.328365    6.713513   -1.001217
    104          1           0        3.602539    4.207214   -0.328044
    105          1           0        3.209128    6.962433    2.250698
    106          1           0        4.114441    7.780851    0.893251
    107          1           0        4.935061    7.285324    2.353846
    108          1           0        6.066782    5.301597    1.972335
    109          1           0        6.053828    4.655200    0.348719
    110          1           0        5.720243    2.662480    1.248854
    111          1           0        4.011299    3.219062    1.620015
    112          1           0        4.457992    3.348428    3.770638
    113          1           0        6.194438    3.678948    3.548616
    114          1           0        5.189635    0.967710    2.706412
    115          1           0        5.185842    1.877233    5.470118
    116          1           0        6.167793    0.385896    5.281137
    117          1           0        4.546395    0.340224    4.706434
    118          1           0        8.025817    1.652105    3.789507
    119          1           0        7.446779    1.953763    2.244940
    120          1           0        6.662531   -0.782297    3.243332
    121          1           0        8.394296   -0.480910    3.152962
    122          1           0        6.897732    0.319302    0.813315
    123          1           0        6.555306   -1.339937    1.277773
    124          1           0        9.408553   -0.376048    1.313902
    125          1           0        9.378844    0.353480   -0.760960
    126          1           0        7.743955   -0.235977   -1.132945
    127          1           0        9.142277   -1.292648   -1.418014
    128          1           0        8.308417   -2.975672    0.159712
    129          1           0        8.491453   -2.762406    1.848201
    130          1           0       10.549647   -3.616701    1.574818
    131          1           0       10.991880   -2.030546    0.991502
    132          1           0        9.871574   -3.608746   -1.292730
    133          1           0       10.797377   -4.673987   -0.370420
    134          1           0       12.307408   -2.089357   -0.690583
    135          1           0       12.224498   -3.386364   -3.307690
    136          1           0       12.390371   -1.684202   -2.966845
    137          1           0       10.790657   -2.554739   -2.935723
    138          1           0       13.321732   -4.657481   -2.068646
    139          1           0       13.293380   -4.541259   -0.219264
    140          1           0       14.106079   -3.413609   -1.166269
 ---------------------------------------------------------------------

 SCF Done:  E(RZINDO/S) =  -474.401054690     A.U. after   20 cycles

 Excitation energies and oscillator strengths:

 Excited State   1:      Singlet-A      1.2722 eV  974.54 nm  f=0.5904  <S**2>=0.000
     175 ->178         0.18848
     176 ->177         0.66334
 This state for optimization and/or second-order correction.
 Total Energy, E(CIS/TDA) =  -474.354301054
 Copying the excited state density for this state as the 1-particle RhoCI density.

 Excited State   2:      Singlet-A      1.9006 eV  652.34 nm  f=0.0551  <S**2>=0.000
     175 ->177         0.55592
     176 ->178        -0.40711

 Excited State   3:      Singlet-A      2.9259 eV  423.74 nm  f=0.0167  <S**2>=0.000
     167 ->179        -0.11380
     168 ->177         0.28660
     168 ->178        -0.14695
     168 ->179        -0.41675
     168 ->181         0.27621
     168 ->185        -0.19469
     168 ->188        -0.14642

 Excited State   4:      Singlet-A      2.9695 eV  417.52 nm  f=0.5706  <S**2>=0.000
     169 ->181         0.13395
     170 ->177        -0.15733
     170 ->179        -0.12324
     170 ->181        -0.15247
     173 ->177         0.14611
     175 ->177         0.28563
     176 ->178         0.41680
     176 ->180         0.17619

 Excited State   5:      Singlet-A      3.0099 eV  411.92 nm  f=0.1826  <S**2>=0.000
     169 ->177        -0.13708
     169 ->179        -0.13759
     169 ->181        -0.14164
     170 ->177         0.11698
     170 ->179         0.13578
     170 ->181         0.18550
     171 ->177         0.10418
     175 ->177         0.14688
     176 ->178         0.22505
     176 ->179         0.29918
     176 ->180         0.30826

 The electronic state is 1-A.
 Alpha  occ. eigenvalues --   -1.85595  -1.83120  -1.80762  -1.73015  -1.72082
 Alpha  occ. eigenvalues --   -1.70991  -1.67110  -1.61197  -1.58501  -1.56528
 Alpha  occ. eigenvalues --   -1.55870  -1.51814  -1.49853  -1.47031  -1.46442
 Alpha  occ. eigenvalues --   -1.45101  -1.43853  -1.40228  -1.38705  -1.38524
 Alpha  occ. eigenvalues --   -1.36046  -1.32827  -1.32263  -1.31730  -1.29077
 Alpha  occ. eigenvalues --   -1.26507  -1.25486  -1.22888  -1.20788  -1.18420
 Alpha  occ. eigenvalues --   -1.17963  -1.16298  -1.15068  -1.14759  -1.13513
 Alpha  occ. eigenvalues --   -1.13397  -1.10227  -1.10107  -1.05307  -1.03830
 Alpha  occ. eigenvalues --   -1.01752  -1.00772  -0.97818  -0.97457  -0.96765
 Alpha  occ. eigenvalues --   -0.95868  -0.94548  -0.94420  -0.93458  -0.92768
 Alpha  occ. eigenvalues --   -0.91588  -0.90825  -0.89353  -0.88723  -0.86696
 Alpha  occ. eigenvalues --   -0.86022  -0.85537  -0.83701  -0.83026  -0.80677
 Alpha  occ. eigenvalues --   -0.79873  -0.77651  -0.76892  -0.76443  -0.76293
 Alpha  occ. eigenvalues --   -0.75766  -0.74930  -0.73549  -0.73472  -0.73029
 Alpha  occ. eigenvalues --   -0.72609  -0.72400  -0.72019  -0.71863  -0.70667
 Alpha  occ. eigenvalues --   -0.70284  -0.69226  -0.68442  -0.67845  -0.67712
 Alpha  occ. eigenvalues --   -0.67256  -0.66897  -0.66604  -0.65615  -0.64982
 Alpha  occ. eigenvalues --   -0.64762  -0.64470  -0.64202  -0.63525  -0.63373
 Alpha  occ. eigenvalues --   -0.63067  -0.62770  -0.62664  -0.62107  -0.61581
 Alpha  occ. eigenvalues --   -0.61425  -0.61012  -0.60752  -0.60650  -0.60196
 Alpha  occ. eigenvalues --   -0.60023  -0.59741  -0.59105  -0.58665  -0.58432
 Alpha  occ. eigenvalues --   -0.58295  -0.57639  -0.57278  -0.56705  -0.56325
 Alpha  occ. eigenvalues --   -0.55973  -0.55559  -0.55323  -0.55169  -0.54615
 Alpha  occ. eigenvalues --   -0.53933  -0.53786  -0.53442  -0.52878  -0.52317
 Alpha  occ. eigenvalues --   -0.52188  -0.52063  -0.51781  -0.51481  -0.51122
 Alpha  occ. eigenvalues --   -0.51000  -0.50772  -0.49990  -0.49886  -0.49793
 Alpha  occ. eigenvalues --   -0.49643  -0.49517  -0.49044  -0.49038  -0.49000
 Alpha  occ. eigenvalues --   -0.48569  -0.48469  -0.48297  -0.47616  -0.47541
 Alpha  occ. eigenvalues --   -0.47520  -0.47358  -0.47338  -0.46510  -0.46321
 Alpha  occ. eigenvalues --   -0.46228  -0.46088  -0.45926  -0.45631  -0.45366
 Alpha  occ. eigenvalues --   -0.44917  -0.44685  -0.44432  -0.44196  -0.44111
 Alpha  occ. eigenvalues --   -0.43494  -0.43379  -0.42932  -0.42600  -0.42237
 Alpha  occ. eigenvalues --   -0.41991  -0.40965  -0.40840  -0.39108  -0.38516
 Alpha  occ. eigenvalues --   -0.37853  -0.36856  -0.35916  -0.34801  -0.34203
 Alpha  occ. eigenvalues --   -0.34007  -0.32764  -0.31610  -0.31116  -0.26555
 Alpha  occ. eigenvalues --   -0.21967
 Alpha virt. eigenvalues --   -0.08543  -0.02168  -0.00597   0.00919   0.01351
 Alpha virt. eigenvalues --    0.01932   0.02893   0.03626   0.04294   0.05387
 Alpha virt. eigenvalues --    0.06109   0.06605   0.07034   0.07690   0.08202

 Mulliken charges:
               1
     1  Mg   0.433281
     2  C   -0.033046
     3  C   -0.073832
     4  C   -0.105900
     5  C   -0.079279
     6  N   -0.248151
     7  C    0.102527
     8  C    0.002159
     9  C   -0.000446
    10  C    0.137111
    11  C   -0.054800
    12  C   -0.006984
    13  C    0.006913
    14  C    0.467911
    15  O   -0.503980
    16  O   -0.269666
    17  N   -0.317170
    18  C    0.102361
    19  C    0.058259
    20  C   -0.056163
    21  C    0.153045
    22  C   -0.032800
    23  C    0.324177
    24  O   -0.514258
    25  C   -0.031705
    26  N   -0.274565
    27  C    0.166548
    28  C    0.003904
    29  C    0.003134
    30  C    0.109884
    31  C   -0.043819
    32  C   -0.021246
    33  C   -0.060924
    34  N   -0.333123
    35  C    0.059613
    36  C    0.018546
    37  C   -0.053503
    38  C    0.110674
    39  C   -0.037388
    40  C    0.326719
    41  O   -0.522016
    42  C    0.047182
    43  C    0.494182
    44  O   -0.506885
    45  O   -0.268068
    46  C    0.069994
    47  C    0.112017
    48  C   -0.096038
    49  C   -0.011996
    50  C   -0.046430
    51  C   -0.012443
    52  C   -0.038169
    53  C   -0.043649
    54  C   -0.008951
    55  C   -0.060314
    56  C   -0.026144
    57  C   -0.038985
    58  C   -0.044561
    59  C   -0.020401
    60  C   -0.061062
    61  C   -0.030025
    62  C   -0.036050
    63  C   -0.030690
    64  C   -0.010611
    65  C   -0.066790
    66  C   -0.057429
    67  H    0.022139
    68  H    0.021762
    69  H    0.025740
    70  H    0.035090
    71  H    0.031163
    72  H    0.018780
    73  H    0.034030
    74  H    0.019822
    75  H    0.028268
    76  H    0.050438
    77  H    0.036287
    78  H    0.022351
    79  H    0.034816
    80  H    0.021824
    81  H    0.040811
    82  H    0.025098
    83  H    0.045113
    84  H    0.038638
    85  H    0.022539
    86  H    0.028856
    87  H    0.024060
    88  H    0.022940
    89  H    0.020100
    90  H    0.030121
    91  H    0.011833
    92  H    0.019154
    93  H    0.018154
    94  H    0.023806
    95  H    0.038833
    96  H    0.016955
    97  H    0.039972
    98  H    0.051950
    99  H    0.036389
   100  H    0.057126
   101  H    0.026492
   102  H    0.063305
   103  H    0.049325
   104  H    0.030003
   105  H    0.032813
   106  H    0.027385
   107  H    0.021766
   108  H    0.013859
   109  H    0.023292
   110  H    0.021712
   111  H    0.027322
   112  H    0.016501
   113  H    0.015944
   114  H    0.021156
   115  H    0.023969
   116  H    0.019397
   117  H    0.017129
   118  H    0.023779
   119  H    0.007244
   120  H    0.015340
   121  H    0.011561
   122  H    0.013565
   123  H    0.016610
   124  H    0.024499
   125  H    0.014763
   126  H    0.023189
   127  H    0.020436
   128  H    0.015031
   129  H    0.012165
   130  H    0.013034
   131  H    0.025289
   132  H    0.027257
   133  H    0.015121
   134  H    0.028316
   135  H    0.010801
   136  H    0.022424
   137  H    0.017802
   138  H    0.034363
   139  H    0.017009
   140  H    0.004388
 Sum of Mulliken charges =  -0.00000

 Dipole moment (field-independent basis, Debye):
    X=              1.1197    Y=             -6.3829    Z=             -3.1332  Tot=              7.1980
 N-N= 4.421017413910D+03 E-N= 0.000000000000D+00  KE=-9.516720572006D+03
 Leave Link  601 at Wed May  4 06:20:11 2022, MaxMem=  6710886400 cpu:               0.8 elap:               0.1
 (Enter /sw/apps/gaussian-16.0/g16/l9999.exe)
 1\1\GINC-BP1-COMPUTE040\SP\RZINDO CIS\STO-3G\C55H74Mg1N4O6\OF15641\04-
 May-2022\0\\#p ZINDO=(nstates=5)\\step_1401_chromophore_20 ZINDO\\0,1\
 Mg,0,6.38,57.255,42.168\C,0,5.229,53.942,42.251\C,0,9.236,56.178,40.97
 3\C,0,7.165,60.479,41.78\C,0,3.093,58.341,43.129\N,0,6.941,55.276,41.3
 97\C,0,6.446,54.084,41.55\C,0,7.364,52.984,40.868\C,0,8.716,53.69,40.9
 43\C,0,8.261,55.182,41.13\C,0,9.651,53.244,42.151\C,0,6.899,52.66,39.4
 51\C,0,7.537,51.418,38.926\C,0,6.637,50.561,38.028\O,0,5.682,49.911,38

 Normal termination of Gaussian 16 at Wed May  4 06:20:11 2022.
