 Gaussian 16, Revision A.03,
 Gaussian 16:  ES64L-G16RevA.03 25-Dec-2016

 ------------------------------
 #p blyp/Def2SVP td=(nstates=5)
 ------------------------------

 -------------------------------------------------
 step_151_chromophore_3 TDDFT with blyp functional
 -------------------------------------------------
 Symbolic Z-matrix:
 Charge =  0 Multiplicity = 1

                         Standard orientation:
 ---------------------------------------------------------------------
 Center     Atomic      Atomic             Coordinates (Angstroms)
 Number     Number       Type             X           Y           Z
 ---------------------------------------------------------------------
      1         12           0       -5.218126    0.626570    0.182790
      2          6           0       -3.924269   -2.526362   -0.283423
      3          6           0       -2.061425    1.936262    0.097547
      4          6           0       -6.495834    3.662717    0.441161
      5          6           0       -8.410710   -0.765778    0.382478
      6          7           0       -3.231682   -0.225151   -0.170363
      7          6           0       -2.911303   -1.526241   -0.335017
      8          6           0       -1.365965   -1.784002   -0.312029
      9          6           0       -0.908785   -0.361227    0.095570
     10          6           0       -2.127271    0.502577    0.031470
     11          6           0       -0.177584   -0.165148    1.402863
     12          6           0       -0.798803   -2.296129   -1.725767
     13          6           0        0.408514   -3.338994   -1.853379
     14          6           0        1.538232   -3.060914   -0.862751
     15          8           0        2.031101   -3.925159   -0.132277
     16          8           0        1.900808   -1.703006   -0.831197
     17          7           0       -4.399501    2.543988    0.235942
     18          6           0       -3.075122    2.923872    0.196415
     19          6           0       -2.944168    4.406054    0.068518
     20          6           0       -4.276432    4.913423    0.045086
     21          6           0       -5.146004    3.633396    0.158329
     22          6           0       -1.647922    5.160377   -0.151804
     23          6           0       -4.866705    6.261690   -0.196799
     24          8           0       -6.090804    6.502196   -0.208249
     25          6           0       -3.855743    7.333914   -0.270240
     26          7           0       -7.150813    1.349219    0.567894
     27          6           0       -7.413210    2.661209    0.651701
     28          6           0       -8.899438    2.954698    0.689206
     29          6           0       -9.625716    1.545487    0.504671
     30          6           0       -8.344476    0.654068    0.469491
     31          6           0       -9.417380    3.783563    1.814702
     32          6           0      -10.510558    1.352167   -0.733472
     33          6           0      -11.844810    0.815634   -0.456608
     34          7           0       -5.958883   -1.201840    0.195629
     35          6           0       -7.280076   -1.638794    0.216240
     36          6           0       -7.351994   -3.083085    0.350990
     37          6           0       -6.008005   -3.498849    0.058473
     38          6           0       -5.222254   -2.272477   -0.043452
     39          6           0       -8.660780   -3.870719    0.494931
     40          6           0       -5.138534   -4.680636   -0.000097
     41          8           0       -5.313802   -5.860688    0.188815
     42          6           0       -3.691465   -4.041211   -0.353278
     43          6           0       -2.721948   -4.451791    0.691883
     44          8           0       -2.828999   -4.194423    1.893112
     45          8           0       -1.732125   -5.252010    0.215803
     46          6           0       -0.792981   -5.782584    1.231168
     47          6           0        3.126087   -1.522491   -0.057813
     48          6           0        4.246510   -1.537853   -1.017070
     49          6           0        5.182265   -2.439924   -1.329250
     50          6           0        5.260815   -3.791608   -0.674722
     51          6           0        6.357114   -2.090629   -2.292929
     52          6           0        7.429542   -1.142831   -1.712662
     53          6           0        7.451180    0.321898   -2.452422
     54          6           0        8.579481    0.629554   -3.475098
     55          6           0        8.178265    0.925552   -4.956402
     56          6           0        9.588885    1.752144   -2.843512
     57          6           0       10.439004    1.285023   -1.692227
     58          6           0       10.006274    1.770149   -0.365650
     59          6           0       11.015731    2.688960    0.374831
     60          6           0       11.095882    4.062265   -0.312433
     61          6           0       12.488457    2.181032    0.576699
     62          6           0       12.987734    1.906049    1.976650
     63          6           0       13.049069    0.384500    2.426983
     64          6           0       12.462894    0.214477    3.868998
     65          6           0       13.428274   -0.638026    4.679102
     66          6           0       11.067573   -0.398077    3.998157
     67          1           0       -1.044817    2.333736    0.082420
     68          1           0       -7.002447    4.615511    0.609309
     69          1           0       -9.411376   -1.202699    0.417375
     70          1           0       -1.097433   -2.577762    0.385653
     71          1           0       -0.269473    0.010925   -0.704371
     72          1           0        0.085563   -1.170846    1.731142
     73          1           0       -0.889030    0.294319    2.088641
     74          1           0        0.733383    0.418395    1.268709
     75          1           0       -0.578867   -1.378604   -2.271259
     76          1           0       -1.666237   -2.850256   -2.084050
     77          1           0        0.858874   -3.363332   -2.844699
     78          1           0       -0.044037   -4.319989   -1.706579
     79          1           0       -1.655799    5.930865   -0.923099
     80          1           0       -1.009883    4.409092   -0.617390
     81          1           0       -1.165511    5.597577    0.722292
     82          1           0       -3.166725    7.376635    0.573793
     83          1           0       -4.451708    8.243769   -0.352784
     84          1           0       -3.434099    7.214851   -1.267613
     85          1           0       -9.029935    3.514159   -0.236886
     86          1           0      -10.171164    1.412506    1.439759
     87          1           0       -9.676155    4.817752    1.586279
     88          1           0       -8.669417    3.935868    2.593331
     89          1           0      -10.338464    3.362111    2.218155
     90          1           0      -10.061669    0.656811   -1.443687
     91          1           0      -10.667960    2.259843   -1.317505
     92          1           0      -12.278365    1.250247    0.444262
     93          1           0      -11.651327   -0.241838   -0.276517
     94          1           0      -12.534761    0.990374   -1.282642
     95          1           0       -8.436933   -4.843255    0.932597
     96          1           0       -9.232594   -3.843193   -0.432131
     97          1           0       -9.253268   -3.351822    1.248022
     98          1           0       -3.289913   -4.382956   -1.306324
     99          1           0       -0.453787   -6.816137    1.159901
    100          1           0       -1.005718   -5.626347    2.288123
    101          1           0        0.097290   -5.191094    1.019493
    102          1           0        3.188859   -2.135867    0.841012
    103          1           0        3.183083   -0.533212    0.396931
    104          1           0        4.330257   -0.568333   -1.508283
    105          1           0        4.859056   -4.508223   -1.391537
    106          1           0        4.759623   -3.813747    0.293839
    107          1           0        6.302011   -4.093330   -0.562357
    108          1           0        6.014769   -1.464370   -3.116633
    109          1           0        6.838064   -2.919550   -2.812846
    110          1           0        8.355160   -1.677411   -1.924458
    111          1           0        7.215203   -0.955456   -0.660266
    112          1           0        7.570121    1.035864   -1.637114
    113          1           0        6.488023    0.497421   -2.932414
    114          1           0        9.241075   -0.221087   -3.637438
    115          1           0        8.573337    0.079416   -5.518300
    116          1           0        8.675907    1.856764   -5.226597
    117          1           0        7.102329    1.023177   -5.104018
    118          1           0        9.014454    2.630650   -2.549783
    119          1           0       10.301833    2.152425   -3.564512
    120          1           0       11.410287    1.752628   -1.856419
    121          1           0       10.568032    0.202824   -1.738880
    122          1           0       10.083707    0.952245    0.350804
    123          1           0        9.008348    2.209231   -0.385679
    124          1           0       10.474768    2.893837    1.298165
    125          1           0       10.422738    4.025835   -1.168650
    126          1           0       12.033385    4.493272   -0.662970
    127          1           0       10.741504    4.816531    0.389643
    128          1           0       13.211888    2.889717    0.173711
    129          1           0       12.541461    1.268486   -0.018650
    130          1           0       12.280604    2.413046    2.634156
    131          1           0       14.006199    2.288263    2.054714
    132          1           0       14.095128    0.079235    2.393002
    133          1           0       12.463167   -0.175868    1.698023
    134          1           0       12.455868    1.185631    4.362621
    135          1           0       13.930122    0.100730    5.304000
    136          1           0       14.235737   -1.228042    4.246668
    137          1           0       12.877960   -1.251766    5.392929
    138          1           0       10.584133   -0.190589    3.043929
    139          1           0       10.510616    0.062804    4.813214
    140          1           0       11.168492   -1.473999    4.139396
 ---------------------------------------------------------------------

 SCF Done:  E(RB-LYP) =  -3007.34420609     A.U. after   21 cycles

 Excitation energies and oscillator strengths:

 Excited State   1:      Singlet-A      1.7963 eV  690.23 nm  f=0.2994  <S**2>=0.000
     245 -> 248        0.21054
     246 -> 247        0.68373
     246 <- 247       -0.14120
 This state for optimization and/or second-order correction.
 Total Energy, E(TD-HF/TD-DFT) =  -3007.27819412
 Copying the excited state density for this state as the 1-particle RhoCI density.

 Excited State   2:      Singlet-A      1.9915 eV  622.57 nm  f=0.0587  <S**2>=0.000
     244 -> 247       -0.12798
     245 -> 247        0.63479
     246 -> 248       -0.26167

 Excited State   3:      Singlet-A      2.1434 eV  578.45 nm  f=0.0027  <S**2>=0.000
     244 -> 247        0.69333

 Excited State   4:      Singlet-A      2.1630 eV  573.21 nm  f=0.0001  <S**2>=0.000
     243 -> 247        0.70648

 Excited State   5:      Singlet-A      2.6270 eV  471.96 nm  f=0.0011  <S**2>=0.000
     240 -> 247        0.13052
     241 -> 247       -0.34453
     242 -> 247        0.53131
     246 -> 248        0.12728
     246 -> 249        0.22405

 The electronic state is 1-A.
 Alpha  occ. eigenvalues --  -46.26189 -18.83182 -18.82283 -18.78123 -18.76135
 Alpha  occ. eigenvalues --  -18.75729 -18.75341 -14.03371 -14.02737 -14.01471
 Alpha  occ. eigenvalues --  -14.00946 -10.05232 -10.03106  -9.99999  -9.99782
 Alpha  occ. eigenvalues --   -9.97917  -9.96487  -9.96481  -9.96479  -9.96397
 Alpha  occ. eigenvalues --   -9.96336  -9.95607  -9.95564  -9.95386  -9.95081
 Alpha  occ. eigenvalues --   -9.94518  -9.94427  -9.94204  -9.93974  -9.93879
 Alpha  occ. eigenvalues --   -9.93776  -9.93632  -9.93570  -9.93510  -9.93154
 Alpha  occ. eigenvalues --   -9.93105  -9.92981  -9.92971  -9.92905  -9.92761
 Alpha  occ. eigenvalues --   -9.92627  -9.92587  -9.92483  -9.92234  -9.92144
 Alpha  occ. eigenvalues --   -9.92062  -9.91914  -9.91858  -9.91836  -9.91677
 Alpha  occ. eigenvalues --   -9.91636  -9.91634  -9.91626  -9.91464  -9.91431
 Alpha  occ. eigenvalues --   -9.91328  -9.91260  -9.91197  -9.90983  -9.90906
 Alpha  occ. eigenvalues --   -9.90855  -9.90852  -9.90665  -9.90630  -9.90272
 Alpha  occ. eigenvalues --   -9.90095  -2.91095  -1.71526  -1.70950  -1.70832
 Alpha  occ. eigenvalues --   -0.98042  -0.97362  -0.92048  -0.90547  -0.90465
 Alpha  occ. eigenvalues --   -0.88317  -0.87304  -0.86207  -0.86067  -0.85145
 Alpha  occ. eigenvalues --   -0.75176  -0.73722  -0.73291  -0.72776  -0.72458
 Alpha  occ. eigenvalues --   -0.71939  -0.71750  -0.70862  -0.70845  -0.70591
 Alpha  occ. eigenvalues --   -0.69766  -0.69275  -0.68340  -0.67940  -0.67119
 Alpha  occ. eigenvalues --   -0.66644  -0.66441  -0.65417  -0.64959  -0.64564
 Alpha  occ. eigenvalues --   -0.64241  -0.62719  -0.62482  -0.61799  -0.60625
 Alpha  occ. eigenvalues --   -0.60182  -0.60018  -0.60009  -0.59783  -0.59077
 Alpha  occ. eigenvalues --   -0.58506  -0.57536  -0.56742  -0.55920  -0.54019
 Alpha  occ. eigenvalues --   -0.53769  -0.53600  -0.52808  -0.52325  -0.51693
 Alpha  occ. eigenvalues --   -0.51579  -0.51353  -0.50563  -0.50321  -0.49950
 Alpha  occ. eigenvalues --   -0.49353  -0.49160  -0.48328  -0.47394  -0.46936
 Alpha  occ. eigenvalues --   -0.46514  -0.46114  -0.45574  -0.44969  -0.44388
 Alpha  occ. eigenvalues --   -0.43862  -0.43584  -0.43007  -0.42595  -0.42128
 Alpha  occ. eigenvalues --   -0.41966  -0.41652  -0.41621  -0.41269  -0.41139
 Alpha  occ. eigenvalues --   -0.41015  -0.40947  -0.40611  -0.40523  -0.40375
 Alpha  occ. eigenvalues --   -0.40278  -0.40013  -0.39789  -0.39374  -0.39240
 Alpha  occ. eigenvalues --   -0.39158  -0.38987  -0.38662  -0.38463  -0.38369
 Alpha  occ. eigenvalues --   -0.38181  -0.37997  -0.37859  -0.37716  -0.37340
 Alpha  occ. eigenvalues --   -0.37118  -0.36833  -0.36549  -0.36524  -0.36317
 Alpha  occ. eigenvalues --   -0.36170  -0.36023  -0.35876  -0.35721  -0.35466
 Alpha  occ. eigenvalues --   -0.35381  -0.35278  -0.35192  -0.35124  -0.34905
 Alpha  occ. eigenvalues --   -0.34817  -0.34730  -0.34218  -0.34189  -0.33894
 Alpha  occ. eigenvalues --   -0.33756  -0.33684  -0.33579  -0.33496  -0.33461
 Alpha  occ. eigenvalues --   -0.33250  -0.32934  -0.32629  -0.32383  -0.32101
 Alpha  occ. eigenvalues --   -0.32049  -0.31901  -0.31732  -0.31603  -0.31384
 Alpha  occ. eigenvalues --   -0.31217  -0.30938  -0.30631  -0.30546  -0.30353
 Alpha  occ. eigenvalues --   -0.30252  -0.30149  -0.29999  -0.29918  -0.29804
 Alpha  occ. eigenvalues --   -0.29767  -0.29457  -0.29367  -0.28891  -0.28875
 Alpha  occ. eigenvalues --   -0.28659  -0.28296  -0.28220  -0.28173  -0.28038
 Alpha  occ. eigenvalues --   -0.27583  -0.27367  -0.27329  -0.26419  -0.26105
 Alpha  occ. eigenvalues --   -0.25964  -0.25941  -0.25782  -0.25730  -0.25654
 Alpha  occ. eigenvalues --   -0.25400  -0.24156  -0.24033  -0.23849  -0.23581
 Alpha  occ. eigenvalues --   -0.23564  -0.22618  -0.22059  -0.21181  -0.20943
 Alpha  occ. eigenvalues --   -0.20902  -0.20656  -0.18992  -0.18872  -0.17053
 Alpha  occ. eigenvalues --   -0.15491
 Alpha virt. eigenvalues --   -0.11149  -0.07007  -0.06658  -0.04736  -0.04307
 Alpha virt. eigenvalues --   -0.02522  -0.02257  -0.01556  -0.00452   0.00175
 Alpha virt. eigenvalues --    0.00784   0.01488   0.01970   0.02556   0.02965

 Mulliken charges:
               1
     1  Mg   0.712374
     2  C   -0.047895
     3  C   -0.073713
     4  C   -0.044753
     5  C   -0.077137
     6  N   -0.181105
     7  C   -0.080998
     8  C   -0.037461
     9  C    0.033362
    10  C   -0.001084
    11  C    0.159259
    12  C    0.089268
    13  C    0.152008
    14  C    0.108993
    15  O   -0.196696
    16  O   -0.284232
    17  N   -0.255185
    18  C    0.116476
    19  C   -0.106134
    20  C   -0.003799
    21  C    0.118224
    22  C    0.145219
    23  C   -0.079006
    24  O   -0.178469
    25  C    0.151034
    26  N   -0.228629
    27  C    0.009390
    28  C    0.006862
    29  C    0.050565
    30  C   -0.005121
    31  C    0.140902
    32  C    0.122114
    33  C    0.065665
    34  N   -0.282652
    35  C    0.143264
    36  C   -0.200429
    37  C    0.029239
    38  C    0.156203
    39  C    0.179887
    40  C    0.000880
    41  O   -0.105181
    42  C    0.064139
    43  C    0.073706
    44  O   -0.203015
    45  O   -0.261042
    46  C    0.197873
    47  C    0.335545
    48  C   -0.130945
    49  C   -0.128528
    50  C    0.172852
    51  C    0.119386
    52  C    0.063804
    53  C    0.099650
    54  C   -0.080511
    55  C    0.117031
    56  C    0.053650
    57  C    0.098694
    58  C    0.085459
    59  C   -0.079027
    60  C    0.087197
    61  C    0.105309
    62  C    0.059492
    63  C    0.111091
    64  C   -0.111260
    65  C    0.095642
    66  C    0.126563
    67  H   -0.067043
    68  H   -0.047052
    69  H   -0.064329
    70  H    0.006122
    71  H   -0.029205
    72  H   -0.009162
    73  H   -0.000948
    74  H   -0.006798
    75  H   -0.010895
    76  H   -0.013203
    77  H    0.009915
    78  H   -0.000441
    79  H   -0.010085
    80  H   -0.012918
    81  H    0.014684
    82  H    0.027227
    83  H   -0.021048
    84  H    0.008057
    85  H   -0.015600
    86  H   -0.024780
    87  H   -0.010817
    88  H   -0.008478
    89  H   -0.016694
    90  H   -0.023002
    91  H   -0.027716
    92  H   -0.013310
    93  H   -0.014056
    94  H   -0.009614
    95  H    0.013713
    96  H    0.016527
    97  H   -0.010276
    98  H   -0.009559
    99  H    0.015884
   100  H    0.025086
   101  H    0.008345
   102  H   -0.004767
   103  H   -0.020259
   104  H   -0.043553
   105  H    0.000818
   106  H    0.006919
   107  H   -0.022929
   108  H   -0.037700
   109  H   -0.035704
   110  H   -0.016103
   111  H   -0.016773
   112  H   -0.030550
   113  H   -0.025221
   114  H   -0.039240
   115  H   -0.010356
   116  H   -0.014763
   117  H   -0.016447
   118  H   -0.028091
   119  H   -0.045630
   120  H   -0.029967
   121  H   -0.029540
   122  H   -0.039749
   123  H   -0.017907
   124  H   -0.044250
   125  H   -0.029046
   126  H   -0.017130
   127  H   -0.024276
   128  H   -0.034525
   129  H   -0.030792
   130  H   -0.024127
   131  H   -0.029614
   132  H   -0.029247
   133  H   -0.034534
   134  H   -0.029902
   135  H   -0.033388
   136  H   -0.007096
   137  H   -0.033255
   138  H   -0.023232
   139  H   -0.009421
   140  H   -0.011452
 Sum of Mulliken charges =  -0.00000

 Dipole moment (field-independent basis, Debye):
    X=              3.7280    Y=              3.6796    Z=             -2.1751  Tot=              5.6717
 Quadrupole moment (field-independent basis, Debye-Ang):
   XX=           -373.5337   YY=           -439.1305   ZZ=           -405.1583
   XY=             -8.6902   XZ=              1.5622   YZ=             10.7999

 Normal termination of Gaussian 16 at Wed May  4 09:45:13 2022.
