 Gaussian 16, Revision A.03,
 Gaussian 16:  ES64L-G16RevA.03 25-Dec-2016

 -----------------------------------
 #p cam-b3lyp/Def2SVP td=(nstates=5)
 -----------------------------------

 ------------------------------------------------------
 step_151_chromophore_3 TDDFT with cam-b3lyp functional
 ------------------------------------------------------
 Symbolic Z-matrix:
 Charge =  0 Multiplicity = 1

                         Standard orientation:
 ---------------------------------------------------------------------
 Center     Atomic      Atomic             Coordinates (Angstroms)
 Number     Number       Type             X           Y           Z
 ---------------------------------------------------------------------
      1         12           0       -5.218126    0.626570    0.182790
      2          6           0       -3.924269   -2.526362   -0.283423
      3          6           0       -2.061425    1.936262    0.097547
      4          6           0       -6.495834    3.662717    0.441161
      5          6           0       -8.410710   -0.765778    0.382478
      6          7           0       -3.231682   -0.225151   -0.170363
      7          6           0       -2.911303   -1.526241   -0.335017
      8          6           0       -1.365965   -1.784002   -0.312029
      9          6           0       -0.908785   -0.361227    0.095570
     10          6           0       -2.127271    0.502577    0.031470
     11          6           0       -0.177584   -0.165148    1.402863
     12          6           0       -0.798803   -2.296129   -1.725767
     13          6           0        0.408514   -3.338994   -1.853379
     14          6           0        1.538232   -3.060914   -0.862751
     15          8           0        2.031101   -3.925159   -0.132277
     16          8           0        1.900808   -1.703006   -0.831197
     17          7           0       -4.399501    2.543988    0.235942
     18          6           0       -3.075122    2.923872    0.196415
     19          6           0       -2.944168    4.406054    0.068518
     20          6           0       -4.276432    4.913423    0.045086
     21          6           0       -5.146004    3.633396    0.158329
     22          6           0       -1.647922    5.160377   -0.151804
     23          6           0       -4.866705    6.261690   -0.196799
     24          8           0       -6.090804    6.502196   -0.208249
     25          6           0       -3.855743    7.333914   -0.270240
     26          7           0       -7.150813    1.349219    0.567894
     27          6           0       -7.413210    2.661209    0.651701
     28          6           0       -8.899438    2.954698    0.689206
     29          6           0       -9.625716    1.545487    0.504671
     30          6           0       -8.344476    0.654068    0.469491
     31          6           0       -9.417380    3.783563    1.814702
     32          6           0      -10.510558    1.352167   -0.733472
     33          6           0      -11.844810    0.815634   -0.456608
     34          7           0       -5.958883   -1.201840    0.195629
     35          6           0       -7.280076   -1.638794    0.216240
     36          6           0       -7.351994   -3.083085    0.350990
     37          6           0       -6.008005   -3.498849    0.058473
     38          6           0       -5.222254   -2.272477   -0.043452
     39          6           0       -8.660780   -3.870719    0.494931
     40          6           0       -5.138534   -4.680636   -0.000097
     41          8           0       -5.313802   -5.860688    0.188815
     42          6           0       -3.691465   -4.041211   -0.353278
     43          6           0       -2.721948   -4.451791    0.691883
     44          8           0       -2.828999   -4.194423    1.893112
     45          8           0       -1.732125   -5.252010    0.215803
     46          6           0       -0.792981   -5.782584    1.231168
     47          6           0        3.126087   -1.522491   -0.057813
     48          6           0        4.246510   -1.537853   -1.017070
     49          6           0        5.182265   -2.439924   -1.329250
     50          6           0        5.260815   -3.791608   -0.674722
     51          6           0        6.357114   -2.090629   -2.292929
     52          6           0        7.429542   -1.142831   -1.712662
     53          6           0        7.451180    0.321898   -2.452422
     54          6           0        8.579481    0.629554   -3.475098
     55          6           0        8.178265    0.925552   -4.956402
     56          6           0        9.588885    1.752144   -2.843512
     57          6           0       10.439004    1.285023   -1.692227
     58          6           0       10.006274    1.770149   -0.365650
     59          6           0       11.015731    2.688960    0.374831
     60          6           0       11.095882    4.062265   -0.312433
     61          6           0       12.488457    2.181032    0.576699
     62          6           0       12.987734    1.906049    1.976650
     63          6           0       13.049069    0.384500    2.426983
     64          6           0       12.462894    0.214477    3.868998
     65          6           0       13.428274   -0.638026    4.679102
     66          6           0       11.067573   -0.398077    3.998157
     67          1           0       -1.044817    2.333736    0.082420
     68          1           0       -7.002447    4.615511    0.609309
     69          1           0       -9.411376   -1.202699    0.417375
     70          1           0       -1.097433   -2.577762    0.385653
     71          1           0       -0.269473    0.010925   -0.704371
     72          1           0        0.085563   -1.170846    1.731142
     73          1           0       -0.889030    0.294319    2.088641
     74          1           0        0.733383    0.418395    1.268709
     75          1           0       -0.578867   -1.378604   -2.271259
     76          1           0       -1.666237   -2.850256   -2.084050
     77          1           0        0.858874   -3.363332   -2.844699
     78          1           0       -0.044037   -4.319989   -1.706579
     79          1           0       -1.655799    5.930865   -0.923099
     80          1           0       -1.009883    4.409092   -0.617390
     81          1           0       -1.165511    5.597577    0.722292
     82          1           0       -3.166725    7.376635    0.573793
     83          1           0       -4.451708    8.243769   -0.352784
     84          1           0       -3.434099    7.214851   -1.267613
     85          1           0       -9.029935    3.514159   -0.236886
     86          1           0      -10.171164    1.412506    1.439759
     87          1           0       -9.676155    4.817752    1.586279
     88          1           0       -8.669417    3.935868    2.593331
     89          1           0      -10.338464    3.362111    2.218155
     90          1           0      -10.061669    0.656811   -1.443687
     91          1           0      -10.667960    2.259843   -1.317505
     92          1           0      -12.278365    1.250247    0.444262
     93          1           0      -11.651327   -0.241838   -0.276517
     94          1           0      -12.534761    0.990374   -1.282642
     95          1           0       -8.436933   -4.843255    0.932597
     96          1           0       -9.232594   -3.843193   -0.432131
     97          1           0       -9.253268   -3.351822    1.248022
     98          1           0       -3.289913   -4.382956   -1.306324
     99          1           0       -0.453787   -6.816137    1.159901
    100          1           0       -1.005718   -5.626347    2.288123
    101          1           0        0.097290   -5.191094    1.019493
    102          1           0        3.188859   -2.135867    0.841012
    103          1           0        3.183083   -0.533212    0.396931
    104          1           0        4.330257   -0.568333   -1.508283
    105          1           0        4.859056   -4.508223   -1.391537
    106          1           0        4.759623   -3.813747    0.293839
    107          1           0        6.302011   -4.093330   -0.562357
    108          1           0        6.014769   -1.464370   -3.116633
    109          1           0        6.838064   -2.919550   -2.812846
    110          1           0        8.355160   -1.677411   -1.924458
    111          1           0        7.215203   -0.955456   -0.660266
    112          1           0        7.570121    1.035864   -1.637114
    113          1           0        6.488023    0.497421   -2.932414
    114          1           0        9.241075   -0.221087   -3.637438
    115          1           0        8.573337    0.079416   -5.518300
    116          1           0        8.675907    1.856764   -5.226597
    117          1           0        7.102329    1.023177   -5.104018
    118          1           0        9.014454    2.630650   -2.549783
    119          1           0       10.301833    2.152425   -3.564512
    120          1           0       11.410287    1.752628   -1.856419
    121          1           0       10.568032    0.202824   -1.738880
    122          1           0       10.083707    0.952245    0.350804
    123          1           0        9.008348    2.209231   -0.385679
    124          1           0       10.474768    2.893837    1.298165
    125          1           0       10.422738    4.025835   -1.168650
    126          1           0       12.033385    4.493272   -0.662970
    127          1           0       10.741504    4.816531    0.389643
    128          1           0       13.211888    2.889717    0.173711
    129          1           0       12.541461    1.268486   -0.018650
    130          1           0       12.280604    2.413046    2.634156
    131          1           0       14.006199    2.288263    2.054714
    132          1           0       14.095128    0.079235    2.393002
    133          1           0       12.463167   -0.175868    1.698023
    134          1           0       12.455868    1.185631    4.362621
    135          1           0       13.930122    0.100730    5.304000
    136          1           0       14.235737   -1.228042    4.246668
    137          1           0       12.877960   -1.251766    5.392929
    138          1           0       10.584133   -0.190589    3.043929
    139          1           0       10.510616    0.062804    4.813214
    140          1           0       11.168492   -1.473999    4.139396
 ---------------------------------------------------------------------

 SCF Done:  E(RCAM-B3LYP) =  -3007.14023826     A.U. after   17 cycles

 Excitation energies and oscillator strengths:

 Excited State   1:      Singlet-A      1.7244 eV  719.01 nm  f=0.3701  <S**2>=0.000
     245 -> 248       -0.19759
     246 -> 247        0.68066
     245 <- 248       -0.11002
 This state for optimization and/or second-order correction.
 Total Energy, E(TD-HF/TD-DFT) =  -3007.07686886
 Copying the excited state density for this state as the 1-particle RhoCI density.

 Excited State   2:      Singlet-A      2.2581 eV  549.06 nm  f=0.0585  <S**2>=0.000
     245 -> 247        0.61097
     246 -> 248        0.34845

 Excited State   3:      Singlet-A      3.3965 eV  365.03 nm  f=0.7453  <S**2>=0.000
     243 -> 247       -0.11279
     245 -> 247       -0.33714
     246 -> 248        0.59946
     245 <- 247        0.11034

 Excited State   4:      Singlet-A      3.5786 eV  346.46 nm  f=0.0251  <S**2>=0.000
     239 -> 247       -0.23142
     239 -> 249        0.18230
     240 -> 247        0.45383
     240 -> 249       -0.33046
     240 -> 250       -0.16226
     243 -> 247       -0.10779

 Excited State   5:      Singlet-A      3.6711 eV  337.73 nm  f=0.0020  <S**2>=0.000
     241 -> 247        0.30134
     241 -> 249        0.15752
     241 -> 250       -0.14268
     242 -> 247        0.44429
     242 -> 249        0.23656
     242 -> 250       -0.21578
     244 -> 247        0.12513

 The electronic state is 1-A.
 Alpha  occ. eigenvalues --  -46.87580 -19.26095 -19.25255 -19.21144 -19.19202
 Alpha  occ. eigenvalues --  -19.19189 -19.18446 -14.42313 -14.41371 -14.40014
 Alpha  occ. eigenvalues --  -14.39247 -10.40633 -10.38582 -10.35306 -10.35261
 Alpha  occ. eigenvalues --  -10.31998 -10.30901 -10.30873 -10.30788 -10.30747
 Alpha  occ. eigenvalues --  -10.30481 -10.30230 -10.30133 -10.29833 -10.29591
 Alpha  occ. eigenvalues --  -10.28541 -10.28518 -10.28240 -10.28017 -10.27991
 Alpha  occ. eigenvalues --  -10.27947 -10.27740 -10.27733 -10.27669 -10.27665
 Alpha  occ. eigenvalues --  -10.27466 -10.27384 -10.26793 -10.26780 -10.26618
 Alpha  occ. eigenvalues --  -10.26463 -10.26220 -10.26161 -10.26076 -10.25962
 Alpha  occ. eigenvalues --  -10.25930 -10.25633 -10.25611 -10.25595 -10.25565
 Alpha  occ. eigenvalues --  -10.25333 -10.25294 -10.25270 -10.25212 -10.25008
 Alpha  occ. eigenvalues --  -10.24962 -10.24954 -10.24916 -10.24659 -10.24595
 Alpha  occ. eigenvalues --  -10.24521 -10.24471 -10.24435 -10.24250 -10.23888
 Alpha  occ. eigenvalues --  -10.23666  -3.16406  -1.91309  -1.90840  -1.90749
 Alpha  occ. eigenvalues --   -1.16464  -1.15904  -1.10374  -1.09048  -1.08399
 Alpha  occ. eigenvalues --   -1.06262  -1.05053  -1.03858  -1.03575  -1.02610
 Alpha  occ. eigenvalues --   -0.92237  -0.90611  -0.90124  -0.89397  -0.89165
 Alpha  occ. eigenvalues --   -0.88646  -0.88545  -0.87695  -0.87414  -0.87154
 Alpha  occ. eigenvalues --   -0.86157  -0.85656  -0.84583  -0.84096  -0.83300
 Alpha  occ. eigenvalues --   -0.82854  -0.82688  -0.81332  -0.80841  -0.80321
 Alpha  occ. eigenvalues --   -0.80039  -0.78435  -0.78305  -0.77239  -0.75992
 Alpha  occ. eigenvalues --   -0.75517  -0.75375  -0.75273  -0.75129  -0.74365
 Alpha  occ. eigenvalues --   -0.73543  -0.72479  -0.71652  -0.70760  -0.68668
 Alpha  occ. eigenvalues --   -0.68353  -0.68146  -0.67253  -0.66682  -0.66002
 Alpha  occ. eigenvalues --   -0.65707  -0.65429  -0.64556  -0.64179  -0.63762
 Alpha  occ. eigenvalues --   -0.63298  -0.63142  -0.61971  -0.61147  -0.60525
 Alpha  occ. eigenvalues --   -0.60200  -0.59754  -0.58972  -0.58359  -0.57794
 Alpha  occ. eigenvalues --   -0.57348  -0.57031  -0.56288  -0.55785  -0.55482
 Alpha  occ. eigenvalues --   -0.54955  -0.54673  -0.54540  -0.54176  -0.54017
 Alpha  occ. eigenvalues --   -0.53797  -0.53758  -0.53692  -0.53416  -0.53057
 Alpha  occ. eigenvalues --   -0.52957  -0.52621  -0.52477  -0.52085  -0.51898
 Alpha  occ. eigenvalues --   -0.51677  -0.51619  -0.51098  -0.51071  -0.50958
 Alpha  occ. eigenvalues --   -0.50568  -0.50295  -0.50226  -0.50083  -0.49584
 Alpha  occ. eigenvalues --   -0.49488  -0.49223  -0.49138  -0.48864  -0.48774
 Alpha  occ. eigenvalues --   -0.48515  -0.48259  -0.48148  -0.47991  -0.47690
 Alpha  occ. eigenvalues --   -0.47585  -0.47370  -0.47165  -0.47078  -0.46840
 Alpha  occ. eigenvalues --   -0.46743  -0.46574  -0.46097  -0.45992  -0.45870
 Alpha  occ. eigenvalues --   -0.45476  -0.45440  -0.45299  -0.45179  -0.45136
 Alpha  occ. eigenvalues --   -0.44977  -0.44690  -0.44478  -0.44164  -0.43805
 Alpha  occ. eigenvalues --   -0.43589  -0.43503  -0.43426  -0.43006  -0.42891
 Alpha  occ. eigenvalues --   -0.42729  -0.42550  -0.42053  -0.41961  -0.41784
 Alpha  occ. eigenvalues --   -0.41584  -0.41554  -0.41501  -0.41384  -0.41211
 Alpha  occ. eigenvalues --   -0.40979  -0.40936  -0.40565  -0.40141  -0.39958
 Alpha  occ. eigenvalues --   -0.39705  -0.39445  -0.39215  -0.39186  -0.38967
 Alpha  occ. eigenvalues --   -0.38497  -0.38326  -0.38160  -0.37686  -0.37363
 Alpha  occ. eigenvalues --   -0.36712  -0.36599  -0.36445  -0.36420  -0.36394
 Alpha  occ. eigenvalues --   -0.36010  -0.35642  -0.34654  -0.34468  -0.34397
 Alpha  occ. eigenvalues --   -0.34013  -0.33490  -0.32948  -0.31568  -0.31357
 Alpha  occ. eigenvalues --   -0.30663  -0.30658  -0.30282  -0.29912  -0.23796
 Alpha  occ. eigenvalues --   -0.20627
 Alpha virt. eigenvalues --   -0.07978  -0.01973  -0.00291   0.02198   0.03559
 Alpha virt. eigenvalues --    0.03865   0.05003   0.05392   0.05579   0.06519
 Alpha virt. eigenvalues --    0.07989   0.08064   0.08577   0.09260   0.09317

 Mulliken charges:
               1
     1  Mg   0.850885
     2  C   -0.069270
     3  C   -0.082768
     4  C   -0.073309
     5  C   -0.086836
     6  N   -0.251112
     7  C   -0.036839
     8  C   -0.085078
     9  C   -0.025496
    10  C    0.014959
    11  C    0.100954
    12  C    0.050873
    13  C    0.086111
    14  C    0.183558
    15  O   -0.237950
    16  O   -0.346606
    17  N   -0.343608
    18  C    0.122873
    19  C   -0.109127
    20  C   -0.064865
    21  C    0.147744
    22  C    0.089992
    23  C    0.004901
    24  O   -0.217689
    25  C    0.056115
    26  N   -0.307052
    27  C    0.041460
    28  C   -0.050207
    29  C   -0.004107
    30  C    0.014332
    31  C    0.076416
    32  C    0.061152
    33  C    0.006909
    34  N   -0.372727
    35  C    0.142762
    36  C   -0.189917
    37  C   -0.046915
    38  C    0.181378
    39  C    0.124730
    40  C    0.099855
    41  O   -0.145177
    42  C   -0.012955
    43  C    0.162909
    44  O   -0.239316
    45  O   -0.325065
    46  C    0.160191
    47  C    0.293332
    48  C   -0.151273
    49  C   -0.149745
    50  C    0.108231
    51  C    0.063002
    52  C    0.013885
    53  C    0.045622
    54  C   -0.131530
    55  C    0.060977
    56  C    0.003744
    57  C    0.036185
    58  C    0.034611
    59  C   -0.131599
    60  C    0.029581
    61  C    0.048393
    62  C    0.008520
    63  C    0.056754
    64  C   -0.170168
    65  C    0.031794
    66  C    0.068248
    67  H   -0.031530
    68  H   -0.008026
    69  H   -0.031069
    70  H    0.034449
    71  H    0.007388
    72  H    0.013866
    73  H    0.026009
    74  H    0.015052
    75  H    0.018010
    76  H    0.013528
    77  H    0.042263
    78  H    0.032484
    79  H    0.018602
    80  H    0.014138
    81  H    0.042976
    82  H    0.055939
    83  H    0.017956
    84  H    0.037354
    85  H    0.020314
    86  H    0.010284
    87  H    0.015005
    88  H    0.017971
    89  H    0.008171
    90  H    0.008560
    91  H    0.001025
    92  H    0.008446
    93  H    0.005805
    94  H    0.015927
    95  H    0.040172
    96  H    0.040874
    97  H    0.013928
    98  H    0.033230
    99  H    0.038927
   100  H    0.053141
   101  H    0.028219
   102  H    0.028833
   103  H    0.008018
   104  H   -0.012316
   105  H    0.025405
   106  H    0.031018
   107  H    0.002076
   108  H   -0.006754
   109  H   -0.003935
   110  H    0.009789
   111  H    0.012302
   112  H   -0.004156
   113  H   -0.000602
   114  H   -0.008252
   115  H    0.012853
   116  H    0.009351
   117  H    0.006658
   118  H   -0.002412
   119  H   -0.014905
   120  H   -0.000004
   121  H   -0.000547
   122  H   -0.012792
   123  H    0.008968
   124  H   -0.010681
   125  H   -0.007885
   126  H    0.007553
   127  H    0.001149
   128  H   -0.003759
   129  H   -0.004012
   130  H    0.001664
   131  H   -0.000337
   132  H    0.000756
   133  H   -0.007605
   134  H    0.002511
   135  H   -0.008046
   136  H    0.017188
   137  H   -0.006877
   138  H   -0.002762
   139  H    0.014997
   140  H    0.012526
 Sum of Mulliken charges =  -0.00000

 Dipole moment (field-independent basis, Debye):
    X=              4.2566    Y=              4.5498    Z=             -2.3170  Tot=              6.6474
 Quadrupole moment (field-independent basis, Debye-Ang):
   XX=           -375.5383   YY=           -433.7546   ZZ=           -405.0489
   XY=            -11.3178   XZ=              2.1867   YZ=             10.8827

 Normal termination of Gaussian 16 at Wed May  4 08:33:04 2022.
