 Gaussian 16, Revision A.03,
 Gaussian 16:  ES64L-G16RevA.03 25-Dec-2016

 ---------------------------------
 #p PBE1PBE/Def2SVP td=(nstates=5)
 ---------------------------------

 ----------------------------------------------------
 step_151_chromophore_3 TDDFT with PBE1PBE functional
 ----------------------------------------------------
 Symbolic Z-matrix:
 Charge =  0 Multiplicity = 1

                         Standard orientation:
 ---------------------------------------------------------------------
 Center     Atomic      Atomic             Coordinates (Angstroms)
 Number     Number       Type             X           Y           Z
 ---------------------------------------------------------------------
      1         12           0       -5.218126    0.626570    0.182790
      2          6           0       -3.924269   -2.526362   -0.283423
      3          6           0       -2.061425    1.936262    0.097547
      4          6           0       -6.495834    3.662717    0.441161
      5          6           0       -8.410710   -0.765778    0.382478
      6          7           0       -3.231682   -0.225151   -0.170363
      7          6           0       -2.911303   -1.526241   -0.335017
      8          6           0       -1.365965   -1.784002   -0.312029
      9          6           0       -0.908785   -0.361227    0.095570
     10          6           0       -2.127271    0.502577    0.031470
     11          6           0       -0.177584   -0.165148    1.402863
     12          6           0       -0.798803   -2.296129   -1.725767
     13          6           0        0.408514   -3.338994   -1.853379
     14          6           0        1.538232   -3.060914   -0.862751
     15          8           0        2.031101   -3.925159   -0.132277
     16          8           0        1.900808   -1.703006   -0.831197
     17          7           0       -4.399501    2.543988    0.235942
     18          6           0       -3.075122    2.923872    0.196415
     19          6           0       -2.944168    4.406054    0.068518
     20          6           0       -4.276432    4.913423    0.045086
     21          6           0       -5.146004    3.633396    0.158329
     22          6           0       -1.647922    5.160377   -0.151804
     23          6           0       -4.866705    6.261690   -0.196799
     24          8           0       -6.090804    6.502196   -0.208249
     25          6           0       -3.855743    7.333914   -0.270240
     26          7           0       -7.150813    1.349219    0.567894
     27          6           0       -7.413210    2.661209    0.651701
     28          6           0       -8.899438    2.954698    0.689206
     29          6           0       -9.625716    1.545487    0.504671
     30          6           0       -8.344476    0.654068    0.469491
     31          6           0       -9.417380    3.783563    1.814702
     32          6           0      -10.510558    1.352167   -0.733472
     33          6           0      -11.844810    0.815634   -0.456608
     34          7           0       -5.958883   -1.201840    0.195629
     35          6           0       -7.280076   -1.638794    0.216240
     36          6           0       -7.351994   -3.083085    0.350990
     37          6           0       -6.008005   -3.498849    0.058473
     38          6           0       -5.222254   -2.272477   -0.043452
     39          6           0       -8.660780   -3.870719    0.494931
     40          6           0       -5.138534   -4.680636   -0.000097
     41          8           0       -5.313802   -5.860688    0.188815
     42          6           0       -3.691465   -4.041211   -0.353278
     43          6           0       -2.721948   -4.451791    0.691883
     44          8           0       -2.828999   -4.194423    1.893112
     45          8           0       -1.732125   -5.252010    0.215803
     46          6           0       -0.792981   -5.782584    1.231168
     47          6           0        3.126087   -1.522491   -0.057813
     48          6           0        4.246510   -1.537853   -1.017070
     49          6           0        5.182265   -2.439924   -1.329250
     50          6           0        5.260815   -3.791608   -0.674722
     51          6           0        6.357114   -2.090629   -2.292929
     52          6           0        7.429542   -1.142831   -1.712662
     53          6           0        7.451180    0.321898   -2.452422
     54          6           0        8.579481    0.629554   -3.475098
     55          6           0        8.178265    0.925552   -4.956402
     56          6           0        9.588885    1.752144   -2.843512
     57          6           0       10.439004    1.285023   -1.692227
     58          6           0       10.006274    1.770149   -0.365650
     59          6           0       11.015731    2.688960    0.374831
     60          6           0       11.095882    4.062265   -0.312433
     61          6           0       12.488457    2.181032    0.576699
     62          6           0       12.987734    1.906049    1.976650
     63          6           0       13.049069    0.384500    2.426983
     64          6           0       12.462894    0.214477    3.868998
     65          6           0       13.428274   -0.638026    4.679102
     66          6           0       11.067573   -0.398077    3.998157
     67          1           0       -1.044817    2.333736    0.082420
     68          1           0       -7.002447    4.615511    0.609309
     69          1           0       -9.411376   -1.202699    0.417375
     70          1           0       -1.097433   -2.577762    0.385653
     71          1           0       -0.269473    0.010925   -0.704371
     72          1           0        0.085563   -1.170846    1.731142
     73          1           0       -0.889030    0.294319    2.088641
     74          1           0        0.733383    0.418395    1.268709
     75          1           0       -0.578867   -1.378604   -2.271259
     76          1           0       -1.666237   -2.850256   -2.084050
     77          1           0        0.858874   -3.363332   -2.844699
     78          1           0       -0.044037   -4.319989   -1.706579
     79          1           0       -1.655799    5.930865   -0.923099
     80          1           0       -1.009883    4.409092   -0.617390
     81          1           0       -1.165511    5.597577    0.722292
     82          1           0       -3.166725    7.376635    0.573793
     83          1           0       -4.451708    8.243769   -0.352784
     84          1           0       -3.434099    7.214851   -1.267613
     85          1           0       -9.029935    3.514159   -0.236886
     86          1           0      -10.171164    1.412506    1.439759
     87          1           0       -9.676155    4.817752    1.586279
     88          1           0       -8.669417    3.935868    2.593331
     89          1           0      -10.338464    3.362111    2.218155
     90          1           0      -10.061669    0.656811   -1.443687
     91          1           0      -10.667960    2.259843   -1.317505
     92          1           0      -12.278365    1.250247    0.444262
     93          1           0      -11.651327   -0.241838   -0.276517
     94          1           0      -12.534761    0.990374   -1.282642
     95          1           0       -8.436933   -4.843255    0.932597
     96          1           0       -9.232594   -3.843193   -0.432131
     97          1           0       -9.253268   -3.351822    1.248022
     98          1           0       -3.289913   -4.382956   -1.306324
     99          1           0       -0.453787   -6.816137    1.159901
    100          1           0       -1.005718   -5.626347    2.288123
    101          1           0        0.097290   -5.191094    1.019493
    102          1           0        3.188859   -2.135867    0.841012
    103          1           0        3.183083   -0.533212    0.396931
    104          1           0        4.330257   -0.568333   -1.508283
    105          1           0        4.859056   -4.508223   -1.391537
    106          1           0        4.759623   -3.813747    0.293839
    107          1           0        6.302011   -4.093330   -0.562357
    108          1           0        6.014769   -1.464370   -3.116633
    109          1           0        6.838064   -2.919550   -2.812846
    110          1           0        8.355160   -1.677411   -1.924458
    111          1           0        7.215203   -0.955456   -0.660266
    112          1           0        7.570121    1.035864   -1.637114
    113          1           0        6.488023    0.497421   -2.932414
    114          1           0        9.241075   -0.221087   -3.637438
    115          1           0        8.573337    0.079416   -5.518300
    116          1           0        8.675907    1.856764   -5.226597
    117          1           0        7.102329    1.023177   -5.104018
    118          1           0        9.014454    2.630650   -2.549783
    119          1           0       10.301833    2.152425   -3.564512
    120          1           0       11.410287    1.752628   -1.856419
    121          1           0       10.568032    0.202824   -1.738880
    122          1           0       10.083707    0.952245    0.350804
    123          1           0        9.008348    2.209231   -0.385679
    124          1           0       10.474768    2.893837    1.298165
    125          1           0       10.422738    4.025835   -1.168650
    126          1           0       12.033385    4.493272   -0.662970
    127          1           0       10.741504    4.816531    0.389643
    128          1           0       13.211888    2.889717    0.173711
    129          1           0       12.541461    1.268486   -0.018650
    130          1           0       12.280604    2.413046    2.634156
    131          1           0       14.006199    2.288263    2.054714
    132          1           0       14.095128    0.079235    2.393002
    133          1           0       12.463167   -0.175868    1.698023
    134          1           0       12.455868    1.185631    4.362621
    135          1           0       13.930122    0.100730    5.304000
    136          1           0       14.235737   -1.228042    4.246668
    137          1           0       12.877960   -1.251766    5.392929
    138          1           0       10.584133   -0.190589    3.043929
    139          1           0       10.510616    0.062804    4.813214
    140          1           0       11.168492   -1.473999    4.139396
 ---------------------------------------------------------------------

 SCF Done:  E(RPBE1PBE) =  -3005.32867331     A.U. after   15 cycles

 Excitation energies and oscillator strengths:

 Excited State   1:      Singlet-A      1.8610 eV  666.23 nm  f=0.3638  <S**2>=0.000
     245 -> 248       -0.19061
     246 -> 247        0.68811
 This state for optimization and/or second-order correction.
 Total Energy, E(TD-HF/TD-DFT) =  -3005.26028342
 Copying the excited state density for this state as the 1-particle RhoCI density.

 Excited State   2:      Singlet-A      2.2442 eV  552.47 nm  f=0.0697  <S**2>=0.000
     245 -> 247        0.63337
     246 -> 248        0.30835

 Excited State   3:      Singlet-A      3.1512 eV  393.45 nm  f=0.0311  <S**2>=0.000
     240 -> 247        0.33920
     240 -> 249       -0.13093
     241 -> 247        0.26645
     242 -> 247        0.38664
     242 -> 249       -0.13861
     244 -> 247        0.21798
     246 -> 248        0.18142

 Excited State   4:      Singlet-A      3.1903 eV  388.63 nm  f=0.0001  <S**2>=0.000
     243 -> 247        0.52242
     243 -> 249        0.13639
     243 -> 250       -0.10128
     244 -> 247        0.40575
     244 -> 249        0.10874

 Excited State   5:      Singlet-A      3.2286 eV  384.02 nm  f=0.3014  <S**2>=0.000
     240 -> 247       -0.14128
     245 -> 247       -0.22757
     245 -> 250        0.10813
     246 -> 248        0.48507
     246 -> 249       -0.38286

 The electronic state is 1-A.
 Alpha  occ. eigenvalues --  -46.91021 -19.26738 -19.25902 -19.21389 -19.19511
 Alpha  occ. eigenvalues --  -19.19281 -19.18686 -14.41758 -14.41006 -14.39596
 Alpha  occ. eigenvalues --  -14.38965 -10.37656 -10.35602 -10.32528 -10.32213
 Alpha  occ. eigenvalues --  -10.29363 -10.28704 -10.28654 -10.28549 -10.28485
 Alpha  occ. eigenvalues --  -10.27758 -10.27750 -10.27584 -10.27514 -10.27445
 Alpha  occ. eigenvalues --  -10.26393 -10.26051 -10.26025 -10.25895 -10.25684
 Alpha  occ. eigenvalues --  -10.25650 -10.25632 -10.25376 -10.25242 -10.25152
 Alpha  occ. eigenvalues --  -10.25022 -10.24950 -10.24609 -10.24550 -10.24440
 Alpha  occ. eigenvalues --  -10.24206 -10.23803 -10.23711 -10.23538 -10.23530
 Alpha  occ. eigenvalues --  -10.23518 -10.23344 -10.23244 -10.23235 -10.23002
 Alpha  occ. eigenvalues --  -10.22995 -10.22820 -10.22735 -10.22611 -10.22580
 Alpha  occ. eigenvalues --  -10.22483 -10.22406 -10.22365 -10.22198 -10.22191
 Alpha  occ. eigenvalues --  -10.22160 -10.22072 -10.21805 -10.21760 -10.21285
 Alpha  occ. eigenvalues --  -10.21064  -3.13419  -1.86266  -1.85774  -1.85687
 Alpha  occ. eigenvalues --   -1.11209  -1.10675  -1.05215  -1.03614  -1.03221
 Alpha  occ. eigenvalues --   -1.01064  -0.99689  -0.98483  -0.98326  -0.97307
 Alpha  occ. eigenvalues --   -0.86640  -0.84692  -0.84252  -0.83698  -0.83409
 Alpha  occ. eigenvalues --   -0.82798  -0.82729  -0.81879  -0.81623  -0.81365
 Alpha  occ. eigenvalues --   -0.80583  -0.79885  -0.78797  -0.78389  -0.77521
 Alpha  occ. eigenvalues --   -0.76996  -0.76938  -0.75580  -0.75082  -0.74598
 Alpha  occ. eigenvalues --   -0.74366  -0.72642  -0.72544  -0.71595  -0.70353
 Alpha  occ. eigenvalues --   -0.69697  -0.69622  -0.69466  -0.69265  -0.68522
 Alpha  occ. eigenvalues --   -0.67811  -0.66970  -0.66077  -0.65129  -0.63027
 Alpha  occ. eigenvalues --   -0.62637  -0.62557  -0.61726  -0.60943  -0.60232
 Alpha  occ. eigenvalues --   -0.60085  -0.59832  -0.59130  -0.58744  -0.58277
 Alpha  occ. eigenvalues --   -0.57488  -0.57293  -0.56591  -0.55389  -0.54859
 Alpha  occ. eigenvalues --   -0.54704  -0.54247  -0.53588  -0.52962  -0.52422
 Alpha  occ. eigenvalues --   -0.51758  -0.51481  -0.50788  -0.50325  -0.50045
 Alpha  occ. eigenvalues --   -0.49478  -0.49142  -0.49072  -0.48660  -0.48534
 Alpha  occ. eigenvalues --   -0.48365  -0.48221  -0.48146  -0.47765  -0.47537
 Alpha  occ. eigenvalues --   -0.47483  -0.47135  -0.46998  -0.46701  -0.46513
 Alpha  occ. eigenvalues --   -0.46176  -0.46126  -0.45728  -0.45650  -0.45548
 Alpha  occ. eigenvalues --   -0.45065  -0.44820  -0.44777  -0.44720  -0.44178
 Alpha  occ. eigenvalues --   -0.44033  -0.43806  -0.43749  -0.43457  -0.43400
 Alpha  occ. eigenvalues --   -0.43047  -0.42830  -0.42751  -0.42570  -0.42391
 Alpha  occ. eigenvalues --   -0.42238  -0.42041  -0.41892  -0.41708  -0.41570
 Alpha  occ. eigenvalues --   -0.41396  -0.41190  -0.40863  -0.40668  -0.40581
 Alpha  occ. eigenvalues --   -0.40226  -0.40085  -0.40012  -0.39930  -0.39779
 Alpha  occ. eigenvalues --   -0.39714  -0.39466  -0.39232  -0.38854  -0.38617
 Alpha  occ. eigenvalues --   -0.38326  -0.38289  -0.38220  -0.37970  -0.37690
 Alpha  occ. eigenvalues --   -0.37495  -0.37321  -0.36891  -0.36640  -0.36519
 Alpha  occ. eigenvalues --   -0.36429  -0.36334  -0.36280  -0.36198  -0.36018
 Alpha  occ. eigenvalues --   -0.35858  -0.35690  -0.35523  -0.35031  -0.34790
 Alpha  occ. eigenvalues --   -0.34501  -0.34337  -0.34138  -0.34024  -0.33754
 Alpha  occ. eigenvalues --   -0.33314  -0.33277  -0.33007  -0.32694  -0.32270
 Alpha  occ. eigenvalues --   -0.31778  -0.31518  -0.31441  -0.31261  -0.31195
 Alpha  occ. eigenvalues --   -0.30881  -0.30566  -0.29868  -0.29409  -0.29304
 Alpha  occ. eigenvalues --   -0.28929  -0.28759  -0.28013  -0.27067  -0.26139
 Alpha  occ. eigenvalues --   -0.25945  -0.25876  -0.25728  -0.25581  -0.20719
 Alpha  occ. eigenvalues --   -0.18325
 Alpha virt. eigenvalues --   -0.10592  -0.05412  -0.04452  -0.02196  -0.01049
 Alpha virt. eigenvalues --    0.00443   0.00707   0.01185   0.01946   0.02774
 Alpha virt. eigenvalues --    0.03767   0.04591   0.04812   0.05562   0.05936

 Mulliken charges:
               1
     1  Mg   1.010465
     2  C   -0.076719
     3  C   -0.074456
     4  C   -0.066826
     5  C   -0.077497
     6  N   -0.363540
     7  C    0.051276
     8  C   -0.158361
     9  C   -0.101244
    10  C    0.049459
    11  C    0.041234
    12  C    0.002622
    13  C    0.011582
    14  C    0.243297
    15  O   -0.270566
    16  O   -0.371851
    17  N   -0.458122
    18  C    0.142256
    19  C   -0.136355
    20  C   -0.100265
    21  C    0.182283
    22  C    0.034327
    23  C    0.049431
    24  O   -0.257501
    25  C   -0.021043
    26  N   -0.415111
    27  C    0.079846
    28  C   -0.125485
    29  C   -0.081233
    30  C    0.047473
    31  C    0.017824
    32  C    0.002890
    33  C   -0.069110
    34  N   -0.504457
    35  C    0.154185
    36  C   -0.189359
    37  C   -0.090748
    38  C    0.220838
    39  C    0.062883
    40  C    0.192076
    41  O   -0.191002
    42  C   -0.124345
    43  C    0.254955
    44  O   -0.272843
    45  O   -0.359084
    46  C    0.101665
    47  C    0.241195
    48  C   -0.160430
    49  C   -0.194892
    50  C    0.046253
    51  C    0.001735
    52  C   -0.044556
    53  C   -0.014476
    54  C   -0.208869
    55  C    0.001081
    56  C   -0.055095
    57  C   -0.023256
    58  C   -0.034006
    59  C   -0.213110
    60  C   -0.029322
    61  C   -0.005697
    62  C   -0.056074
    63  C    0.002590
    64  C   -0.260204
    65  C   -0.028808
    66  C    0.000422
    67  H    0.000040
    68  H    0.025264
    69  H    0.002388
    70  H    0.077107
    71  H    0.044858
    72  H    0.042373
    73  H    0.055013
    74  H    0.042129
    75  H    0.049567
    76  H    0.049663
    77  H    0.073862
    78  H    0.065563
    79  H    0.044952
    80  H    0.040767
    81  H    0.068846
    82  H    0.081606
    83  H    0.045895
    84  H    0.065236
    85  H    0.058738
    86  H    0.046961
    87  H    0.042251
    88  H    0.045825
    89  H    0.035105
    90  H    0.041900
    91  H    0.033841
    92  H    0.036984
    93  H    0.035120
    94  H    0.044474
    95  H    0.068544
    96  H    0.068861
    97  H    0.041692
    98  H    0.068987
    99  H    0.061011
   100  H    0.074322
   101  H    0.054559
   102  H    0.054037
   103  H    0.035119
   104  H    0.019080
   105  H    0.054097
   106  H    0.057688
   107  H    0.030577
   108  H    0.028381
   109  H    0.027236
   110  H    0.041242
   111  H    0.044437
   112  H    0.032311
   113  H    0.030092
   114  H    0.030032
   115  H    0.039735
   116  H    0.036778
   117  H    0.033509
   118  H    0.030110
   119  H    0.017647
   120  H    0.034380
   121  H    0.030875
   122  H    0.026597
   123  H    0.039607
   124  H    0.026881
   125  H    0.022870
   126  H    0.033506
   127  H    0.029292
   128  H    0.028083
   129  H    0.029360
   130  H    0.034860
   131  H    0.032492
   132  H    0.033250
   133  H    0.024975
   134  H    0.039511
   135  H    0.020758
   136  H    0.043319
   137  H    0.021573
   138  H    0.028372
   139  H    0.042865
   140  H    0.039942
 Sum of Mulliken charges =  -0.00000

 Dipole moment (field-independent basis, Debye):
    X=              4.0749    Y=              4.2678    Z=             -2.2935  Tot=              6.3308
 Quadrupole moment (field-independent basis, Debye-Ang):
   XX=           -367.0133   YY=           -431.9531   ZZ=           -402.5990
   XY=            -10.3365   XZ=              1.7126   YZ=             10.8472

 Normal termination of Gaussian 16 at Wed May  4 08:55:29 2022.
