 Gaussian 16, Revision A.03,
 Gaussian 16:  ES64L-G16RevA.03 25-Dec-2016

 --------------------------------
 #p wB97XD/Def2SVP td=(nstates=5)
 --------------------------------

 ---------------------------------------------------
 step_151_chromophore_3 TDDFT with wB97XD functional
 ---------------------------------------------------
 Symbolic Z-matrix:
 Charge =  0 Multiplicity = 1

                         Standard orientation:
 ---------------------------------------------------------------------
 Center     Atomic      Atomic             Coordinates (Angstroms)
 Number     Number       Type             X           Y           Z
 ---------------------------------------------------------------------
      1         12           0       -5.218126    0.626570    0.182790
      2          6           0       -3.924269   -2.526362   -0.283423
      3          6           0       -2.061425    1.936262    0.097547
      4          6           0       -6.495834    3.662717    0.441161
      5          6           0       -8.410710   -0.765778    0.382478
      6          7           0       -3.231682   -0.225151   -0.170363
      7          6           0       -2.911303   -1.526241   -0.335017
      8          6           0       -1.365965   -1.784002   -0.312029
      9          6           0       -0.908785   -0.361227    0.095570
     10          6           0       -2.127271    0.502577    0.031470
     11          6           0       -0.177584   -0.165148    1.402863
     12          6           0       -0.798803   -2.296129   -1.725767
     13          6           0        0.408514   -3.338994   -1.853379
     14          6           0        1.538232   -3.060914   -0.862751
     15          8           0        2.031101   -3.925159   -0.132277
     16          8           0        1.900808   -1.703006   -0.831197
     17          7           0       -4.399501    2.543988    0.235942
     18          6           0       -3.075122    2.923872    0.196415
     19          6           0       -2.944168    4.406054    0.068518
     20          6           0       -4.276432    4.913423    0.045086
     21          6           0       -5.146004    3.633396    0.158329
     22          6           0       -1.647922    5.160377   -0.151804
     23          6           0       -4.866705    6.261690   -0.196799
     24          8           0       -6.090804    6.502196   -0.208249
     25          6           0       -3.855743    7.333914   -0.270240
     26          7           0       -7.150813    1.349219    0.567894
     27          6           0       -7.413210    2.661209    0.651701
     28          6           0       -8.899438    2.954698    0.689206
     29          6           0       -9.625716    1.545487    0.504671
     30          6           0       -8.344476    0.654068    0.469491
     31          6           0       -9.417380    3.783563    1.814702
     32          6           0      -10.510558    1.352167   -0.733472
     33          6           0      -11.844810    0.815634   -0.456608
     34          7           0       -5.958883   -1.201840    0.195629
     35          6           0       -7.280076   -1.638794    0.216240
     36          6           0       -7.351994   -3.083085    0.350990
     37          6           0       -6.008005   -3.498849    0.058473
     38          6           0       -5.222254   -2.272477   -0.043452
     39          6           0       -8.660780   -3.870719    0.494931
     40          6           0       -5.138534   -4.680636   -0.000097
     41          8           0       -5.313802   -5.860688    0.188815
     42          6           0       -3.691465   -4.041211   -0.353278
     43          6           0       -2.721948   -4.451791    0.691883
     44          8           0       -2.828999   -4.194423    1.893112
     45          8           0       -1.732125   -5.252010    0.215803
     46          6           0       -0.792981   -5.782584    1.231168
     47          6           0        3.126087   -1.522491   -0.057813
     48          6           0        4.246510   -1.537853   -1.017070
     49          6           0        5.182265   -2.439924   -1.329250
     50          6           0        5.260815   -3.791608   -0.674722
     51          6           0        6.357114   -2.090629   -2.292929
     52          6           0        7.429542   -1.142831   -1.712662
     53          6           0        7.451180    0.321898   -2.452422
     54          6           0        8.579481    0.629554   -3.475098
     55          6           0        8.178265    0.925552   -4.956402
     56          6           0        9.588885    1.752144   -2.843512
     57          6           0       10.439004    1.285023   -1.692227
     58          6           0       10.006274    1.770149   -0.365650
     59          6           0       11.015731    2.688960    0.374831
     60          6           0       11.095882    4.062265   -0.312433
     61          6           0       12.488457    2.181032    0.576699
     62          6           0       12.987734    1.906049    1.976650
     63          6           0       13.049069    0.384500    2.426983
     64          6           0       12.462894    0.214477    3.868998
     65          6           0       13.428274   -0.638026    4.679102
     66          6           0       11.067573   -0.398077    3.998157
     67          1           0       -1.044817    2.333736    0.082420
     68          1           0       -7.002447    4.615511    0.609309
     69          1           0       -9.411376   -1.202699    0.417375
     70          1           0       -1.097433   -2.577762    0.385653
     71          1           0       -0.269473    0.010925   -0.704371
     72          1           0        0.085563   -1.170846    1.731142
     73          1           0       -0.889030    0.294319    2.088641
     74          1           0        0.733383    0.418395    1.268709
     75          1           0       -0.578867   -1.378604   -2.271259
     76          1           0       -1.666237   -2.850256   -2.084050
     77          1           0        0.858874   -3.363332   -2.844699
     78          1           0       -0.044037   -4.319989   -1.706579
     79          1           0       -1.655799    5.930865   -0.923099
     80          1           0       -1.009883    4.409092   -0.617390
     81          1           0       -1.165511    5.597577    0.722292
     82          1           0       -3.166725    7.376635    0.573793
     83          1           0       -4.451708    8.243769   -0.352784
     84          1           0       -3.434099    7.214851   -1.267613
     85          1           0       -9.029935    3.514159   -0.236886
     86          1           0      -10.171164    1.412506    1.439759
     87          1           0       -9.676155    4.817752    1.586279
     88          1           0       -8.669417    3.935868    2.593331
     89          1           0      -10.338464    3.362111    2.218155
     90          1           0      -10.061669    0.656811   -1.443687
     91          1           0      -10.667960    2.259843   -1.317505
     92          1           0      -12.278365    1.250247    0.444262
     93          1           0      -11.651327   -0.241838   -0.276517
     94          1           0      -12.534761    0.990374   -1.282642
     95          1           0       -8.436933   -4.843255    0.932597
     96          1           0       -9.232594   -3.843193   -0.432131
     97          1           0       -9.253268   -3.351822    1.248022
     98          1           0       -3.289913   -4.382956   -1.306324
     99          1           0       -0.453787   -6.816137    1.159901
    100          1           0       -1.005718   -5.626347    2.288123
    101          1           0        0.097290   -5.191094    1.019493
    102          1           0        3.188859   -2.135867    0.841012
    103          1           0        3.183083   -0.533212    0.396931
    104          1           0        4.330257   -0.568333   -1.508283
    105          1           0        4.859056   -4.508223   -1.391537
    106          1           0        4.759623   -3.813747    0.293839
    107          1           0        6.302011   -4.093330   -0.562357
    108          1           0        6.014769   -1.464370   -3.116633
    109          1           0        6.838064   -2.919550   -2.812846
    110          1           0        8.355160   -1.677411   -1.924458
    111          1           0        7.215203   -0.955456   -0.660266
    112          1           0        7.570121    1.035864   -1.637114
    113          1           0        6.488023    0.497421   -2.932414
    114          1           0        9.241075   -0.221087   -3.637438
    115          1           0        8.573337    0.079416   -5.518300
    116          1           0        8.675907    1.856764   -5.226597
    117          1           0        7.102329    1.023177   -5.104018
    118          1           0        9.014454    2.630650   -2.549783
    119          1           0       10.301833    2.152425   -3.564512
    120          1           0       11.410287    1.752628   -1.856419
    121          1           0       10.568032    0.202824   -1.738880
    122          1           0       10.083707    0.952245    0.350804
    123          1           0        9.008348    2.209231   -0.385679
    124          1           0       10.474768    2.893837    1.298165
    125          1           0       10.422738    4.025835   -1.168650
    126          1           0       12.033385    4.493272   -0.662970
    127          1           0       10.741504    4.816531    0.389643
    128          1           0       13.211888    2.889717    0.173711
    129          1           0       12.541461    1.268486   -0.018650
    130          1           0       12.280604    2.413046    2.634156
    131          1           0       14.006199    2.288263    2.054714
    132          1           0       14.095128    0.079235    2.393002
    133          1           0       12.463167   -0.175868    1.698023
    134          1           0       12.455868    1.185631    4.362621
    135          1           0       13.930122    0.100730    5.304000
    136          1           0       14.235737   -1.228042    4.246668
    137          1           0       12.877960   -1.251766    5.392929
    138          1           0       10.584133   -0.190589    3.043929
    139          1           0       10.510616    0.062804    4.813214
    140          1           0       11.168492   -1.473999    4.139396
 ---------------------------------------------------------------------

 SCF Done:  E(RwB97XD) =  -3007.84067073     A.U. after   17 cycles

 Excitation energies and oscillator strengths:

 Excited State   1:      Singlet-A      1.6723 eV  741.40 nm  f=0.3669  <S**2>=0.000
     245 -> 248       -0.20300
     246 -> 247        0.67832
     245 <- 248       -0.11919
 This state for optimization and/or second-order correction.
 Total Energy, E(TD-HF/TD-DFT) =  -3007.77921489
 Copying the excited state density for this state as the 1-particle RhoCI density.

 Excited State   2:      Singlet-A      2.2058 eV  562.07 nm  f=0.0569  <S**2>=0.000
     245 -> 247        0.60985
     246 -> 248        0.34893

 Excited State   3:      Singlet-A      3.4079 eV  363.81 nm  f=0.7540  <S**2>=0.000
     243 -> 247       -0.12035
     245 -> 247       -0.33430
     246 -> 248        0.59861
     245 <- 247        0.11498

 Excited State   4:      Singlet-A      3.5790 eV  346.42 nm  f=0.0245  <S**2>=0.000
     240 -> 247        0.48682
     240 -> 249       -0.38224
     240 -> 250       -0.18159
     243 -> 247       -0.10936

 Excited State   5:      Singlet-A      3.7113 eV  334.07 nm  f=0.0020  <S**2>=0.000
     242 -> 247        0.49041
     242 -> 248        0.10219
     242 -> 249        0.28915
     242 -> 250       -0.26516
     243 -> 247       -0.18060
     244 -> 247        0.12317

 The electronic state is 1-A.
 Alpha  occ. eigenvalues --  -46.93935 -19.31290 -19.30461 -19.26044 -19.24278
 Alpha  occ. eigenvalues --  -19.24238 -19.23382 -14.46906 -14.45947 -14.44621
 Alpha  occ. eigenvalues --  -14.43846 -10.44438 -10.42416 -10.39319 -10.39262
 Alpha  occ. eigenvalues --  -10.35863 -10.35010 -10.34914 -10.34784 -10.34756
 Alpha  occ. eigenvalues --  -10.34366 -10.34303 -10.34249 -10.33858 -10.33597
 Alpha  occ. eigenvalues --  -10.32616 -10.32425 -10.32187 -10.32093 -10.32058
 Alpha  occ. eigenvalues --  -10.31937 -10.31828 -10.31793 -10.31724 -10.31656
 Alpha  occ. eigenvalues --  -10.31578 -10.31496 -10.30816 -10.30813 -10.30638
 Alpha  occ. eigenvalues --  -10.30478 -10.30159 -10.30023 -10.29975 -10.29897
 Alpha  occ. eigenvalues --  -10.29888 -10.29667 -10.29624 -10.29486 -10.29422
 Alpha  occ. eigenvalues --  -10.29274 -10.29202 -10.29117 -10.29033 -10.28967
 Alpha  occ. eigenvalues --  -10.28842 -10.28788 -10.28741 -10.28570 -10.28535
 Alpha  occ. eigenvalues --  -10.28495 -10.28444 -10.28235 -10.28155 -10.27722
 Alpha  occ. eigenvalues --  -10.27482  -3.20155  -1.93758  -1.93266  -1.93175
 Alpha  occ. eigenvalues --   -1.18590  -1.18064  -1.12608  -1.11301  -1.10563
 Alpha  occ. eigenvalues --   -1.08434  -1.07053  -1.05896  -1.05598  -1.04639
 Alpha  occ. eigenvalues --   -0.94196  -0.92369  -0.91925  -0.91242  -0.91010
 Alpha  occ. eigenvalues --   -0.90508  -0.90397  -0.89659  -0.89247  -0.89008
 Alpha  occ. eigenvalues --   -0.88091  -0.87536  -0.86426  -0.85964  -0.85211
 Alpha  occ. eigenvalues --   -0.84764  -0.84611  -0.83217  -0.82710  -0.82216
 Alpha  occ. eigenvalues --   -0.81983  -0.80424  -0.80201  -0.79147  -0.77929
 Alpha  occ. eigenvalues --   -0.77356  -0.77208  -0.77161  -0.76951  -0.76193
 Alpha  occ. eigenvalues --   -0.75434  -0.74463  -0.73612  -0.72708  -0.70653
 Alpha  occ. eigenvalues --   -0.70222  -0.70095  -0.69263  -0.68568  -0.67852
 Alpha  occ. eigenvalues --   -0.67629  -0.67334  -0.66554  -0.66166  -0.65727
 Alpha  occ. eigenvalues --   -0.65142  -0.64954  -0.63955  -0.63005  -0.62389
 Alpha  occ. eigenvalues --   -0.62236  -0.61692  -0.60943  -0.60336  -0.59784
 Alpha  occ. eigenvalues --   -0.59275  -0.58955  -0.58284  -0.57720  -0.57438
 Alpha  occ. eigenvalues --   -0.56913  -0.56564  -0.56459  -0.56066  -0.55919
 Alpha  occ. eigenvalues --   -0.55726  -0.55636  -0.55569  -0.55362  -0.54979
 Alpha  occ. eigenvalues --   -0.54841  -0.54527  -0.54364  -0.54047  -0.53812
 Alpha  occ. eigenvalues --   -0.53543  -0.53492  -0.53015  -0.52986  -0.52882
 Alpha  occ. eigenvalues --   -0.52496  -0.52230  -0.52107  -0.52014  -0.51553
 Alpha  occ. eigenvalues --   -0.51405  -0.51111  -0.51069  -0.50774  -0.50704
 Alpha  occ. eigenvalues --   -0.50428  -0.50170  -0.50087  -0.49921  -0.49605
 Alpha  occ. eigenvalues --   -0.49499  -0.49279  -0.49082  -0.48960  -0.48752
 Alpha  occ. eigenvalues --   -0.48615  -0.48435  -0.47997  -0.47869  -0.47795
 Alpha  occ. eigenvalues --   -0.47384  -0.47277  -0.47249  -0.47100  -0.46991
 Alpha  occ. eigenvalues --   -0.46877  -0.46613  -0.46440  -0.46046  -0.45767
 Alpha  occ. eigenvalues --   -0.45545  -0.45377  -0.45332  -0.44909  -0.44817
 Alpha  occ. eigenvalues --   -0.44644  -0.44436  -0.43986  -0.43819  -0.43792
 Alpha  occ. eigenvalues --   -0.43494  -0.43456  -0.43409  -0.43260  -0.43094
 Alpha  occ. eigenvalues --   -0.42867  -0.42797  -0.42433  -0.42076  -0.41840
 Alpha  occ. eigenvalues --   -0.41578  -0.41359  -0.41101  -0.41074  -0.40802
 Alpha  occ. eigenvalues --   -0.40367  -0.40247  -0.40021  -0.39612  -0.39277
 Alpha  occ. eigenvalues --   -0.38649  -0.38543  -0.38439  -0.38283  -0.38242
 Alpha  occ. eigenvalues --   -0.37853  -0.37633  -0.36627  -0.36355  -0.36263
 Alpha  occ. eigenvalues --   -0.35861  -0.35531  -0.35066  -0.33773  -0.33360
 Alpha  occ. eigenvalues --   -0.32690  -0.32658  -0.32490  -0.32068  -0.25734
 Alpha  occ. eigenvalues --   -0.22445
 Alpha virt. eigenvalues --   -0.06321  -0.00062   0.01743   0.04300   0.05779
 Alpha virt. eigenvalues --    0.06842   0.07311   0.07608   0.08339   0.09069
 Alpha virt. eigenvalues --    0.10509   0.11430   0.11474   0.12321   0.12727

 Mulliken charges:
               1
     1  Mg   0.997176
     2  C   -0.076801
     3  C   -0.092093
     4  C   -0.084817
     5  C   -0.095006
     6  N   -0.324217
     7  C    0.009704
     8  C   -0.124962
     9  C   -0.077525
    10  C    0.039377
    11  C    0.052280
    12  C    0.015949
    13  C    0.029161
    14  C    0.230213
    15  O   -0.266179
    16  O   -0.371873
    17  N   -0.425804
    18  C    0.137110
    19  C   -0.126751
    20  C   -0.098605
    21  C    0.172989
    22  C    0.045304
    23  C    0.048991
    24  O   -0.249036
    25  C   -0.010305
    26  N   -0.383649
    27  C    0.069044
    28  C   -0.099703
    29  C   -0.054497
    30  C    0.039773
    31  C    0.026463
    32  C    0.014779
    33  C   -0.049970
    34  N   -0.465872
    35  C    0.149922
    36  C   -0.193252
    37  C   -0.089228
    38  C    0.206612
    39  C    0.076978
    40  C    0.175409
    41  O   -0.182922
    42  C   -0.086581
    43  C    0.231374
    44  O   -0.267722
    45  O   -0.355890
    46  C    0.122111
    47  C    0.261490
    48  C   -0.172749
    49  C   -0.177899
    50  C    0.056027
    51  C    0.020541
    52  C   -0.030982
    53  C    0.007563
    54  C   -0.184821
    55  C    0.013253
    56  C   -0.034039
    57  C   -0.009856
    58  C   -0.008651
    59  C   -0.185019
    60  C   -0.016868
    61  C    0.008731
    62  C   -0.035589
    63  C    0.014835
    64  C   -0.231138
    65  C   -0.017449
    66  C    0.016039
    67  H   -0.006154
    68  H    0.018410
    69  H   -0.006788
    70  H    0.055130
    71  H    0.032592
    72  H    0.036383
    73  H    0.048460
    74  H    0.036782
    75  H    0.042198
    76  H    0.036568
    77  H    0.069711
    78  H    0.057365
    79  H    0.040584
    80  H    0.035665
    81  H    0.066983
    82  H    0.078085
    83  H    0.044990
    84  H    0.059474
    85  H    0.047167
    86  H    0.034576
    87  H    0.037329
    88  H    0.039908
    89  H    0.029460
    90  H    0.033258
    91  H    0.025895
    92  H    0.029409
    93  H    0.026513
    94  H    0.039826
    95  H    0.064738
    96  H    0.063650
    97  H    0.034596
    98  H    0.063262
    99  H    0.057747
   100  H    0.070993
   101  H    0.044376
   102  H    0.048868
   103  H    0.030679
   104  H    0.014024
   105  H    0.049073
   106  H    0.052445
   107  H    0.025013
   108  H    0.015997
   109  H    0.022344
   110  H    0.032831
   111  H    0.036093
   112  H    0.018318
   113  H    0.018773
   114  H    0.016284
   115  H    0.034662
   116  H    0.030693
   117  H    0.027889
   118  H    0.017651
   119  H    0.010199
   120  H    0.022463
   121  H    0.023238
   122  H    0.012172
   123  H    0.029471
   124  H    0.015995
   125  H    0.011837
   126  H    0.028007
   127  H    0.024175
   128  H    0.020276
   129  H    0.016672
   130  H    0.021689
   131  H    0.026210
   132  H    0.025777
   133  H    0.013973
   134  H    0.028070
   135  H    0.014419
   136  H    0.038189
   137  H    0.014865
   138  H    0.019251
   139  H    0.038084
   140  H    0.033314
 Sum of Mulliken charges =  -0.00000

 Dipole moment (field-independent basis, Debye):
    X=              4.3495    Y=              4.7240    Z=             -2.3196  Tot=              6.8275
 Quadrupole moment (field-independent basis, Debye-Ang):
   XX=           -370.7267   YY=           -429.0488   ZZ=           -402.2158
   XY=            -11.8721   XZ=              2.1932   YZ=             10.8079

 Normal termination of Gaussian 16 at Wed May  4 09:32:02 2022.
