 Gaussian 16, Revision A.03,
 Gaussian 16:  ES64L-G16RevA.03 25-Dec-2016

 --------------------
 #p ZINDO=(nstates=5)
 --------------------

 ----------------------------
 step_151_chromophore_3 ZINDO
 ----------------------------
 Symbolic Z-matrix:
 Charge =  0 Multiplicity = 1

                         Standard orientation:
 ---------------------------------------------------------------------
 Center     Atomic      Atomic             Coordinates (Angstroms)
 Number     Number       Type             X           Y           Z
 ---------------------------------------------------------------------
      1         12           0       -5.218126    0.626570    0.182790
      2          6           0       -3.924269   -2.526362   -0.283423
      3          6           0       -2.061425    1.936262    0.097547
      4          6           0       -6.495834    3.662717    0.441161
      5          6           0       -8.410710   -0.765778    0.382478
      6          7           0       -3.231682   -0.225151   -0.170363
      7          6           0       -2.911303   -1.526241   -0.335017
      8          6           0       -1.365965   -1.784002   -0.312029
      9          6           0       -0.908785   -0.361227    0.095570
     10          6           0       -2.127271    0.502577    0.031470
     11          6           0       -0.177584   -0.165148    1.402863
     12          6           0       -0.798803   -2.296129   -1.725767
     13          6           0        0.408514   -3.338994   -1.853379
     14          6           0        1.538232   -3.060914   -0.862751
     15          8           0        2.031101   -3.925159   -0.132277
     16          8           0        1.900808   -1.703006   -0.831197
     17          7           0       -4.399501    2.543988    0.235942
     18          6           0       -3.075122    2.923872    0.196415
     19          6           0       -2.944168    4.406054    0.068518
     20          6           0       -4.276432    4.913423    0.045086
     21          6           0       -5.146004    3.633396    0.158329
     22          6           0       -1.647922    5.160377   -0.151804
     23          6           0       -4.866705    6.261690   -0.196799
     24          8           0       -6.090804    6.502196   -0.208249
     25          6           0       -3.855743    7.333914   -0.270240
     26          7           0       -7.150813    1.349219    0.567894
     27          6           0       -7.413210    2.661209    0.651701
     28          6           0       -8.899438    2.954698    0.689206
     29          6           0       -9.625716    1.545487    0.504671
     30          6           0       -8.344476    0.654068    0.469491
     31          6           0       -9.417380    3.783563    1.814702
     32          6           0      -10.510558    1.352167   -0.733472
     33          6           0      -11.844810    0.815634   -0.456608
     34          7           0       -5.958883   -1.201840    0.195629
     35          6           0       -7.280076   -1.638794    0.216240
     36          6           0       -7.351994   -3.083085    0.350990
     37          6           0       -6.008005   -3.498849    0.058473
     38          6           0       -5.222254   -2.272477   -0.043452
     39          6           0       -8.660780   -3.870719    0.494931
     40          6           0       -5.138534   -4.680636   -0.000097
     41          8           0       -5.313802   -5.860688    0.188815
     42          6           0       -3.691465   -4.041211   -0.353278
     43          6           0       -2.721948   -4.451791    0.691883
     44          8           0       -2.828999   -4.194423    1.893112
     45          8           0       -1.732125   -5.252010    0.215803
     46          6           0       -0.792981   -5.782584    1.231168
     47          6           0        3.126087   -1.522491   -0.057813
     48          6           0        4.246510   -1.537853   -1.017070
     49          6           0        5.182265   -2.439924   -1.329250
     50          6           0        5.260815   -3.791608   -0.674722
     51          6           0        6.357114   -2.090629   -2.292929
     52          6           0        7.429542   -1.142831   -1.712662
     53          6           0        7.451180    0.321898   -2.452422
     54          6           0        8.579481    0.629554   -3.475098
     55          6           0        8.178265    0.925552   -4.956402
     56          6           0        9.588885    1.752144   -2.843512
     57          6           0       10.439004    1.285023   -1.692227
     58          6           0       10.006274    1.770149   -0.365650
     59          6           0       11.015731    2.688960    0.374831
     60          6           0       11.095882    4.062265   -0.312433
     61          6           0       12.488457    2.181032    0.576699
     62          6           0       12.987734    1.906049    1.976650
     63          6           0       13.049069    0.384500    2.426983
     64          6           0       12.462894    0.214477    3.868998
     65          6           0       13.428274   -0.638026    4.679102
     66          6           0       11.067573   -0.398077    3.998157
     67          1           0       -1.044817    2.333736    0.082420
     68          1           0       -7.002447    4.615511    0.609309
     69          1           0       -9.411376   -1.202699    0.417375
     70          1           0       -1.097433   -2.577762    0.385653
     71          1           0       -0.269473    0.010925   -0.704371
     72          1           0        0.085563   -1.170846    1.731142
     73          1           0       -0.889030    0.294319    2.088641
     74          1           0        0.733383    0.418395    1.268709
     75          1           0       -0.578867   -1.378604   -2.271259
     76          1           0       -1.666237   -2.850256   -2.084050
     77          1           0        0.858874   -3.363332   -2.844699
     78          1           0       -0.044037   -4.319989   -1.706579
     79          1           0       -1.655799    5.930865   -0.923099
     80          1           0       -1.009883    4.409092   -0.617390
     81          1           0       -1.165511    5.597577    0.722292
     82          1           0       -3.166725    7.376635    0.573793
     83          1           0       -4.451708    8.243769   -0.352784
     84          1           0       -3.434099    7.214851   -1.267613
     85          1           0       -9.029935    3.514159   -0.236886
     86          1           0      -10.171164    1.412506    1.439759
     87          1           0       -9.676155    4.817752    1.586279
     88          1           0       -8.669417    3.935868    2.593331
     89          1           0      -10.338464    3.362111    2.218155
     90          1           0      -10.061669    0.656811   -1.443687
     91          1           0      -10.667960    2.259843   -1.317505
     92          1           0      -12.278365    1.250247    0.444262
     93          1           0      -11.651327   -0.241838   -0.276517
     94          1           0      -12.534761    0.990374   -1.282642
     95          1           0       -8.436933   -4.843255    0.932597
     96          1           0       -9.232594   -3.843193   -0.432131
     97          1           0       -9.253268   -3.351822    1.248022
     98          1           0       -3.289913   -4.382956   -1.306324
     99          1           0       -0.453787   -6.816137    1.159901
    100          1           0       -1.005718   -5.626347    2.288123
    101          1           0        0.097290   -5.191094    1.019493
    102          1           0        3.188859   -2.135867    0.841012
    103          1           0        3.183083   -0.533212    0.396931
    104          1           0        4.330257   -0.568333   -1.508283
    105          1           0        4.859056   -4.508223   -1.391537
    106          1           0        4.759623   -3.813747    0.293839
    107          1           0        6.302011   -4.093330   -0.562357
    108          1           0        6.014769   -1.464370   -3.116633
    109          1           0        6.838064   -2.919550   -2.812846
    110          1           0        8.355160   -1.677411   -1.924458
    111          1           0        7.215203   -0.955456   -0.660266
    112          1           0        7.570121    1.035864   -1.637114
    113          1           0        6.488023    0.497421   -2.932414
    114          1           0        9.241075   -0.221087   -3.637438
    115          1           0        8.573337    0.079416   -5.518300
    116          1           0        8.675907    1.856764   -5.226597
    117          1           0        7.102329    1.023177   -5.104018
    118          1           0        9.014454    2.630650   -2.549783
    119          1           0       10.301833    2.152425   -3.564512
    120          1           0       11.410287    1.752628   -1.856419
    121          1           0       10.568032    0.202824   -1.738880
    122          1           0       10.083707    0.952245    0.350804
    123          1           0        9.008348    2.209231   -0.385679
    124          1           0       10.474768    2.893837    1.298165
    125          1           0       10.422738    4.025835   -1.168650
    126          1           0       12.033385    4.493272   -0.662970
    127          1           0       10.741504    4.816531    0.389643
    128          1           0       13.211888    2.889717    0.173711
    129          1           0       12.541461    1.268486   -0.018650
    130          1           0       12.280604    2.413046    2.634156
    131          1           0       14.006199    2.288263    2.054714
    132          1           0       14.095128    0.079235    2.393002
    133          1           0       12.463167   -0.175868    1.698023
    134          1           0       12.455868    1.185631    4.362621
    135          1           0       13.930122    0.100730    5.304000
    136          1           0       14.235737   -1.228042    4.246668
    137          1           0       12.877960   -1.251766    5.392929
    138          1           0       10.584133   -0.190589    3.043929
    139          1           0       10.510616    0.062804    4.813214
    140          1           0       11.168492   -1.473999    4.139396
 ---------------------------------------------------------------------

 SCF Done:  E(RZINDO/S) =  -474.316616213     A.U. after   19 cycles

 Excitation energies and oscillator strengths:

 Excited State   1:      Singlet-A      1.2707 eV  975.72 nm  f=0.5649  <S**2>=0.000
     175 ->178        -0.19430
     176 ->177         0.66133
 This state for optimization and/or second-order correction.
 Total Energy, E(CIS/TDA) =  -474.269918919
 Copying the excited state density for this state as the 1-particle RhoCI density.

 Excited State   2:      Singlet-A      1.8924 eV  655.18 nm  f=0.0049  <S**2>=0.000
     175 ->177         0.49659
     176 ->178         0.47642

 Excited State   3:      Singlet-A      2.8494 eV  435.13 nm  f=0.3119  <S**2>=0.000
     175 ->177        -0.23585
     176 ->178         0.32812
     176 ->179         0.51802
     176 ->181         0.16597

 Excited State   4:      Singlet-A      2.9240 eV  424.03 nm  f=0.0453  <S**2>=0.000
     168 ->177        -0.32759
     168 ->179         0.44491
     168 ->181        -0.20393
     168 ->186         0.18148
     168 ->187         0.15260
     176 ->179         0.13948

 Excited State   5:      Singlet-A      2.9938 eV  414.14 nm  f=0.7969  <S**2>=0.000
     168 ->179        -0.12336
     175 ->177         0.36874
     176 ->178        -0.34225
     176 ->179         0.40281

 The electronic state is 1-A.
 Alpha  occ. eigenvalues --   -1.85051  -1.81357  -1.80838  -1.73710  -1.72236
 Alpha  occ. eigenvalues --   -1.70437  -1.66853  -1.59320  -1.58688  -1.57637
 Alpha  occ. eigenvalues --   -1.55422  -1.50190  -1.49810  -1.48239  -1.46902
 Alpha  occ. eigenvalues --   -1.44883  -1.42353  -1.40418  -1.39952  -1.38595
 Alpha  occ. eigenvalues --   -1.37360  -1.33348  -1.33120  -1.31884  -1.29101
 Alpha  occ. eigenvalues --   -1.28360  -1.24492  -1.22650  -1.21027  -1.18517
 Alpha  occ. eigenvalues --   -1.18174  -1.15269  -1.15092  -1.14011  -1.12838
 Alpha  occ. eigenvalues --   -1.12321  -1.11612  -1.11541  -1.05147  -1.03934
 Alpha  occ. eigenvalues --   -1.03358  -1.01390  -0.98676  -0.97335  -0.96921
 Alpha  occ. eigenvalues --   -0.94610  -0.94373  -0.94162  -0.92685  -0.92064
 Alpha  occ. eigenvalues --   -0.91363  -0.90504  -0.89475  -0.88709  -0.86420
 Alpha  occ. eigenvalues --   -0.84699  -0.83630  -0.83253  -0.82085  -0.80393
 Alpha  occ. eigenvalues --   -0.80156  -0.80041  -0.78055  -0.76913  -0.76151
 Alpha  occ. eigenvalues --   -0.75637  -0.74847  -0.74153  -0.73667  -0.73485
 Alpha  occ. eigenvalues --   -0.73007  -0.72289  -0.71731  -0.71534  -0.71241
 Alpha  occ. eigenvalues --   -0.70557  -0.70396  -0.69249  -0.68804  -0.68147
 Alpha  occ. eigenvalues --   -0.67858  -0.67444  -0.67027  -0.66691  -0.65932
 Alpha  occ. eigenvalues --   -0.65573  -0.65514  -0.64663  -0.64056  -0.63463
 Alpha  occ. eigenvalues --   -0.62904  -0.62557  -0.62289  -0.61944  -0.61615
 Alpha  occ. eigenvalues --   -0.61525  -0.61005  -0.60807  -0.60413  -0.59501
 Alpha  occ. eigenvalues --   -0.59327  -0.59067  -0.58956  -0.58554  -0.58262
 Alpha  occ. eigenvalues --   -0.57951  -0.57662  -0.57483  -0.57078  -0.56552
 Alpha  occ. eigenvalues --   -0.56307  -0.55773  -0.55220  -0.55050  -0.54871
 Alpha  occ. eigenvalues --   -0.54568  -0.54083  -0.53194  -0.52722  -0.52665
 Alpha  occ. eigenvalues --   -0.52351  -0.51896  -0.51704  -0.51263  -0.51236
 Alpha  occ. eigenvalues --   -0.50803  -0.50512  -0.50384  -0.50080  -0.49938
 Alpha  occ. eigenvalues --   -0.49749  -0.49449  -0.49333  -0.49161  -0.49005
 Alpha  occ. eigenvalues --   -0.48594  -0.48483  -0.48065  -0.47824  -0.47627
 Alpha  occ. eigenvalues --   -0.47220  -0.47213  -0.46876  -0.46771  -0.46457
 Alpha  occ. eigenvalues --   -0.46134  -0.45807  -0.45525  -0.45323  -0.45199
 Alpha  occ. eigenvalues --   -0.44821  -0.44431  -0.44338  -0.44170  -0.43759
 Alpha  occ. eigenvalues --   -0.43339  -0.43050  -0.42687  -0.42472  -0.42078
 Alpha  occ. eigenvalues --   -0.41658  -0.41367  -0.40651  -0.39157  -0.38565
 Alpha  occ. eigenvalues --   -0.37529  -0.37218  -0.35699  -0.34822  -0.34521
 Alpha  occ. eigenvalues --   -0.34095  -0.32565  -0.32239  -0.31898  -0.26474
 Alpha  occ. eigenvalues --   -0.21388
 Alpha virt. eigenvalues --   -0.07890  -0.02423  -0.00950   0.00959   0.01258
 Alpha virt. eigenvalues --    0.02819   0.03159   0.03704   0.04888   0.04956
 Alpha virt. eigenvalues --    0.06200   0.06610   0.06923   0.07620   0.08024

 Mulliken charges:
               1
     1  Mg   0.426956
     2  C   -0.020536
     3  C   -0.085015
     4  C   -0.079305
     5  C   -0.083589
     6  N   -0.257544
     7  C    0.084308
     8  C   -0.000397
     9  C    0.014844
    10  C    0.150092
    11  C   -0.045966
    12  C   -0.036457
    13  C    0.006229
    14  C    0.468440
    15  O   -0.512840
    16  O   -0.266306
    17  N   -0.309105
    18  C    0.105873
    19  C    0.028118
    20  C   -0.061082
    21  C    0.154957
    22  C   -0.042924
    23  C    0.339891
    24  O   -0.529750
    25  C   -0.034359
    26  N   -0.276873
    27  C    0.163853
    28  C    0.008264
    29  C   -0.001087
    30  C    0.097368
    31  C   -0.045580
    32  C   -0.016757
    33  C   -0.051951
    34  N   -0.302030
    35  C    0.078463
    36  C    0.010473
    37  C   -0.071363
    38  C    0.120734
    39  C   -0.038203
    40  C    0.338057
    41  O   -0.502967
    42  C    0.047097
    43  C    0.490903
    44  O   -0.541062
    45  O   -0.264687
    46  C    0.067133
    47  C    0.111919
    48  C   -0.079102
    49  C    0.001102
    50  C   -0.040718
    51  C   -0.031925
    52  C   -0.037558
    53  C   -0.039369
    54  C   -0.021213
    55  C   -0.058741
    56  C   -0.039971
    57  C   -0.026326
    58  C   -0.028168
    59  C   -0.012191
    60  C   -0.065343
    61  C   -0.031063
    62  C   -0.042987
    63  C   -0.038706
    64  C   -0.009203
    65  C   -0.064180
    66  C   -0.053778
    67  H    0.018021
    68  H    0.039347
    69  H    0.030665
    70  H    0.047754
    71  H    0.023513
    72  H    0.025496
    73  H    0.030351
    74  H    0.024246
    75  H    0.030394
    76  H    0.022553
    77  H    0.048000
    78  H    0.044297
    79  H    0.027940
    80  H    0.019816
    81  H    0.041054
    82  H    0.048889
    83  H    0.029734
    84  H    0.043972
    85  H    0.029906
    86  H    0.037266
    87  H    0.019267
    88  H    0.021408
    89  H    0.018676
    90  H    0.019280
    91  H    0.015196
    92  H    0.015853
    93  H    0.018252
    94  H    0.019231
    95  H    0.037749
    96  H    0.038648
    97  H    0.020119
    98  H    0.049152
    99  H    0.042282
   100  H    0.056269
   101  H    0.029474
   102  H    0.054731
   103  H    0.021669
   104  H    0.014858
   105  H    0.033667
   106  H    0.035763
   107  H    0.017713
   108  H    0.016468
   109  H    0.023360
   110  H    0.025718
   111  H    0.028205
   112  H    0.016964
   113  H    0.023555
   114  H    0.016048
   115  H    0.021805
   116  H    0.022333
   117  H    0.022499
   118  H    0.016185
   119  H    0.010687
   120  H    0.014695
   121  H    0.020595
   122  H    0.006596
   123  H    0.027753
   124  H    0.014919
   125  H    0.013291
   126  H    0.021933
   127  H    0.008140
   128  H    0.019110
   129  H    0.016073
   130  H    0.022397
   131  H    0.019856
   132  H    0.023550
   133  H    0.022499
   134  H    0.021601
   135  H    0.003050
   136  H    0.028645
   137  H    0.011448
   138  H    0.012902
   139  H    0.023363
   140  H    0.024484
 Sum of Mulliken charges =   0.00000

 Dipole moment (field-independent basis, Debye):
    X=              5.9580    Y=              7.4664    Z=             -4.3760  Tot=             10.5068
 N-N= 4.362311496038D+03 E-N= 0.000000000000D+00  KE=-9.399017205443D+03
 Leave Link  601 at Wed May  4 09:45:20 2022, MaxMem=  6710886400 cpu:               0.7 elap:               0.0
 (Enter /sw/apps/gaussian-16.0/g16/l9999.exe)
 1\1\GINC-BP1-COMPUTE089\SP\RZINDO CIS\STO-3G\C55H74Mg1N4O6\OF15641\04-
 May-2022\0\\#p ZINDO=(nstates=5)\\step_151_chromophore_3 ZINDO\\0,1\Mg
 ,0,1.437,7.546,25.991\C,0,1.872,9.72,28.621\C,0,1.683,4.897,28.138\C,0
 ,0.829,5.485,23.481\C,0,1.311,10.274,23.82\N,0,1.644,7.369,28.164\C,0,
 1.81,8.366,29.059\C,0,2.175,7.848,30.492\C,0,2.364,6.35,30.146\C,0,1.8
 98,6.186,28.735\C,0,3.718,5.71,30.344\C,0,1.027,8.151,31.575\C,0,1.343
 ,8.494,33.106\C,0,2.451,7.62,33.692\O,0,3.421,8.072,34.307\O,0,2.274,6

 Normal termination of Gaussian 16 at Wed May  4 09:45:20 2022.
