 Gaussian 16, Revision A.03,
 Gaussian 16:  ES64L-G16RevA.03 25-Dec-2016

 ------------------------------
 #p blyp/Def2SVP td=(nstates=5)
 ------------------------------

 --------------------------------------------------
 step_951_chromophore_23 TDDFT with blyp functional
 --------------------------------------------------
 Symbolic Z-matrix:
 Charge =  0 Multiplicity = 1

                         Standard orientation:
 ---------------------------------------------------------------------
 Center     Atomic      Atomic             Coordinates (Angstroms)
 Number     Number       Type             X           Y           Z
 ---------------------------------------------------------------------
      1         12           0        4.686205    0.322329   -0.350135
      2          6           0        2.547236   -2.575124    0.115899
      3          6           0        2.268255    1.598453   -2.397660
      4          6           0        6.326513    3.240966   -0.150294
      5          6           0        6.667398   -0.987987    2.309763
      6          7           0        2.599628   -0.387956   -0.997272
      7          6           0        2.023149   -1.695738   -0.815442
      8          6           0        0.869785   -1.900960   -1.857958
      9          6           0        0.808105   -0.479856   -2.578883
     10          6           0        2.026977    0.325037   -2.004763
     11          6           0        0.751758   -0.630505   -4.065324
     12          6           0       -0.476422   -2.482042   -1.232663
     13          6           0       -1.062409   -3.585645   -2.031480
     14          6           0       -2.505587   -3.464844   -2.431176
     15          8           0       -2.797719   -2.744514   -3.422911
     16          8           0       -3.443663   -4.076861   -1.717546
     17          7           0        4.216089    2.250264   -1.061573
     18          6           0        3.302535    2.450685   -2.037228
     19          6           0        3.532022    3.801948   -2.503410
     20          6           0        4.542011    4.427808   -1.745412
     21          6           0        5.067993    3.346398   -0.918245
     22          6           0        2.577744    4.560874   -3.478692
     23          6           0        4.948044    5.882054   -1.786797
     24          8           0        4.474094    6.618560   -2.636963
     25          6           0        5.886403    6.520841   -0.766374
     26          7           0        6.187775    1.038202    0.864234
     27          6           0        6.822001    2.204607    0.657109
     28          6           0        8.221280    2.334031    1.443676
     29          6           0        8.075553    1.157473    2.453580
     30          6           0        6.889018    0.366431    1.843176
     31          6           0        9.507659    2.427745    0.589360
     32          6           0        7.958499    1.440973    3.942935
     33          6           0        9.261665    1.093235    4.771236
     34          7           0        4.749692   -1.555843    0.834965
     35          6           0        5.608938   -1.873900    1.894944
     36          6           0        5.259064   -3.210301    2.321437
     37          6           0        4.096936   -3.585135    1.639233
     38          6           0        3.770249   -2.483538    0.826594
     39          6           0        5.968015   -4.025297    3.363508
     40          6           0        3.062685   -4.598582    1.464562
     41          8           0        2.961086   -5.587284    2.112562
     42          6           0        2.133114   -4.004533    0.330100
     43          6           0        2.457245   -4.922848   -0.876572
     44          8           0        3.469606   -4.869034   -1.504299
     45          8           0        1.381297   -5.734325   -1.152170
     46          6           0        1.582735   -6.545742   -2.352914
     47          6           0       -4.877833   -3.927289   -1.934770
     48          6           0       -5.646987   -3.158941   -0.871817
     49          6           0       -6.140731   -1.920036   -0.792192
     50          6           0       -5.625551   -0.793112   -1.606899
     51          6           0       -6.858105   -1.499730    0.554191
     52          6           0       -8.124978   -0.839634    0.224264
     53          6           0       -9.355652   -1.536728    0.980889
     54          6           0      -10.442160   -0.515628    1.356937
     55          6           0      -11.803241   -1.172978    1.277057
     56          6           0      -10.199816    0.038783    2.805059
     57          6           0       -9.802980    1.517023    2.857599
     58          6           0       -8.485308    1.719886    3.737108
     59          6           0       -7.343201    2.393262    2.925955
     60          6           0       -6.007026    2.193054    3.714009
     61          6           0       -7.621872    3.848653    2.519057
     62          6           0       -6.655566    4.325393    1.433036
     63          6           0       -7.381230    4.890004    0.167826
     64          6           0       -6.955685    4.184546   -1.118703
     65          6           0       -6.844461    5.049404   -2.389930
     66          6           0       -7.854542    2.966152   -1.445491
     67          1           0        1.658272    2.050312   -3.183065
     68          1           0        6.934912    4.126842   -0.342000
     69          1           0        7.211219   -1.216828    3.228463
     70          1           0        1.294092   -2.561663   -2.613783
     71          1           0       -0.096285    0.093007   -2.377214
     72          1           0        0.220957    0.232331   -4.466712
     73          1           0        0.179296   -1.509115   -4.362053
     74          1           0        1.781786   -0.808735   -4.374410
     75          1           0       -1.166277   -1.645068   -1.338560
     76          1           0       -0.487261   -2.730366   -0.170971
     77          1           0       -0.925750   -4.468301   -1.407671
     78          1           0       -0.545866   -3.637920   -2.990607
     79          1           0        1.945346    3.886190   -4.054989
     80          1           0        3.107242    5.277773   -4.105848
     81          1           0        1.996033    5.140445   -2.761579
     82          1           0        6.925090    6.302376   -1.013815
     83          1           0        5.638082    6.120250    0.215991
     84          1           0        5.611744    7.574953   -0.717394
     85          1           0        8.115814    3.279416    1.976736
     86          1           0        8.906296    0.455243    2.388411
     87          1           0        9.983004    1.449826    0.514717
     88          1           0       10.096350    3.124185    1.186546
     89          1           0        9.136009    2.863617   -0.337612
     90          1           0        7.110746    0.888869    4.351458
     91          1           0        7.815558    2.509132    4.105819
     92          1           0       10.150757    0.753121    4.240023
     93          1           0        8.973453    0.225567    5.364498
     94          1           0        9.399547    1.990083    5.374763
     95          1           0        5.388123   -4.946936    3.414283
     96          1           0        6.007528   -3.441559    4.283470
     97          1           0        6.986415   -4.256109    3.053450
     98          1           0        1.109225   -4.110250    0.688570
     99          1           0        2.043830   -7.464457   -1.990828
    100          1           0        2.207954   -6.097569   -3.125028
    101          1           0        0.620961   -6.774672   -2.812578
    102          1           0       -5.333852   -4.916859   -1.895769
    103          1           0       -5.151713   -3.562555   -2.924793
    104          1           0       -6.116308   -3.844353   -0.165810
    105          1           0       -5.261135   -1.007452   -2.611665
    106          1           0       -4.983154   -0.156652   -0.999076
    107          1           0       -6.495713   -0.214416   -1.916049
    108          1           0       -6.175680   -0.820340    1.064533
    109          1           0       -7.022040   -2.428584    1.101353
    110          1           0       -8.347954   -0.986220   -0.833415
    111          1           0       -8.067307    0.218279    0.479785
    112          1           0       -9.087105   -2.090578    1.880493
    113          1           0       -9.709798   -2.221599    0.209344
    114          1           0      -10.554582    0.226610    0.566163
    115          1           0      -11.922341   -1.784974    0.384107
    116          1           0      -12.666198   -0.510404    1.343027
    117          1           0      -11.826512   -1.874650    2.110852
    118          1           0       -9.464310   -0.564281    3.337509
    119          1           0      -11.095825   -0.060961    3.417498
    120          1           0      -10.595727    2.126017    3.290656
    121          1           0       -9.528227    1.822760    1.847701
    122          1           0       -8.026083    0.892874    4.276950
    123          1           0       -8.804813    2.439965    4.490104
    124          1           0       -7.253082    1.711159    2.079897
    125          1           0       -5.412646    3.090982    3.883584
    126          1           0       -5.452972    1.467564    3.118566
    127          1           0       -6.219829    1.748325    4.684914
    128          1           0       -7.511244    4.507742    3.380377
    129          1           0       -8.676874    3.818821    2.245699
    130          1           0       -6.120765    3.452668    1.057392
    131          1           0       -5.873601    5.004688    1.772129
    132          1           0       -7.086067    5.937624    0.110372
    133          1           0       -8.461588    4.928753    0.313799
    134          1           0       -5.978181    3.713569   -1.018545
    135          1           0       -5.833688    4.996735   -2.793952
    136          1           0       -6.846416    6.111998   -2.149631
    137          1           0       -7.554452    4.758085   -3.164481
    138          1           0       -7.313788    2.110893   -1.040167
    139          1           0       -8.044400    2.912352   -2.517583
    140          1           0       -8.817983    2.905067   -0.940679
 ---------------------------------------------------------------------

 SCF Done:  E(RB-LYP) =  -3007.34732090     A.U. after   21 cycles

 Excitation energies and oscillator strengths:

 Excited State   1:      Singlet-A      1.7860 eV  694.20 nm  f=0.2750  <S**2>=0.000
     244 -> 247       -0.17434
     245 -> 248       -0.17243
     246 -> 247        0.67309
     246 <- 247       -0.15583
 This state for optimization and/or second-order correction.
 Total Energy, E(TD-HF/TD-DFT) =  -3007.28168697
 Copying the excited state density for this state as the 1-particle RhoCI density.

 Excited State   2:      Singlet-A      1.8649 eV  664.84 nm  f=0.0223  <S**2>=0.000
     244 -> 247        0.68342
     246 -> 247        0.17032

 Excited State   3:      Singlet-A      1.9284 eV  642.95 nm  f=0.0410  <S**2>=0.000
     243 -> 247       -0.40001
     245 -> 247        0.55261
     246 -> 248        0.16587

 Excited State   4:      Singlet-A      2.1191 eV  585.08 nm  f=0.0313  <S**2>=0.000
     242 -> 247        0.14756
     243 -> 247        0.56252
     245 -> 247        0.33130
     246 -> 248        0.20008

 Excited State   5:      Singlet-A      2.3029 eV  538.38 nm  f=0.0006  <S**2>=0.000
     241 -> 247        0.70223

 The electronic state is 1-A.
 Alpha  occ. eigenvalues --  -46.28139 -18.82903 -18.82593 -18.77720 -18.76389
 Alpha  occ. eigenvalues --  -18.75346 -18.75182 -14.03942 -14.03137 -14.00954
 Alpha  occ. eigenvalues --  -14.00433 -10.04555 -10.03777  -9.99829  -9.99808
 Alpha  occ. eigenvalues --   -9.98374  -9.97861  -9.97180  -9.97083  -9.97009
 Alpha  occ. eigenvalues --   -9.96553  -9.96217  -9.95533  -9.95162  -9.94832
 Alpha  occ. eigenvalues --   -9.94566  -9.94230  -9.94106  -9.93846  -9.93594
 Alpha  occ. eigenvalues --   -9.93574  -9.93531  -9.93498  -9.93451  -9.93432
 Alpha  occ. eigenvalues --   -9.93231  -9.93211  -9.93137  -9.93134  -9.92876
 Alpha  occ. eigenvalues --   -9.92453  -9.92453  -9.92378  -9.92137  -9.92087
 Alpha  occ. eigenvalues --   -9.91773  -9.91738  -9.91721  -9.91718  -9.91693
 Alpha  occ. eigenvalues --   -9.91658  -9.91651  -9.91541  -9.91489  -9.91460
 Alpha  occ. eigenvalues --   -9.91399  -9.91104  -9.91095  -9.91025  -9.90905
 Alpha  occ. eigenvalues --   -9.90890  -9.90674  -9.90605  -9.90491  -9.90348
 Alpha  occ. eigenvalues --   -9.90255  -2.92578  -1.72979  -1.72463  -1.72301
 Alpha  occ. eigenvalues --   -0.99033  -0.98241  -0.93721  -0.91676  -0.91627
 Alpha  occ. eigenvalues --   -0.87727  -0.86511  -0.85262  -0.85159  -0.83479
 Alpha  occ. eigenvalues --   -0.75498  -0.74149  -0.73116  -0.72946  -0.72922
 Alpha  occ. eigenvalues --   -0.72151  -0.71504  -0.70989  -0.70571  -0.69729
 Alpha  occ. eigenvalues --   -0.69490  -0.68884  -0.68555  -0.67663  -0.67152
 Alpha  occ. eigenvalues --   -0.66883  -0.65826  -0.65559  -0.64982  -0.64762
 Alpha  occ. eigenvalues --   -0.64510  -0.62330  -0.62166  -0.61466  -0.60586
 Alpha  occ. eigenvalues --   -0.60377  -0.59873  -0.59638  -0.59306  -0.58881
 Alpha  occ. eigenvalues --   -0.58656  -0.57427  -0.56289  -0.55715  -0.54850
 Alpha  occ. eigenvalues --   -0.53475  -0.53369  -0.52698  -0.52371  -0.51546
 Alpha  occ. eigenvalues --   -0.51531  -0.51227  -0.50906  -0.50371  -0.49963
 Alpha  occ. eigenvalues --   -0.49741  -0.49463  -0.48705  -0.48473  -0.46231
 Alpha  occ. eigenvalues --   -0.45956  -0.45744  -0.45490  -0.45150  -0.44926
 Alpha  occ. eigenvalues --   -0.44196  -0.43689  -0.43178  -0.42886  -0.42559
 Alpha  occ. eigenvalues --   -0.42253  -0.42000  -0.41865  -0.41262  -0.41110
 Alpha  occ. eigenvalues --   -0.41023  -0.40748  -0.40654  -0.40464  -0.40256
 Alpha  occ. eigenvalues --   -0.39986  -0.39878  -0.39797  -0.39651  -0.39543
 Alpha  occ. eigenvalues --   -0.38940  -0.38877  -0.38703  -0.38680  -0.38505
 Alpha  occ. eigenvalues --   -0.38215  -0.37900  -0.37670  -0.37486  -0.37362
 Alpha  occ. eigenvalues --   -0.37125  -0.36977  -0.36794  -0.36750  -0.36686
 Alpha  occ. eigenvalues --   -0.36591  -0.36493  -0.36144  -0.35529  -0.35374
 Alpha  occ. eigenvalues --   -0.35116  -0.34936  -0.34833  -0.34803  -0.34610
 Alpha  occ. eigenvalues --   -0.34440  -0.34253  -0.34181  -0.33952  -0.33882
 Alpha  occ. eigenvalues --   -0.33787  -0.33614  -0.33470  -0.33341  -0.32995
 Alpha  occ. eigenvalues --   -0.32933  -0.32784  -0.32653  -0.32424  -0.32385
 Alpha  occ. eigenvalues --   -0.32129  -0.32038  -0.31880  -0.31343  -0.31166
 Alpha  occ. eigenvalues --   -0.31076  -0.31032  -0.30802  -0.30711  -0.30598
 Alpha  occ. eigenvalues --   -0.30542  -0.30350  -0.30321  -0.30072  -0.29999
 Alpha  occ. eigenvalues --   -0.29659  -0.29443  -0.29357  -0.29262  -0.29143
 Alpha  occ. eigenvalues --   -0.28380  -0.28318  -0.27851  -0.27754  -0.27647
 Alpha  occ. eigenvalues --   -0.27583  -0.27415  -0.27141  -0.26417  -0.26295
 Alpha  occ. eigenvalues --   -0.25912  -0.25818  -0.25638  -0.25570  -0.25419
 Alpha  occ. eigenvalues --   -0.25242  -0.24456  -0.24175  -0.23931  -0.23692
 Alpha  occ. eigenvalues --   -0.23382  -0.22892  -0.22088  -0.21693  -0.20449
 Alpha  occ. eigenvalues --   -0.20195  -0.19929  -0.19127  -0.18505  -0.17475
 Alpha  occ. eigenvalues --   -0.15833
 Alpha virt. eigenvalues --   -0.11737  -0.07032  -0.05894  -0.04724  -0.03737
 Alpha virt. eigenvalues --   -0.03644  -0.02668  -0.02093  -0.01600   0.00161
 Alpha virt. eigenvalues --    0.00946   0.01081   0.01770   0.02594   0.02733

 Mulliken charges:
               1
     1  Mg   0.676918
     2  C    0.055898
     3  C   -0.041487
     4  C   -0.041111
     5  C   -0.073352
     6  N   -0.233367
     7  C   -0.124282
     8  C    0.071111
     9  C   -0.042097
    10  C    0.085506
    11  C    0.117095
    12  C    0.136751
    13  C    0.168779
    14  C    0.034938
    15  O   -0.258649
    16  O   -0.219988
    17  N   -0.299640
    18  C    0.126250
    19  C   -0.167789
    20  C    0.065482
    21  C    0.065166
    22  C    0.167781
    23  C   -0.099743
    24  O   -0.167742
    25  C    0.125406
    26  N   -0.231641
    27  C    0.031174
    28  C    0.004232
    29  C    0.011172
    30  C    0.015866
    31  C    0.162968
    32  C    0.087077
    33  C    0.041234
    34  N   -0.237145
    35  C    0.122666
    36  C   -0.205032
    37  C    0.099736
    38  C    0.064945
    39  C    0.178226
    40  C   -0.080828
    41  O   -0.085286
    42  C    0.023175
    43  C    0.118373
    44  O   -0.147927
    45  O   -0.265637
    46  C    0.209442
    47  C    0.352485
    48  C   -0.111649
    49  C   -0.183002
    50  C    0.157537
    51  C    0.142800
    52  C    0.040652
    53  C    0.073321
    54  C   -0.057934
    55  C    0.089037
    56  C    0.143874
    57  C    0.052268
    58  C    0.075323
    59  C   -0.151574
    60  C    0.113062
    61  C    0.148120
    62  C    0.072687
    63  C    0.132290
    64  C   -0.110348
    65  C    0.113759
    66  C    0.070990
    67  H   -0.072012
    68  H   -0.077515
    69  H   -0.051403
    70  H   -0.016621
    71  H   -0.017905
    72  H   -0.002529
    73  H   -0.004096
    74  H   -0.011097
    75  H   -0.023216
    76  H   -0.004109
    77  H   -0.008704
    78  H   -0.003110
    79  H   -0.010979
    80  H    0.014579
    81  H    0.006180
    82  H    0.032579
    83  H   -0.004792
    84  H    0.000717
    85  H   -0.031429
    86  H   -0.028889
    87  H    0.002430
    88  H   -0.000480
    89  H   -0.001684
    90  H   -0.009566
    91  H   -0.022605
    92  H    0.001441
    93  H   -0.005268
    94  H    0.002457
    95  H    0.007876
    96  H    0.000699
    97  H   -0.006027
    98  H   -0.014777
    99  H    0.017391
   100  H    0.021643
   101  H    0.015526
   102  H   -0.019951
   103  H   -0.005564
   104  H   -0.040980
   105  H   -0.001416
   106  H    0.010509
   107  H   -0.023280
   108  H   -0.010951
   109  H   -0.025808
   110  H   -0.011984
   111  H   -0.000036
   112  H   -0.022740
   113  H   -0.037301
   114  H   -0.034136
   115  H   -0.029482
   116  H   -0.015452
   117  H   -0.030036
   118  H   -0.037947
   119  H   -0.041638
   120  H   -0.020932
   121  H    0.000037
   122  H   -0.024169
   123  H   -0.047339
   124  H   -0.036362
   125  H   -0.014708
   126  H   -0.019720
   127  H   -0.021409
   128  H   -0.035686
   129  H   -0.037678
   130  H   -0.034266
   131  H   -0.024499
   132  H   -0.046902
   133  H   -0.029494
   134  H   -0.031197
   135  H   -0.026654
   136  H   -0.030372
   137  H   -0.007823
   138  H   -0.005424
   139  H   -0.015449
   140  H   -0.014792
 Sum of Mulliken charges =  -0.00000

 Dipole moment (field-independent basis, Debye):
    X=              0.6887    Y=              0.4877    Z=              1.5479  Tot=              1.7630
 Quadrupole moment (field-independent basis, Debye-Ang):
   XX=           -354.7547   YY=           -434.5757   ZZ=           -410.6621
   XY=             11.8409   XZ=             12.6459   YZ=             29.3783

 Normal termination of Gaussian 16 at Sun May  1 00:48:30 2022.
