 Gaussian 16, Revision A.03,
 Gaussian 16:  ES64L-G16RevA.03 25-Dec-2016

 -----------------------------------
 #p cam-b3lyp/Def2SVP td=(nstates=5)
 -----------------------------------

 -------------------------------------------------------
 step_951_chromophore_23 TDDFT with cam-b3lyp functional
 -------------------------------------------------------
 Symbolic Z-matrix:
 Charge =  0 Multiplicity = 1

                         Standard orientation:
 ---------------------------------------------------------------------
 Center     Atomic      Atomic             Coordinates (Angstroms)
 Number     Number       Type             X           Y           Z
 ---------------------------------------------------------------------
      1         12           0        4.686205    0.322329   -0.350135
      2          6           0        2.547236   -2.575124    0.115899
      3          6           0        2.268255    1.598453   -2.397660
      4          6           0        6.326513    3.240966   -0.150294
      5          6           0        6.667398   -0.987987    2.309763
      6          7           0        2.599628   -0.387956   -0.997272
      7          6           0        2.023149   -1.695738   -0.815442
      8          6           0        0.869785   -1.900960   -1.857958
      9          6           0        0.808105   -0.479856   -2.578883
     10          6           0        2.026977    0.325037   -2.004763
     11          6           0        0.751758   -0.630505   -4.065324
     12          6           0       -0.476422   -2.482042   -1.232663
     13          6           0       -1.062409   -3.585645   -2.031480
     14          6           0       -2.505587   -3.464844   -2.431176
     15          8           0       -2.797719   -2.744514   -3.422911
     16          8           0       -3.443663   -4.076861   -1.717546
     17          7           0        4.216089    2.250264   -1.061573
     18          6           0        3.302535    2.450685   -2.037228
     19          6           0        3.532022    3.801948   -2.503410
     20          6           0        4.542011    4.427808   -1.745412
     21          6           0        5.067993    3.346398   -0.918245
     22          6           0        2.577744    4.560874   -3.478692
     23          6           0        4.948044    5.882054   -1.786797
     24          8           0        4.474094    6.618560   -2.636963
     25          6           0        5.886403    6.520841   -0.766374
     26          7           0        6.187775    1.038202    0.864234
     27          6           0        6.822001    2.204607    0.657109
     28          6           0        8.221280    2.334031    1.443676
     29          6           0        8.075553    1.157473    2.453580
     30          6           0        6.889018    0.366431    1.843176
     31          6           0        9.507659    2.427745    0.589360
     32          6           0        7.958499    1.440973    3.942935
     33          6           0        9.261665    1.093235    4.771236
     34          7           0        4.749692   -1.555843    0.834965
     35          6           0        5.608938   -1.873900    1.894944
     36          6           0        5.259064   -3.210301    2.321437
     37          6           0        4.096936   -3.585135    1.639233
     38          6           0        3.770249   -2.483538    0.826594
     39          6           0        5.968015   -4.025297    3.363508
     40          6           0        3.062685   -4.598582    1.464562
     41          8           0        2.961086   -5.587284    2.112562
     42          6           0        2.133114   -4.004533    0.330100
     43          6           0        2.457245   -4.922848   -0.876572
     44          8           0        3.469606   -4.869034   -1.504299
     45          8           0        1.381297   -5.734325   -1.152170
     46          6           0        1.582735   -6.545742   -2.352914
     47          6           0       -4.877833   -3.927289   -1.934770
     48          6           0       -5.646987   -3.158941   -0.871817
     49          6           0       -6.140731   -1.920036   -0.792192
     50          6           0       -5.625551   -0.793112   -1.606899
     51          6           0       -6.858105   -1.499730    0.554191
     52          6           0       -8.124978   -0.839634    0.224264
     53          6           0       -9.355652   -1.536728    0.980889
     54          6           0      -10.442160   -0.515628    1.356937
     55          6           0      -11.803241   -1.172978    1.277057
     56          6           0      -10.199816    0.038783    2.805059
     57          6           0       -9.802980    1.517023    2.857599
     58          6           0       -8.485308    1.719886    3.737108
     59          6           0       -7.343201    2.393262    2.925955
     60          6           0       -6.007026    2.193054    3.714009
     61          6           0       -7.621872    3.848653    2.519057
     62          6           0       -6.655566    4.325393    1.433036
     63          6           0       -7.381230    4.890004    0.167826
     64          6           0       -6.955685    4.184546   -1.118703
     65          6           0       -6.844461    5.049404   -2.389930
     66          6           0       -7.854542    2.966152   -1.445491
     67          1           0        1.658272    2.050312   -3.183065
     68          1           0        6.934912    4.126842   -0.342000
     69          1           0        7.211219   -1.216828    3.228463
     70          1           0        1.294092   -2.561663   -2.613783
     71          1           0       -0.096285    0.093007   -2.377214
     72          1           0        0.220957    0.232331   -4.466712
     73          1           0        0.179296   -1.509115   -4.362053
     74          1           0        1.781786   -0.808735   -4.374410
     75          1           0       -1.166277   -1.645068   -1.338560
     76          1           0       -0.487261   -2.730366   -0.170971
     77          1           0       -0.925750   -4.468301   -1.407671
     78          1           0       -0.545866   -3.637920   -2.990607
     79          1           0        1.945346    3.886190   -4.054989
     80          1           0        3.107242    5.277773   -4.105848
     81          1           0        1.996033    5.140445   -2.761579
     82          1           0        6.925090    6.302376   -1.013815
     83          1           0        5.638082    6.120250    0.215991
     84          1           0        5.611744    7.574953   -0.717394
     85          1           0        8.115814    3.279416    1.976736
     86          1           0        8.906296    0.455243    2.388411
     87          1           0        9.983004    1.449826    0.514717
     88          1           0       10.096350    3.124185    1.186546
     89          1           0        9.136009    2.863617   -0.337612
     90          1           0        7.110746    0.888869    4.351458
     91          1           0        7.815558    2.509132    4.105819
     92          1           0       10.150757    0.753121    4.240023
     93          1           0        8.973453    0.225567    5.364498
     94          1           0        9.399547    1.990083    5.374763
     95          1           0        5.388123   -4.946936    3.414283
     96          1           0        6.007528   -3.441559    4.283470
     97          1           0        6.986415   -4.256109    3.053450
     98          1           0        1.109225   -4.110250    0.688570
     99          1           0        2.043830   -7.464457   -1.990828
    100          1           0        2.207954   -6.097569   -3.125028
    101          1           0        0.620961   -6.774672   -2.812578
    102          1           0       -5.333852   -4.916859   -1.895769
    103          1           0       -5.151713   -3.562555   -2.924793
    104          1           0       -6.116308   -3.844353   -0.165810
    105          1           0       -5.261135   -1.007452   -2.611665
    106          1           0       -4.983154   -0.156652   -0.999076
    107          1           0       -6.495713   -0.214416   -1.916049
    108          1           0       -6.175680   -0.820340    1.064533
    109          1           0       -7.022040   -2.428584    1.101353
    110          1           0       -8.347954   -0.986220   -0.833415
    111          1           0       -8.067307    0.218279    0.479785
    112          1           0       -9.087105   -2.090578    1.880493
    113          1           0       -9.709798   -2.221599    0.209344
    114          1           0      -10.554582    0.226610    0.566163
    115          1           0      -11.922341   -1.784974    0.384107
    116          1           0      -12.666198   -0.510404    1.343027
    117          1           0      -11.826512   -1.874650    2.110852
    118          1           0       -9.464310   -0.564281    3.337509
    119          1           0      -11.095825   -0.060961    3.417498
    120          1           0      -10.595727    2.126017    3.290656
    121          1           0       -9.528227    1.822760    1.847701
    122          1           0       -8.026083    0.892874    4.276950
    123          1           0       -8.804813    2.439965    4.490104
    124          1           0       -7.253082    1.711159    2.079897
    125          1           0       -5.412646    3.090982    3.883584
    126          1           0       -5.452972    1.467564    3.118566
    127          1           0       -6.219829    1.748325    4.684914
    128          1           0       -7.511244    4.507742    3.380377
    129          1           0       -8.676874    3.818821    2.245699
    130          1           0       -6.120765    3.452668    1.057392
    131          1           0       -5.873601    5.004688    1.772129
    132          1           0       -7.086067    5.937624    0.110372
    133          1           0       -8.461588    4.928753    0.313799
    134          1           0       -5.978181    3.713569   -1.018545
    135          1           0       -5.833688    4.996735   -2.793952
    136          1           0       -6.846416    6.111998   -2.149631
    137          1           0       -7.554452    4.758085   -3.164481
    138          1           0       -7.313788    2.110893   -1.040167
    139          1           0       -8.044400    2.912352   -2.517583
    140          1           0       -8.817983    2.905067   -0.940679
 ---------------------------------------------------------------------

 SCF Done:  E(RCAM-B3LYP) =  -3007.14040960     A.U. after   16 cycles

 Excitation energies and oscillator strengths:

 Excited State   1:      Singlet-A      1.6608 eV  746.55 nm  f=0.3730  <S**2>=0.000
     245 -> 248        0.16874
     246 -> 247        0.68861
     245 <- 248        0.10683
 This state for optimization and/or second-order correction.
 Total Energy, E(TD-HF/TD-DFT) =  -3007.07937776
 Copying the excited state density for this state as the 1-particle RhoCI density.

 Excited State   2:      Singlet-A      2.2120 eV  560.50 nm  f=0.0988  <S**2>=0.000
     245 -> 247        0.63236
     246 -> 248       -0.29846

 Excited State   3:      Singlet-A      3.1512 eV  393.45 nm  f=0.0005  <S**2>=0.000
     243 -> 247       -0.10599
     244 -> 247        0.67537
     246 -> 248        0.10947

 Excited State   4:      Singlet-A      3.3326 eV  372.04 nm  f=0.0407  <S**2>=0.000
     243 -> 247        0.62456
     246 -> 248        0.29309

 Excited State   5:      Singlet-A      3.5717 eV  347.13 nm  f=0.8291  <S**2>=0.000
     242 -> 247       -0.11536
     243 -> 247       -0.27386
     244 -> 247       -0.13868
     245 -> 247        0.30222
     246 -> 248        0.53542
     245 <- 247       -0.10372

 The electronic state is 1-A.
 Alpha  occ. eigenvalues --  -46.89792 -19.25855 -19.25496 -19.20864 -19.19522
 Alpha  occ. eigenvalues --  -19.18681 -19.18055 -14.42793 -14.42082 -14.39488
 Alpha  occ. eigenvalues --  -14.38738 -10.40006 -10.39050 -10.35088 -10.35022
 Alpha  occ. eigenvalues --  -10.32514 -10.31852 -10.31705 -10.31606 -10.31539
 Alpha  occ. eigenvalues --  -10.31268 -10.30755 -10.29626 -10.29577 -10.28983
 Alpha  occ. eigenvalues --  -10.28638 -10.28626 -10.28278 -10.28254 -10.27792
 Alpha  occ. eigenvalues --  -10.27739 -10.27691 -10.27688 -10.27459 -10.27381
 Alpha  occ. eigenvalues --  -10.27348 -10.27341 -10.26925 -10.26845 -10.26799
 Alpha  occ. eigenvalues --  -10.26798 -10.26590 -10.26285 -10.26090 -10.25809
 Alpha  occ. eigenvalues --  -10.25566 -10.25465 -10.25407 -10.25402 -10.25370
 Alpha  occ. eigenvalues --  -10.25363 -10.25347 -10.25328 -10.25171 -10.25161
 Alpha  occ. eigenvalues --  -10.25087 -10.24748 -10.24746 -10.24655 -10.24589
 Alpha  occ. eigenvalues --  -10.24542 -10.24257 -10.24207 -10.24183 -10.24070
 Alpha  occ. eigenvalues --  -10.23929  -3.18121  -1.93001  -1.92579  -1.92416
 Alpha  occ. eigenvalues --   -1.17659  -1.16660  -1.12160  -1.10198  -1.09606
 Alpha  occ. eigenvalues --   -1.05547  -1.04197  -1.02961  -1.02651  -1.01018
 Alpha  occ. eigenvalues --   -0.92600  -0.91040  -0.89929  -0.89751  -0.89604
 Alpha  occ. eigenvalues --   -0.88847  -0.88214  -0.87571  -0.87129  -0.86173
 Alpha  occ. eigenvalues --   -0.85859  -0.85557  -0.84796  -0.83820  -0.83323
 Alpha  occ. eigenvalues --   -0.82989  -0.81834  -0.81532  -0.80857  -0.80653
 Alpha  occ. eigenvalues --   -0.80338  -0.77852  -0.77770  -0.77133  -0.75984
 Alpha  occ. eigenvalues --   -0.75708  -0.75205  -0.74934  -0.74583  -0.74086
 Alpha  occ. eigenvalues --   -0.73769  -0.72402  -0.71129  -0.70576  -0.69418
 Alpha  occ. eigenvalues --   -0.68138  -0.67881  -0.67196  -0.66690  -0.65731
 Alpha  occ. eigenvalues --   -0.65549  -0.65368  -0.64992  -0.64369  -0.63887
 Alpha  occ. eigenvalues --   -0.63604  -0.63441  -0.62461  -0.62332  -0.59862
 Alpha  occ. eigenvalues --   -0.59516  -0.59379  -0.59041  -0.58605  -0.58498
 Alpha  occ. eigenvalues --   -0.57627  -0.57146  -0.56315  -0.56040  -0.55743
 Alpha  occ. eigenvalues --   -0.55512  -0.54955  -0.54915  -0.54306  -0.54053
 Alpha  occ. eigenvalues --   -0.53795  -0.53488  -0.53348  -0.53037  -0.52909
 Alpha  occ. eigenvalues --   -0.52844  -0.52511  -0.52481  -0.52233  -0.52173
 Alpha  occ. eigenvalues --   -0.51817  -0.51626  -0.51281  -0.51174  -0.50865
 Alpha  occ. eigenvalues --   -0.50648  -0.50329  -0.50080  -0.49943  -0.49812
 Alpha  occ. eigenvalues --   -0.49578  -0.49355  -0.49171  -0.49101  -0.48820
 Alpha  occ. eigenvalues --   -0.48786  -0.48669  -0.48378  -0.48145  -0.47481
 Alpha  occ. eigenvalues --   -0.47092  -0.46956  -0.46796  -0.46628  -0.46612
 Alpha  occ. eigenvalues --   -0.46521  -0.46294  -0.46114  -0.45867  -0.45795
 Alpha  occ. eigenvalues --   -0.45586  -0.45287  -0.45219  -0.45129  -0.44880
 Alpha  occ. eigenvalues --   -0.44606  -0.44442  -0.44387  -0.44114  -0.43953
 Alpha  occ. eigenvalues --   -0.43842  -0.43569  -0.43512  -0.43278  -0.42812
 Alpha  occ. eigenvalues --   -0.42520  -0.42468  -0.42374  -0.42109  -0.42012
 Alpha  occ. eigenvalues --   -0.41965  -0.41651  -0.41558  -0.41376  -0.41148
 Alpha  occ. eigenvalues --   -0.40930  -0.40543  -0.40513  -0.40461  -0.40233
 Alpha  occ. eigenvalues --   -0.39552  -0.39443  -0.39070  -0.38740  -0.38568
 Alpha  occ. eigenvalues --   -0.38446  -0.38427  -0.37978  -0.37636  -0.37112
 Alpha  occ. eigenvalues --   -0.37080  -0.36665  -0.36495  -0.36445  -0.36308
 Alpha  occ. eigenvalues --   -0.35900  -0.35460  -0.35088  -0.34923  -0.34349
 Alpha  occ. eigenvalues --   -0.33852  -0.32970  -0.32749  -0.31521  -0.31095
 Alpha  occ. eigenvalues --   -0.30943  -0.30852  -0.29862  -0.28995  -0.24396
 Alpha  occ. eigenvalues --   -0.21056
 Alpha virt. eigenvalues --   -0.08927  -0.01828   0.00690   0.01381   0.02372
 Alpha virt. eigenvalues --    0.03546   0.04836   0.05469   0.05916   0.07178
 Alpha virt. eigenvalues --    0.07239   0.08118   0.08411   0.08855   0.08932

 Mulliken charges:
               1
     1  Mg   0.805139
     2  C    0.029498
     3  C   -0.054168
     4  C   -0.062968
     5  C   -0.073320
     6  N   -0.300450
     7  C   -0.077009
     8  C    0.020148
     9  C   -0.088519
    10  C    0.101344
    11  C    0.058934
    12  C    0.075823
    13  C    0.097281
    14  C    0.123320
    15  O   -0.302111
    16  O   -0.287543
    17  N   -0.385169
    18  C    0.134453
    19  C   -0.168726
    20  C   -0.010906
    21  C    0.098161
    22  C    0.113579
    23  C   -0.022935
    24  O   -0.207480
    25  C    0.046426
    26  N   -0.307073
    27  C    0.048469
    28  C   -0.042637
    29  C   -0.044851
    30  C    0.034865
    31  C    0.106142
    32  C    0.030092
    33  C   -0.018448
    34  N   -0.319497
    35  C    0.120974
    36  C   -0.199069
    37  C    0.025337
    38  C    0.099324
    39  C    0.125388
    40  C    0.011884
    41  O   -0.125185
    42  C   -0.049793
    43  C    0.202886
    44  O   -0.183619
    45  O   -0.328766
    46  C    0.167734
    47  C    0.319187
    48  C   -0.136042
    49  C   -0.195037
    50  C    0.092864
    51  C    0.084769
    52  C   -0.005151
    53  C    0.025231
    54  C   -0.120379
    55  C    0.034083
    56  C    0.086898
    57  C    0.001781
    58  C    0.024930
    59  C   -0.196596
    60  C    0.053901
    61  C    0.091739
    62  C    0.021083
    63  C    0.073355
    64  C   -0.171374
    65  C    0.053766
    66  C    0.023810
    67  H   -0.035736
    68  H   -0.044315
    69  H   -0.019563
    70  H    0.015721
    71  H    0.016230
    72  H    0.021536
    73  H    0.021593
    74  H    0.014043
    75  H    0.010133
    76  H    0.026299
    77  H    0.026049
    78  H    0.026814
    79  H    0.013104
    80  H    0.044864
    81  H    0.033378
    82  H    0.057543
    83  H    0.025048
    84  H    0.035178
    85  H    0.003363
    86  H    0.006496
    87  H    0.026491
    88  H    0.023144
    89  H    0.021037
    90  H    0.020992
    91  H    0.005422
    92  H    0.023823
    93  H    0.016887
    94  H    0.025285
    95  H    0.034761
    96  H    0.023749
    97  H    0.019522
    98  H    0.028264
    99  H    0.040905
   100  H    0.046382
   101  H    0.036989
   102  H    0.009982
   103  H    0.027970
   104  H   -0.010919
   105  H    0.026405
   106  H    0.033268
   107  H    0.000243
   108  H    0.015818
   109  H    0.004744
   110  H    0.015663
   111  H    0.016633
   112  H    0.003429
   113  H   -0.007402
   114  H   -0.003115
   115  H   -0.003782
   116  H    0.010016
   117  H   -0.006911
   118  H   -0.009206
   119  H   -0.009931
   120  H    0.008248
   121  H    0.019785
   122  H    0.003661
   123  H   -0.017423
   124  H   -0.012945
   125  H    0.009455
   126  H    0.002958
   127  H    0.003580
   128  H   -0.005834
   129  H   -0.009818
   130  H   -0.007825
   131  H    0.004373
   132  H   -0.015746
   133  H   -0.000587
   134  H    0.001445
   135  H   -0.001560
   136  H   -0.005100
   137  H    0.015196
   138  H    0.009697
   139  H    0.008491
   140  H    0.005837
 Sum of Mulliken charges =  -0.00000

 Dipole moment (field-independent basis, Debye):
    X=              0.7290    Y=              0.8789    Z=              1.3327  Tot=              1.7549
 Quadrupole moment (field-independent basis, Debye-Ang):
   XX=           -352.0394   YY=           -431.7047   ZZ=           -409.7710
   XY=             15.8363   XZ=             12.8695   YZ=             30.2049

 Normal termination of Gaussian 16 at Sat Apr 30 23:46:21 2022.
