 Gaussian 16, Revision A.03,
 Gaussian 16:  ES64L-G16RevA.03 25-Dec-2016

 ---------------------------------
 #p PBE1PBE/Def2SVP td=(nstates=5)
 ---------------------------------

 -----------------------------------------------------
 step_951_chromophore_23 TDDFT with PBE1PBE functional
 -----------------------------------------------------
 Symbolic Z-matrix:
 Charge =  0 Multiplicity = 1

                         Standard orientation:
 ---------------------------------------------------------------------
 Center     Atomic      Atomic             Coordinates (Angstroms)
 Number     Number       Type             X           Y           Z
 ---------------------------------------------------------------------
      1         12           0        4.686205    0.322329   -0.350135
      2          6           0        2.547236   -2.575124    0.115899
      3          6           0        2.268255    1.598453   -2.397660
      4          6           0        6.326513    3.240966   -0.150294
      5          6           0        6.667398   -0.987987    2.309763
      6          7           0        2.599628   -0.387956   -0.997272
      7          6           0        2.023149   -1.695738   -0.815442
      8          6           0        0.869785   -1.900960   -1.857958
      9          6           0        0.808105   -0.479856   -2.578883
     10          6           0        2.026977    0.325037   -2.004763
     11          6           0        0.751758   -0.630505   -4.065324
     12          6           0       -0.476422   -2.482042   -1.232663
     13          6           0       -1.062409   -3.585645   -2.031480
     14          6           0       -2.505587   -3.464844   -2.431176
     15          8           0       -2.797719   -2.744514   -3.422911
     16          8           0       -3.443663   -4.076861   -1.717546
     17          7           0        4.216089    2.250264   -1.061573
     18          6           0        3.302535    2.450685   -2.037228
     19          6           0        3.532022    3.801948   -2.503410
     20          6           0        4.542011    4.427808   -1.745412
     21          6           0        5.067993    3.346398   -0.918245
     22          6           0        2.577744    4.560874   -3.478692
     23          6           0        4.948044    5.882054   -1.786797
     24          8           0        4.474094    6.618560   -2.636963
     25          6           0        5.886403    6.520841   -0.766374
     26          7           0        6.187775    1.038202    0.864234
     27          6           0        6.822001    2.204607    0.657109
     28          6           0        8.221280    2.334031    1.443676
     29          6           0        8.075553    1.157473    2.453580
     30          6           0        6.889018    0.366431    1.843176
     31          6           0        9.507659    2.427745    0.589360
     32          6           0        7.958499    1.440973    3.942935
     33          6           0        9.261665    1.093235    4.771236
     34          7           0        4.749692   -1.555843    0.834965
     35          6           0        5.608938   -1.873900    1.894944
     36          6           0        5.259064   -3.210301    2.321437
     37          6           0        4.096936   -3.585135    1.639233
     38          6           0        3.770249   -2.483538    0.826594
     39          6           0        5.968015   -4.025297    3.363508
     40          6           0        3.062685   -4.598582    1.464562
     41          8           0        2.961086   -5.587284    2.112562
     42          6           0        2.133114   -4.004533    0.330100
     43          6           0        2.457245   -4.922848   -0.876572
     44          8           0        3.469606   -4.869034   -1.504299
     45          8           0        1.381297   -5.734325   -1.152170
     46          6           0        1.582735   -6.545742   -2.352914
     47          6           0       -4.877833   -3.927289   -1.934770
     48          6           0       -5.646987   -3.158941   -0.871817
     49          6           0       -6.140731   -1.920036   -0.792192
     50          6           0       -5.625551   -0.793112   -1.606899
     51          6           0       -6.858105   -1.499730    0.554191
     52          6           0       -8.124978   -0.839634    0.224264
     53          6           0       -9.355652   -1.536728    0.980889
     54          6           0      -10.442160   -0.515628    1.356937
     55          6           0      -11.803241   -1.172978    1.277057
     56          6           0      -10.199816    0.038783    2.805059
     57          6           0       -9.802980    1.517023    2.857599
     58          6           0       -8.485308    1.719886    3.737108
     59          6           0       -7.343201    2.393262    2.925955
     60          6           0       -6.007026    2.193054    3.714009
     61          6           0       -7.621872    3.848653    2.519057
     62          6           0       -6.655566    4.325393    1.433036
     63          6           0       -7.381230    4.890004    0.167826
     64          6           0       -6.955685    4.184546   -1.118703
     65          6           0       -6.844461    5.049404   -2.389930
     66          6           0       -7.854542    2.966152   -1.445491
     67          1           0        1.658272    2.050312   -3.183065
     68          1           0        6.934912    4.126842   -0.342000
     69          1           0        7.211219   -1.216828    3.228463
     70          1           0        1.294092   -2.561663   -2.613783
     71          1           0       -0.096285    0.093007   -2.377214
     72          1           0        0.220957    0.232331   -4.466712
     73          1           0        0.179296   -1.509115   -4.362053
     74          1           0        1.781786   -0.808735   -4.374410
     75          1           0       -1.166277   -1.645068   -1.338560
     76          1           0       -0.487261   -2.730366   -0.170971
     77          1           0       -0.925750   -4.468301   -1.407671
     78          1           0       -0.545866   -3.637920   -2.990607
     79          1           0        1.945346    3.886190   -4.054989
     80          1           0        3.107242    5.277773   -4.105848
     81          1           0        1.996033    5.140445   -2.761579
     82          1           0        6.925090    6.302376   -1.013815
     83          1           0        5.638082    6.120250    0.215991
     84          1           0        5.611744    7.574953   -0.717394
     85          1           0        8.115814    3.279416    1.976736
     86          1           0        8.906296    0.455243    2.388411
     87          1           0        9.983004    1.449826    0.514717
     88          1           0       10.096350    3.124185    1.186546
     89          1           0        9.136009    2.863617   -0.337612
     90          1           0        7.110746    0.888869    4.351458
     91          1           0        7.815558    2.509132    4.105819
     92          1           0       10.150757    0.753121    4.240023
     93          1           0        8.973453    0.225567    5.364498
     94          1           0        9.399547    1.990083    5.374763
     95          1           0        5.388123   -4.946936    3.414283
     96          1           0        6.007528   -3.441559    4.283470
     97          1           0        6.986415   -4.256109    3.053450
     98          1           0        1.109225   -4.110250    0.688570
     99          1           0        2.043830   -7.464457   -1.990828
    100          1           0        2.207954   -6.097569   -3.125028
    101          1           0        0.620961   -6.774672   -2.812578
    102          1           0       -5.333852   -4.916859   -1.895769
    103          1           0       -5.151713   -3.562555   -2.924793
    104          1           0       -6.116308   -3.844353   -0.165810
    105          1           0       -5.261135   -1.007452   -2.611665
    106          1           0       -4.983154   -0.156652   -0.999076
    107          1           0       -6.495713   -0.214416   -1.916049
    108          1           0       -6.175680   -0.820340    1.064533
    109          1           0       -7.022040   -2.428584    1.101353
    110          1           0       -8.347954   -0.986220   -0.833415
    111          1           0       -8.067307    0.218279    0.479785
    112          1           0       -9.087105   -2.090578    1.880493
    113          1           0       -9.709798   -2.221599    0.209344
    114          1           0      -10.554582    0.226610    0.566163
    115          1           0      -11.922341   -1.784974    0.384107
    116          1           0      -12.666198   -0.510404    1.343027
    117          1           0      -11.826512   -1.874650    2.110852
    118          1           0       -9.464310   -0.564281    3.337509
    119          1           0      -11.095825   -0.060961    3.417498
    120          1           0      -10.595727    2.126017    3.290656
    121          1           0       -9.528227    1.822760    1.847701
    122          1           0       -8.026083    0.892874    4.276950
    123          1           0       -8.804813    2.439965    4.490104
    124          1           0       -7.253082    1.711159    2.079897
    125          1           0       -5.412646    3.090982    3.883584
    126          1           0       -5.452972    1.467564    3.118566
    127          1           0       -6.219829    1.748325    4.684914
    128          1           0       -7.511244    4.507742    3.380377
    129          1           0       -8.676874    3.818821    2.245699
    130          1           0       -6.120765    3.452668    1.057392
    131          1           0       -5.873601    5.004688    1.772129
    132          1           0       -7.086067    5.937624    0.110372
    133          1           0       -8.461588    4.928753    0.313799
    134          1           0       -5.978181    3.713569   -1.018545
    135          1           0       -5.833688    4.996735   -2.793952
    136          1           0       -6.846416    6.111998   -2.149631
    137          1           0       -7.554452    4.758085   -3.164481
    138          1           0       -7.313788    2.110893   -1.040167
    139          1           0       -8.044400    2.912352   -2.517583
    140          1           0       -8.817983    2.905067   -0.940679
 ---------------------------------------------------------------------

 SCF Done:  E(RPBE1PBE) =  -3005.32908061     A.U. after   15 cycles

 Excitation energies and oscillator strengths:

 Excited State   1:      Singlet-A      1.8268 eV  678.69 nm  f=0.3591  <S**2>=0.000
     245 -> 248        0.16273
     246 -> 247        0.69639
     246 <- 247       -0.11890
 This state for optimization and/or second-order correction.
 Total Energy, E(TD-HF/TD-DFT) =  -3005.26194599
 Copying the excited state density for this state as the 1-particle RhoCI density.

 Excited State   2:      Singlet-A      2.2198 eV  558.53 nm  f=0.0955  <S**2>=0.000
     245 -> 247        0.64264
     246 -> 248       -0.26889

 Excited State   3:      Singlet-A      2.8171 eV  440.11 nm  f=0.0033  <S**2>=0.000
     244 -> 247        0.68608
     246 -> 248        0.10173

 Excited State   4:      Singlet-A      2.9995 eV  413.35 nm  f=0.0002  <S**2>=0.000
     243 -> 247        0.66998
     246 -> 248       -0.16819

 Excited State   5:      Singlet-A      3.0756 eV  403.12 nm  f=0.0006  <S**2>=0.000
     241 -> 247       -0.10243
     242 -> 247        0.66580
     242 -> 249        0.10428

 The electronic state is 1-A.
 Alpha  occ. eigenvalues --  -46.93169 -19.26484 -19.26145 -19.21048 -19.19768
 Alpha  occ. eigenvalues --  -19.18820 -19.18380 -14.42317 -14.41593 -14.39094
 Alpha  occ. eigenvalues --  -14.38457 -10.37014 -10.36082 -10.32227 -10.32170
 Alpha  occ. eigenvalues --  -10.29875 -10.29470 -10.29374 -10.29366 -10.29065
 Alpha  occ. eigenvalues --  -10.28861 -10.28367 -10.27503 -10.27120 -10.26823
 Alpha  occ. eigenvalues --  -10.26429 -10.26291 -10.26038 -10.25851 -10.25605
 Alpha  occ. eigenvalues --  -10.25583 -10.25412 -10.25358 -10.25211 -10.25172
 Alpha  occ. eigenvalues --  -10.25035 -10.24982 -10.24521 -10.24427 -10.24383
 Alpha  occ. eigenvalues --  -10.24268 -10.24122 -10.23579 -10.23528 -10.23357
 Alpha  occ. eigenvalues --  -10.23130 -10.23115 -10.23079 -10.23078 -10.22855
 Alpha  occ. eigenvalues --  -10.22854 -10.22789 -10.22783 -10.22714 -10.22709
 Alpha  occ. eigenvalues --  -10.22652 -10.22327 -10.22274 -10.22191 -10.22186
 Alpha  occ. eigenvalues --  -10.22091 -10.22014 -10.21659 -10.21603 -10.21468
 Alpha  occ. eigenvalues --  -10.21322  -3.15084  -1.87901  -1.87459  -1.87298
 Alpha  occ. eigenvalues --   -1.12399  -1.11488  -1.06981  -1.04865  -1.04424
 Alpha  occ. eigenvalues --   -1.00383  -0.98812  -0.97541  -0.97393  -0.95586
 Alpha  occ. eigenvalues --   -0.86979  -0.85175  -0.84073  -0.83906  -0.83888
 Alpha  occ. eigenvalues --   -0.82965  -0.82510  -0.81687  -0.81430  -0.80432
 Alpha  occ. eigenvalues --   -0.80267  -0.79798  -0.78996  -0.78088  -0.77598
 Alpha  occ. eigenvalues --   -0.77152  -0.76063  -0.75707  -0.75168  -0.74938
 Alpha  occ. eigenvalues --   -0.74498  -0.72166  -0.72095  -0.71385  -0.70311
 Alpha  occ. eigenvalues --   -0.69923  -0.69293  -0.69066  -0.68930  -0.68283
 Alpha  occ. eigenvalues --   -0.68035  -0.66878  -0.65572  -0.64869  -0.63801
 Alpha  occ. eigenvalues --   -0.62563  -0.62112  -0.61666  -0.60932  -0.59987
 Alpha  occ. eigenvalues --   -0.59975  -0.59873  -0.59477  -0.58908  -0.58168
 Alpha  occ. eigenvalues --   -0.57911  -0.57589  -0.57032  -0.56519  -0.54393
 Alpha  occ. eigenvalues --   -0.53872  -0.53824  -0.53627  -0.53128  -0.53005
 Alpha  occ. eigenvalues --   -0.52124  -0.51736  -0.50757  -0.50500  -0.50253
 Alpha  occ. eigenvalues --   -0.50050  -0.49479  -0.49371  -0.48914  -0.48601
 Alpha  occ. eigenvalues --   -0.48351  -0.48017  -0.47811  -0.47514  -0.47447
 Alpha  occ. eigenvalues --   -0.47377  -0.47024  -0.46924  -0.46835  -0.46659
 Alpha  occ. eigenvalues --   -0.46304  -0.46214  -0.45815  -0.45747  -0.45475
 Alpha  occ. eigenvalues --   -0.45242  -0.44902  -0.44630  -0.44539  -0.44371
 Alpha  occ. eigenvalues --   -0.44155  -0.43936  -0.43818  -0.43699  -0.43407
 Alpha  occ. eigenvalues --   -0.43355  -0.43345  -0.42993  -0.42756  -0.42155
 Alpha  occ. eigenvalues --   -0.41855  -0.41591  -0.41473  -0.41282  -0.41226
 Alpha  occ. eigenvalues --   -0.41167  -0.40982  -0.40836  -0.40540  -0.40474
 Alpha  occ. eigenvalues --   -0.40297  -0.40004  -0.39907  -0.39877  -0.39601
 Alpha  occ. eigenvalues --   -0.39239  -0.39159  -0.39149  -0.38898  -0.38637
 Alpha  occ. eigenvalues --   -0.38555  -0.38308  -0.38198  -0.38058  -0.37609
 Alpha  occ. eigenvalues --   -0.37361  -0.37258  -0.37084  -0.36998  -0.36819
 Alpha  occ. eigenvalues --   -0.36721  -0.36543  -0.36321  -0.36224  -0.35904
 Alpha  occ. eigenvalues --   -0.35772  -0.35392  -0.35326  -0.35294  -0.35105
 Alpha  occ. eigenvalues --   -0.34401  -0.34318  -0.33917  -0.33694  -0.33413
 Alpha  occ. eigenvalues --   -0.33371  -0.33194  -0.32720  -0.32529  -0.32138
 Alpha  occ. eigenvalues --   -0.31824  -0.31713  -0.31522  -0.31368  -0.31249
 Alpha  occ. eigenvalues --   -0.30760  -0.30285  -0.30101  -0.29833  -0.29328
 Alpha  occ. eigenvalues --   -0.29093  -0.28560  -0.27550  -0.27117  -0.26346
 Alpha  occ. eigenvalues --   -0.25917  -0.25676  -0.25331  -0.24674  -0.21266
 Alpha  occ. eigenvalues --   -0.18735
 Alpha virt. eigenvalues --   -0.11360  -0.05351  -0.03551  -0.02121  -0.01362
 Alpha virt. eigenvalues --   -0.00791   0.00400   0.01028   0.01341   0.03204
 Alpha virt. eigenvalues --    0.03753   0.04101   0.04674   0.05286   0.05567

 Mulliken charges:
               1
     1  Mg   0.943238
     2  C    0.014461
     3  C   -0.044619
     4  C   -0.067119
     5  C   -0.062385
     6  N   -0.398252
     7  C    0.001825
     8  C   -0.051933
     9  C   -0.159808
    10  C    0.136972
    11  C   -0.002181
    12  C    0.022515
    13  C    0.016610
    14  C    0.198061
    15  O   -0.333121
    16  O   -0.324508
    17  N   -0.496233
    18  C    0.160432
    19  C   -0.193587
    20  C   -0.064804
    21  C    0.134298
    22  C    0.051901
    23  C    0.027891
    24  O   -0.241917
    25  C   -0.028154
    26  N   -0.412019
    27  C    0.076490
    28  C   -0.108547
    29  C   -0.116185
    30  C    0.069132
    31  C    0.042765
    32  C   -0.028873
    33  C   -0.089613
    34  N   -0.434283
    35  C    0.141181
    36  C   -0.220696
    37  C   -0.016645
    38  C    0.147882
    39  C    0.068922
    40  C    0.105366
    41  O   -0.172310
    42  C   -0.159829
    43  C    0.295072
    44  O   -0.217938
    45  O   -0.361142
    46  C    0.111811
    47  C    0.277289
    48  C   -0.150606
    49  C   -0.237742
    50  C    0.035514
    51  C    0.019110
    52  C   -0.075634
    53  C   -0.025121
    54  C   -0.215102
    55  C   -0.026253
    56  C    0.042855
    57  C   -0.068173
    58  C   -0.025093
    59  C   -0.299221
    60  C   -0.002788
    61  C    0.036767
    62  C   -0.040043
    63  C    0.018837
    64  C   -0.267784
    65  C   -0.005748
    66  C   -0.036405
    67  H   -0.002728
    68  H   -0.008639
    69  H    0.011640
    70  H    0.054593
    71  H    0.052516
    72  H    0.048119
    73  H    0.051491
    74  H    0.042885
    75  H    0.044753
    76  H    0.056809
    77  H    0.060202
    78  H    0.058689
    79  H    0.039430
    80  H    0.071882
    81  H    0.062640
    82  H    0.081752
    83  H    0.052626
    84  H    0.062370
    85  H    0.040715
    86  H    0.045421
    87  H    0.053339
    88  H    0.050829
    89  H    0.049561
    90  H    0.052963
    91  H    0.038888
    92  H    0.049794
    93  H    0.044419
    94  H    0.052575
    95  H    0.063574
    96  H    0.051708
    97  H    0.048467
    98  H    0.065112
    99  H    0.063668
   100  H    0.067247
   101  H    0.058357
   102  H    0.036725
   103  H    0.053382
   104  H    0.018339
   105  H    0.052999
   106  H    0.059877
   107  H    0.029319
   108  H    0.050244
   109  H    0.036709
   110  H    0.049273
   111  H    0.057314
   112  H    0.033641
   113  H    0.026055
   114  H    0.034330
   115  H    0.024673
   116  H    0.038385
   117  H    0.022136
   118  H    0.022005
   119  H    0.022639
   120  H    0.040270
   121  H    0.053875
   122  H    0.033844
   123  H    0.017752
   124  H    0.037362
   125  H    0.036761
   126  H    0.030542
   127  H    0.030758
   128  H    0.027272
   129  H    0.023637
   130  H    0.025511
   131  H    0.035488
   132  H    0.018189
   133  H    0.030242
   134  H    0.039175
   135  H    0.026319
   136  H    0.022466
   137  H    0.041271
   138  H    0.040335
   139  H    0.035117
   140  H    0.033320
 Sum of Mulliken charges =  -0.00000

 Dipole moment (field-independent basis, Debye):
    X=              0.8079    Y=              0.7366    Z=              1.5059  Tot=              1.8609
 Quadrupole moment (field-independent basis, Debye-Ang):
   XX=           -346.7639   YY=           -429.3497   ZZ=           -406.2700
   XY=             15.1771   XZ=             14.6472   YZ=             30.1073

 Normal termination of Gaussian 16 at Sun May  1 00:06:53 2022.
