 Gaussian 16, Revision A.03,
 Gaussian 16:  ES64L-G16RevA.03 25-Dec-2016

 --------------------------------
 #p wB97XD/Def2SVP td=(nstates=5)
 --------------------------------

 ----------------------------------------------------
 step_951_chromophore_23 TDDFT with wB97XD functional
 ----------------------------------------------------
 Symbolic Z-matrix:
 Charge =  0 Multiplicity = 1

                         Standard orientation:
 ---------------------------------------------------------------------
 Center     Atomic      Atomic             Coordinates (Angstroms)
 Number     Number       Type             X           Y           Z
 ---------------------------------------------------------------------
      1         12           0        4.686205    0.322329   -0.350135
      2          6           0        2.547236   -2.575124    0.115899
      3          6           0        2.268255    1.598453   -2.397660
      4          6           0        6.326513    3.240966   -0.150294
      5          6           0        6.667398   -0.987987    2.309763
      6          7           0        2.599628   -0.387956   -0.997272
      7          6           0        2.023149   -1.695738   -0.815442
      8          6           0        0.869785   -1.900960   -1.857958
      9          6           0        0.808105   -0.479856   -2.578883
     10          6           0        2.026977    0.325037   -2.004763
     11          6           0        0.751758   -0.630505   -4.065324
     12          6           0       -0.476422   -2.482042   -1.232663
     13          6           0       -1.062409   -3.585645   -2.031480
     14          6           0       -2.505587   -3.464844   -2.431176
     15          8           0       -2.797719   -2.744514   -3.422911
     16          8           0       -3.443663   -4.076861   -1.717546
     17          7           0        4.216089    2.250264   -1.061573
     18          6           0        3.302535    2.450685   -2.037228
     19          6           0        3.532022    3.801948   -2.503410
     20          6           0        4.542011    4.427808   -1.745412
     21          6           0        5.067993    3.346398   -0.918245
     22          6           0        2.577744    4.560874   -3.478692
     23          6           0        4.948044    5.882054   -1.786797
     24          8           0        4.474094    6.618560   -2.636963
     25          6           0        5.886403    6.520841   -0.766374
     26          7           0        6.187775    1.038202    0.864234
     27          6           0        6.822001    2.204607    0.657109
     28          6           0        8.221280    2.334031    1.443676
     29          6           0        8.075553    1.157473    2.453580
     30          6           0        6.889018    0.366431    1.843176
     31          6           0        9.507659    2.427745    0.589360
     32          6           0        7.958499    1.440973    3.942935
     33          6           0        9.261665    1.093235    4.771236
     34          7           0        4.749692   -1.555843    0.834965
     35          6           0        5.608938   -1.873900    1.894944
     36          6           0        5.259064   -3.210301    2.321437
     37          6           0        4.096936   -3.585135    1.639233
     38          6           0        3.770249   -2.483538    0.826594
     39          6           0        5.968015   -4.025297    3.363508
     40          6           0        3.062685   -4.598582    1.464562
     41          8           0        2.961086   -5.587284    2.112562
     42          6           0        2.133114   -4.004533    0.330100
     43          6           0        2.457245   -4.922848   -0.876572
     44          8           0        3.469606   -4.869034   -1.504299
     45          8           0        1.381297   -5.734325   -1.152170
     46          6           0        1.582735   -6.545742   -2.352914
     47          6           0       -4.877833   -3.927289   -1.934770
     48          6           0       -5.646987   -3.158941   -0.871817
     49          6           0       -6.140731   -1.920036   -0.792192
     50          6           0       -5.625551   -0.793112   -1.606899
     51          6           0       -6.858105   -1.499730    0.554191
     52          6           0       -8.124978   -0.839634    0.224264
     53          6           0       -9.355652   -1.536728    0.980889
     54          6           0      -10.442160   -0.515628    1.356937
     55          6           0      -11.803241   -1.172978    1.277057
     56          6           0      -10.199816    0.038783    2.805059
     57          6           0       -9.802980    1.517023    2.857599
     58          6           0       -8.485308    1.719886    3.737108
     59          6           0       -7.343201    2.393262    2.925955
     60          6           0       -6.007026    2.193054    3.714009
     61          6           0       -7.621872    3.848653    2.519057
     62          6           0       -6.655566    4.325393    1.433036
     63          6           0       -7.381230    4.890004    0.167826
     64          6           0       -6.955685    4.184546   -1.118703
     65          6           0       -6.844461    5.049404   -2.389930
     66          6           0       -7.854542    2.966152   -1.445491
     67          1           0        1.658272    2.050312   -3.183065
     68          1           0        6.934912    4.126842   -0.342000
     69          1           0        7.211219   -1.216828    3.228463
     70          1           0        1.294092   -2.561663   -2.613783
     71          1           0       -0.096285    0.093007   -2.377214
     72          1           0        0.220957    0.232331   -4.466712
     73          1           0        0.179296   -1.509115   -4.362053
     74          1           0        1.781786   -0.808735   -4.374410
     75          1           0       -1.166277   -1.645068   -1.338560
     76          1           0       -0.487261   -2.730366   -0.170971
     77          1           0       -0.925750   -4.468301   -1.407671
     78          1           0       -0.545866   -3.637920   -2.990607
     79          1           0        1.945346    3.886190   -4.054989
     80          1           0        3.107242    5.277773   -4.105848
     81          1           0        1.996033    5.140445   -2.761579
     82          1           0        6.925090    6.302376   -1.013815
     83          1           0        5.638082    6.120250    0.215991
     84          1           0        5.611744    7.574953   -0.717394
     85          1           0        8.115814    3.279416    1.976736
     86          1           0        8.906296    0.455243    2.388411
     87          1           0        9.983004    1.449826    0.514717
     88          1           0       10.096350    3.124185    1.186546
     89          1           0        9.136009    2.863617   -0.337612
     90          1           0        7.110746    0.888869    4.351458
     91          1           0        7.815558    2.509132    4.105819
     92          1           0       10.150757    0.753121    4.240023
     93          1           0        8.973453    0.225567    5.364498
     94          1           0        9.399547    1.990083    5.374763
     95          1           0        5.388123   -4.946936    3.414283
     96          1           0        6.007528   -3.441559    4.283470
     97          1           0        6.986415   -4.256109    3.053450
     98          1           0        1.109225   -4.110250    0.688570
     99          1           0        2.043830   -7.464457   -1.990828
    100          1           0        2.207954   -6.097569   -3.125028
    101          1           0        0.620961   -6.774672   -2.812578
    102          1           0       -5.333852   -4.916859   -1.895769
    103          1           0       -5.151713   -3.562555   -2.924793
    104          1           0       -6.116308   -3.844353   -0.165810
    105          1           0       -5.261135   -1.007452   -2.611665
    106          1           0       -4.983154   -0.156652   -0.999076
    107          1           0       -6.495713   -0.214416   -1.916049
    108          1           0       -6.175680   -0.820340    1.064533
    109          1           0       -7.022040   -2.428584    1.101353
    110          1           0       -8.347954   -0.986220   -0.833415
    111          1           0       -8.067307    0.218279    0.479785
    112          1           0       -9.087105   -2.090578    1.880493
    113          1           0       -9.709798   -2.221599    0.209344
    114          1           0      -10.554582    0.226610    0.566163
    115          1           0      -11.922341   -1.784974    0.384107
    116          1           0      -12.666198   -0.510404    1.343027
    117          1           0      -11.826512   -1.874650    2.110852
    118          1           0       -9.464310   -0.564281    3.337509
    119          1           0      -11.095825   -0.060961    3.417498
    120          1           0      -10.595727    2.126017    3.290656
    121          1           0       -9.528227    1.822760    1.847701
    122          1           0       -8.026083    0.892874    4.276950
    123          1           0       -8.804813    2.439965    4.490104
    124          1           0       -7.253082    1.711159    2.079897
    125          1           0       -5.412646    3.090982    3.883584
    126          1           0       -5.452972    1.467564    3.118566
    127          1           0       -6.219829    1.748325    4.684914
    128          1           0       -7.511244    4.507742    3.380377
    129          1           0       -8.676874    3.818821    2.245699
    130          1           0       -6.120765    3.452668    1.057392
    131          1           0       -5.873601    5.004688    1.772129
    132          1           0       -7.086067    5.937624    0.110372
    133          1           0       -8.461588    4.928753    0.313799
    134          1           0       -5.978181    3.713569   -1.018545
    135          1           0       -5.833688    4.996735   -2.793952
    136          1           0       -6.846416    6.111998   -2.149631
    137          1           0       -7.554452    4.758085   -3.164481
    138          1           0       -7.313788    2.110893   -1.040167
    139          1           0       -8.044400    2.912352   -2.517583
    140          1           0       -8.817983    2.905067   -0.940679
 ---------------------------------------------------------------------

 SCF Done:  E(RwB97XD) =  -3007.84186001     A.U. after   18 cycles

 Excitation energies and oscillator strengths:

 Excited State   1:      Singlet-A      1.6016 eV  774.13 nm  f=0.3729  <S**2>=0.000
     245 -> 248        0.17461
     246 -> 247        0.68623
     245 <- 248        0.11625
 This state for optimization and/or second-order correction.
 Total Energy, E(TD-HF/TD-DFT) =  -3007.78300232
 Copying the excited state density for this state as the 1-particle RhoCI density.

 Excited State   2:      Singlet-A      2.1532 eV  575.82 nm  f=0.0964  <S**2>=0.000
     245 -> 247        0.63084
     246 -> 248       -0.30024

 Excited State   3:      Singlet-A      3.1712 eV  390.97 nm  f=0.0008  <S**2>=0.000
     243 -> 247       -0.11730
     244 -> 247        0.66598
     246 -> 248        0.12112

 Excited State   4:      Singlet-A      3.3568 eV  369.35 nm  f=0.0628  <S**2>=0.000
     243 -> 247        0.60458
     246 -> 248        0.32038

 Excited State   5:      Singlet-A      3.6098 eV  343.47 nm  f=0.9046  <S**2>=0.000
     243 -> 247       -0.29480
     244 -> 247       -0.15348
     245 -> 247        0.31300
     246 -> 248        0.52806
     245 <- 247       -0.10861

 The electronic state is 1-A.
 Alpha  occ. eigenvalues --  -46.96144 -19.31070 -19.30734 -19.25764 -19.24524
 Alpha  occ. eigenvalues --  -19.23707 -19.23035 -14.47381 -14.46718 -14.44091
 Alpha  occ. eigenvalues --  -14.43318 -10.43839 -10.42875 -10.39062 -10.39011
 Alpha  occ. eigenvalues --  -10.36403 -10.35763 -10.35611 -10.35587 -10.35585
 Alpha  occ. eigenvalues --  -10.35377 -10.34790 -10.33629 -10.33627 -10.33068
 Alpha  occ. eigenvalues --  -10.32686 -10.32671 -10.32461 -10.32216 -10.31892
 Alpha  occ. eigenvalues --  -10.31783 -10.31770 -10.31733 -10.31492 -10.31429
 Alpha  occ. eigenvalues --  -10.31356 -10.31334 -10.30911 -10.30779 -10.30768
 Alpha  occ. eigenvalues --  -10.30721 -10.30639 -10.30161 -10.29912 -10.29725
 Alpha  occ. eigenvalues --  -10.29489 -10.29424 -10.29380 -10.29347 -10.29340
 Alpha  occ. eigenvalues --  -10.29225 -10.29194 -10.29152 -10.29132 -10.29090
 Alpha  occ. eigenvalues --  -10.29014 -10.28683 -10.28645 -10.28571 -10.28527
 Alpha  occ. eigenvalues --  -10.28451 -10.28197 -10.28070 -10.28020 -10.27882
 Alpha  occ. eigenvalues --  -10.27757  -3.21948  -1.95508  -1.95066  -1.94904
 Alpha  occ. eigenvalues --   -1.19803  -1.18874  -1.14374  -1.12418  -1.11791
 Alpha  occ. eigenvalues --   -1.07742  -1.06196  -1.05018  -1.04657  -1.03033
 Alpha  occ. eigenvalues --   -0.94561  -0.92833  -0.91733  -0.91548  -0.91452
 Alpha  occ. eigenvalues --   -0.90620  -0.90178  -0.89337  -0.89037  -0.88077
 Alpha  occ. eigenvalues --   -0.87782  -0.87544  -0.86650  -0.85693  -0.85242
 Alpha  occ. eigenvalues --   -0.84814  -0.83749  -0.83409  -0.82796  -0.82594
 Alpha  occ. eigenvalues --   -0.82156  -0.79753  -0.79690  -0.79090  -0.77914
 Alpha  occ. eigenvalues --   -0.77568  -0.76984  -0.76739  -0.76543  -0.75933
 Alpha  occ. eigenvalues --   -0.75663  -0.74382  -0.73114  -0.72498  -0.71334
 Alpha  occ. eigenvalues --   -0.70140  -0.69744  -0.69217  -0.68554  -0.67598
 Alpha  occ. eigenvalues --   -0.67459  -0.67342  -0.66982  -0.66373  -0.65731
 Alpha  occ. eigenvalues --   -0.65515  -0.65241  -0.64440  -0.64153  -0.61840
 Alpha  occ. eigenvalues --   -0.61393  -0.61310  -0.61053  -0.60576  -0.60457
 Alpha  occ. eigenvalues --   -0.59564  -0.59147  -0.58222  -0.57978  -0.57651
 Alpha  occ. eigenvalues --   -0.57466  -0.56862  -0.56817  -0.56238  -0.55966
 Alpha  occ. eigenvalues --   -0.55702  -0.55386  -0.55215  -0.54914  -0.54810
 Alpha  occ. eigenvalues --   -0.54784  -0.54417  -0.54370  -0.54126  -0.54061
 Alpha  occ. eigenvalues --   -0.53773  -0.53553  -0.53141  -0.53082  -0.52760
 Alpha  occ. eigenvalues --   -0.52562  -0.52222  -0.52049  -0.51887  -0.51724
 Alpha  occ. eigenvalues --   -0.51480  -0.51252  -0.51114  -0.51006  -0.50711
 Alpha  occ. eigenvalues --   -0.50649  -0.50585  -0.50311  -0.50029  -0.49396
 Alpha  occ. eigenvalues --   -0.49033  -0.48867  -0.48724  -0.48563  -0.48470
 Alpha  occ. eigenvalues --   -0.48414  -0.48238  -0.48037  -0.47814  -0.47714
 Alpha  occ. eigenvalues --   -0.47488  -0.47215  -0.47109  -0.47028  -0.46838
 Alpha  occ. eigenvalues --   -0.46462  -0.46348  -0.46306  -0.46041  -0.45831
 Alpha  occ. eigenvalues --   -0.45724  -0.45503  -0.45396  -0.45217  -0.44791
 Alpha  occ. eigenvalues --   -0.44482  -0.44404  -0.44219  -0.44036  -0.43904
 Alpha  occ. eigenvalues --   -0.43856  -0.43553  -0.43428  -0.43311  -0.42995
 Alpha  occ. eigenvalues --   -0.42811  -0.42411  -0.42379  -0.42333  -0.42108
 Alpha  occ. eigenvalues --   -0.41431  -0.41321  -0.40949  -0.40629  -0.40412
 Alpha  occ. eigenvalues --   -0.40330  -0.40278  -0.39813  -0.39629  -0.39157
 Alpha  occ. eigenvalues --   -0.38904  -0.38690  -0.38414  -0.38324  -0.38221
 Alpha  occ. eigenvalues --   -0.37757  -0.37399  -0.37026  -0.36750  -0.36187
 Alpha  occ. eigenvalues --   -0.35877  -0.35201  -0.34671  -0.33724  -0.33101
 Alpha  occ. eigenvalues --   -0.32888  -0.32844  -0.32060  -0.31128  -0.26313
 Alpha  occ. eigenvalues --   -0.22850
 Alpha virt. eigenvalues --   -0.07278   0.00087   0.02773   0.04393   0.04653
 Alpha virt. eigenvalues --    0.05889   0.07156   0.07797   0.08150   0.09879
 Alpha virt. eigenvalues --    0.10298   0.10798   0.11360   0.11832   0.12150

 Mulliken charges:
               1
     1  Mg   0.937152
     2  C    0.014424
     3  C   -0.060641
     4  C   -0.077943
     5  C   -0.078477
     6  N   -0.366783
     7  C   -0.031214
     8  C   -0.024377
     9  C   -0.134056
    10  C    0.121493
    11  C    0.008535
    12  C    0.032803
    13  C    0.036594
    14  C    0.185417
    15  O   -0.330309
    16  O   -0.322259
    17  N   -0.465111
    18  C    0.151081
    19  C   -0.184374
    20  C   -0.056650
    21  C    0.127085
    22  C    0.066030
    23  C    0.022742
    24  O   -0.237409
    25  C   -0.016005
    26  N   -0.381902
    27  C    0.067945
    28  C   -0.087483
    29  C   -0.088947
    30  C    0.058075
    31  C    0.056233
    32  C   -0.017172
    33  C   -0.073542
    34  N   -0.399910
    35  C    0.130980
    36  C   -0.214661
    37  C   -0.015024
    38  C    0.131144
    39  C    0.079948
    40  C    0.087799
    41  O   -0.163216
    42  C   -0.117618
    43  C    0.269415
    44  O   -0.213402
    45  O   -0.359087
    46  C    0.126608
    47  C    0.291168
    48  C   -0.156221
    49  C   -0.222697
    50  C    0.046076
    51  C    0.039641
    52  C   -0.043938
    53  C   -0.010839
    54  C   -0.181007
    55  C   -0.012892
    56  C    0.050028
    57  C   -0.042408
    58  C   -0.011932
    59  C   -0.246679
    60  C    0.005621
    61  C    0.048917
    62  C   -0.020142
    63  C    0.030135
    64  C   -0.234878
    65  C    0.007106
    66  C   -0.016288
    67  H   -0.011366
    68  H   -0.020490
    69  H    0.005761
    70  H    0.039498
    71  H    0.042822
    72  H    0.043703
    73  H    0.045345
    74  H    0.035952
    75  H    0.035313
    76  H    0.050755
    77  H    0.052310
    78  H    0.050113
    79  H    0.035412
    80  H    0.068614
    81  H    0.057047
    82  H    0.079049
    83  H    0.046660
    84  H    0.061262
    85  H    0.029812
    86  H    0.030340
    87  H    0.048594
    88  H    0.045515
    89  H    0.041876
    90  H    0.045045
    91  H    0.030170
    92  H    0.044065
    93  H    0.037957
    94  H    0.047277
    95  H    0.058831
    96  H    0.045824
    97  H    0.042753
    98  H    0.057715
    99  H    0.059876
   100  H    0.063167
   101  H    0.054892
   102  H    0.033462
   103  H    0.049148
   104  H    0.013279
   105  H    0.049572
   106  H    0.054753
   107  H    0.019678
   108  H    0.042472
   109  H    0.026464
   110  H    0.038650
   111  H    0.030129
   112  H    0.023860
   113  H    0.017269
   114  H    0.022774
   115  H    0.018490
   116  H    0.033431
   117  H    0.013477
   118  H    0.011535
   119  H    0.015570
   120  H    0.034599
   121  H    0.034363
   122  H    0.024534
   123  H    0.007622
   124  H    0.007302
   125  H    0.031478
   126  H    0.025294
   127  H    0.024453
   128  H    0.019917
   129  H    0.010965
   130  H    0.010080
   131  H    0.030104
   132  H    0.009842
   133  H    0.021953
   134  H    0.027720
   135  H    0.020530
   136  H    0.015910
   137  H    0.035134
   138  H    0.024929
   139  H    0.029095
   140  H    0.025990
 Sum of Mulliken charges =  -0.00000

 Dipole moment (field-independent basis, Debye):
    X=              0.7574    Y=              0.9591    Z=              1.2749  Tot=              1.7660
 Quadrupole moment (field-independent basis, Debye-Ang):
   XX=           -347.1982   YY=           -427.7176   ZZ=           -406.0308
   XY=             16.6065   XZ=             13.3429   YZ=             30.1027

 Normal termination of Gaussian 16 at Sun May  1 00:34:59 2022.
