 Gaussian 16, Revision A.03,
 Gaussian 16:  ES64L-G16RevA.03 25-Dec-2016

 --------------------
 #p ZINDO=(nstates=5)
 --------------------

 -----------------------------
 step_951_chromophore_23 ZINDO
 -----------------------------
 Symbolic Z-matrix:
 Charge =  0 Multiplicity = 1

                         Standard orientation:
 ---------------------------------------------------------------------
 Center     Atomic      Atomic             Coordinates (Angstroms)
 Number     Number       Type             X           Y           Z
 ---------------------------------------------------------------------
      1         12           0        4.686205    0.322329   -0.350135
      2          6           0        2.547236   -2.575124    0.115899
      3          6           0        2.268255    1.598453   -2.397660
      4          6           0        6.326513    3.240966   -0.150294
      5          6           0        6.667398   -0.987987    2.309763
      6          7           0        2.599628   -0.387956   -0.997272
      7          6           0        2.023149   -1.695738   -0.815442
      8          6           0        0.869785   -1.900960   -1.857958
      9          6           0        0.808105   -0.479856   -2.578883
     10          6           0        2.026977    0.325037   -2.004763
     11          6           0        0.751758   -0.630505   -4.065324
     12          6           0       -0.476422   -2.482042   -1.232663
     13          6           0       -1.062409   -3.585645   -2.031480
     14          6           0       -2.505587   -3.464844   -2.431176
     15          8           0       -2.797719   -2.744514   -3.422911
     16          8           0       -3.443663   -4.076861   -1.717546
     17          7           0        4.216089    2.250264   -1.061573
     18          6           0        3.302535    2.450685   -2.037228
     19          6           0        3.532022    3.801948   -2.503410
     20          6           0        4.542011    4.427808   -1.745412
     21          6           0        5.067993    3.346398   -0.918245
     22          6           0        2.577744    4.560874   -3.478692
     23          6           0        4.948044    5.882054   -1.786797
     24          8           0        4.474094    6.618560   -2.636963
     25          6           0        5.886403    6.520841   -0.766374
     26          7           0        6.187775    1.038202    0.864234
     27          6           0        6.822001    2.204607    0.657109
     28          6           0        8.221280    2.334031    1.443676
     29          6           0        8.075553    1.157473    2.453580
     30          6           0        6.889018    0.366431    1.843176
     31          6           0        9.507659    2.427745    0.589360
     32          6           0        7.958499    1.440973    3.942935
     33          6           0        9.261665    1.093235    4.771236
     34          7           0        4.749692   -1.555843    0.834965
     35          6           0        5.608938   -1.873900    1.894944
     36          6           0        5.259064   -3.210301    2.321437
     37          6           0        4.096936   -3.585135    1.639233
     38          6           0        3.770249   -2.483538    0.826594
     39          6           0        5.968015   -4.025297    3.363508
     40          6           0        3.062685   -4.598582    1.464562
     41          8           0        2.961086   -5.587284    2.112562
     42          6           0        2.133114   -4.004533    0.330100
     43          6           0        2.457245   -4.922848   -0.876572
     44          8           0        3.469606   -4.869034   -1.504299
     45          8           0        1.381297   -5.734325   -1.152170
     46          6           0        1.582735   -6.545742   -2.352914
     47          6           0       -4.877833   -3.927289   -1.934770
     48          6           0       -5.646987   -3.158941   -0.871817
     49          6           0       -6.140731   -1.920036   -0.792192
     50          6           0       -5.625551   -0.793112   -1.606899
     51          6           0       -6.858105   -1.499730    0.554191
     52          6           0       -8.124978   -0.839634    0.224264
     53          6           0       -9.355652   -1.536728    0.980889
     54          6           0      -10.442160   -0.515628    1.356937
     55          6           0      -11.803241   -1.172978    1.277057
     56          6           0      -10.199816    0.038783    2.805059
     57          6           0       -9.802980    1.517023    2.857599
     58          6           0       -8.485308    1.719886    3.737108
     59          6           0       -7.343201    2.393262    2.925955
     60          6           0       -6.007026    2.193054    3.714009
     61          6           0       -7.621872    3.848653    2.519057
     62          6           0       -6.655566    4.325393    1.433036
     63          6           0       -7.381230    4.890004    0.167826
     64          6           0       -6.955685    4.184546   -1.118703
     65          6           0       -6.844461    5.049404   -2.389930
     66          6           0       -7.854542    2.966152   -1.445491
     67          1           0        1.658272    2.050312   -3.183065
     68          1           0        6.934912    4.126842   -0.342000
     69          1           0        7.211219   -1.216828    3.228463
     70          1           0        1.294092   -2.561663   -2.613783
     71          1           0       -0.096285    0.093007   -2.377214
     72          1           0        0.220957    0.232331   -4.466712
     73          1           0        0.179296   -1.509115   -4.362053
     74          1           0        1.781786   -0.808735   -4.374410
     75          1           0       -1.166277   -1.645068   -1.338560
     76          1           0       -0.487261   -2.730366   -0.170971
     77          1           0       -0.925750   -4.468301   -1.407671
     78          1           0       -0.545866   -3.637920   -2.990607
     79          1           0        1.945346    3.886190   -4.054989
     80          1           0        3.107242    5.277773   -4.105848
     81          1           0        1.996033    5.140445   -2.761579
     82          1           0        6.925090    6.302376   -1.013815
     83          1           0        5.638082    6.120250    0.215991
     84          1           0        5.611744    7.574953   -0.717394
     85          1           0        8.115814    3.279416    1.976736
     86          1           0        8.906296    0.455243    2.388411
     87          1           0        9.983004    1.449826    0.514717
     88          1           0       10.096350    3.124185    1.186546
     89          1           0        9.136009    2.863617   -0.337612
     90          1           0        7.110746    0.888869    4.351458
     91          1           0        7.815558    2.509132    4.105819
     92          1           0       10.150757    0.753121    4.240023
     93          1           0        8.973453    0.225567    5.364498
     94          1           0        9.399547    1.990083    5.374763
     95          1           0        5.388123   -4.946936    3.414283
     96          1           0        6.007528   -3.441559    4.283470
     97          1           0        6.986415   -4.256109    3.053450
     98          1           0        1.109225   -4.110250    0.688570
     99          1           0        2.043830   -7.464457   -1.990828
    100          1           0        2.207954   -6.097569   -3.125028
    101          1           0        0.620961   -6.774672   -2.812578
    102          1           0       -5.333852   -4.916859   -1.895769
    103          1           0       -5.151713   -3.562555   -2.924793
    104          1           0       -6.116308   -3.844353   -0.165810
    105          1           0       -5.261135   -1.007452   -2.611665
    106          1           0       -4.983154   -0.156652   -0.999076
    107          1           0       -6.495713   -0.214416   -1.916049
    108          1           0       -6.175680   -0.820340    1.064533
    109          1           0       -7.022040   -2.428584    1.101353
    110          1           0       -8.347954   -0.986220   -0.833415
    111          1           0       -8.067307    0.218279    0.479785
    112          1           0       -9.087105   -2.090578    1.880493
    113          1           0       -9.709798   -2.221599    0.209344
    114          1           0      -10.554582    0.226610    0.566163
    115          1           0      -11.922341   -1.784974    0.384107
    116          1           0      -12.666198   -0.510404    1.343027
    117          1           0      -11.826512   -1.874650    2.110852
    118          1           0       -9.464310   -0.564281    3.337509
    119          1           0      -11.095825   -0.060961    3.417498
    120          1           0      -10.595727    2.126017    3.290656
    121          1           0       -9.528227    1.822760    1.847701
    122          1           0       -8.026083    0.892874    4.276950
    123          1           0       -8.804813    2.439965    4.490104
    124          1           0       -7.253082    1.711159    2.079897
    125          1           0       -5.412646    3.090982    3.883584
    126          1           0       -5.452972    1.467564    3.118566
    127          1           0       -6.219829    1.748325    4.684914
    128          1           0       -7.511244    4.507742    3.380377
    129          1           0       -8.676874    3.818821    2.245699
    130          1           0       -6.120765    3.452668    1.057392
    131          1           0       -5.873601    5.004688    1.772129
    132          1           0       -7.086067    5.937624    0.110372
    133          1           0       -8.461588    4.928753    0.313799
    134          1           0       -5.978181    3.713569   -1.018545
    135          1           0       -5.833688    4.996735   -2.793952
    136          1           0       -6.846416    6.111998   -2.149631
    137          1           0       -7.554452    4.758085   -3.164481
    138          1           0       -7.313788    2.110893   -1.040167
    139          1           0       -8.044400    2.912352   -2.517583
    140          1           0       -8.817983    2.905067   -0.940679
 ---------------------------------------------------------------------

 SCF Done:  E(RZINDO/S) =  -474.249732003     A.U. after   19 cycles

 Excitation energies and oscillator strengths:

 Excited State   1:      Singlet-A      1.2163 eV 1019.37 nm  f=0.6162  <S**2>=0.000
     175 ->178        -0.18553
     176 ->177         0.66456
 This state for optimization and/or second-order correction.
 Total Energy, E(CIS/TDA) =  -474.205034488
 Copying the excited state density for this state as the 1-particle RhoCI density.

 Excited State   2:      Singlet-A      1.9175 eV  646.59 nm  f=0.0260  <S**2>=0.000
     175 ->177         0.53380
     176 ->178         0.43965

 Excited State   3:      Singlet-A      2.9496 eV  420.34 nm  f=0.1613  <S**2>=0.000
     168 ->181         0.12187
     172 ->177        -0.10786
     175 ->177        -0.15225
     176 ->178         0.20153
     176 ->180         0.60536

 Excited State   4:      Singlet-A      2.9589 eV  419.02 nm  f=0.0624  <S**2>=0.000
     168 ->177         0.21821
     168 ->178        -0.14708
     168 ->179        -0.26921
     168 ->181         0.33178
     168 ->184        -0.12185
     168 ->186        -0.16133
     168 ->187         0.11328
     174 ->177         0.17520
     176 ->178        -0.12910
     176 ->179         0.16373
     176 ->180        -0.16792

 Excited State   5:      Singlet-A      2.9799 eV  416.06 nm  f=0.3661  <S**2>=0.000
     168 ->181         0.14180
     169 ->179         0.10726
     173 ->177         0.10473
     174 ->177        -0.26141
     175 ->177        -0.24282
     176 ->178         0.32009
     176 ->179        -0.26469
     176 ->180        -0.25141

 The electronic state is 1-A.
 Alpha  occ. eigenvalues --   -1.82300  -1.80436  -1.77810  -1.72929  -1.72737
 Alpha  occ. eigenvalues --   -1.69106  -1.66467  -1.61322  -1.60068  -1.59672
 Alpha  occ. eigenvalues --   -1.55916  -1.52696  -1.50989  -1.50692  -1.47942
 Alpha  occ. eigenvalues --   -1.44330  -1.42209  -1.39051  -1.38075  -1.37827
 Alpha  occ. eigenvalues --   -1.35748  -1.33659  -1.33337  -1.31754  -1.28985
 Alpha  occ. eigenvalues --   -1.27831  -1.25870  -1.22299  -1.21863  -1.18202
 Alpha  occ. eigenvalues --   -1.16598  -1.15282  -1.14326  -1.13973  -1.13442
 Alpha  occ. eigenvalues --   -1.12603  -1.10801  -1.09202  -1.04531  -1.03612
 Alpha  occ. eigenvalues --   -1.02500  -0.99945  -0.98338  -0.97324  -0.95571
 Alpha  occ. eigenvalues --   -0.95394  -0.94975  -0.94400  -0.92645  -0.92641
 Alpha  occ. eigenvalues --   -0.90713  -0.90056  -0.89532  -0.87616  -0.86766
 Alpha  occ. eigenvalues --   -0.86169  -0.84532  -0.83370  -0.81757  -0.79477
 Alpha  occ. eigenvalues --   -0.79062  -0.78709  -0.77867  -0.77311  -0.76433
 Alpha  occ. eigenvalues --   -0.76309  -0.75503  -0.74961  -0.74584  -0.74121
 Alpha  occ. eigenvalues --   -0.73890  -0.73360  -0.72783  -0.71719  -0.71137
 Alpha  occ. eigenvalues --   -0.70696  -0.70226  -0.69374  -0.67900  -0.67710
 Alpha  occ. eigenvalues --   -0.67123  -0.66820  -0.66698  -0.66030  -0.65776
 Alpha  occ. eigenvalues --   -0.65442  -0.65137  -0.64411  -0.64290  -0.64068
 Alpha  occ. eigenvalues --   -0.63562  -0.63362  -0.62520  -0.62231  -0.62091
 Alpha  occ. eigenvalues --   -0.61716  -0.61567  -0.61073  -0.60741  -0.60203
 Alpha  occ. eigenvalues --   -0.59444  -0.59047  -0.58750  -0.58305  -0.57776
 Alpha  occ. eigenvalues --   -0.57674  -0.57106  -0.56833  -0.56451  -0.56291
 Alpha  occ. eigenvalues --   -0.56107  -0.56092  -0.55300  -0.55086  -0.54438
 Alpha  occ. eigenvalues --   -0.54346  -0.53485  -0.53048  -0.52499  -0.52381
 Alpha  occ. eigenvalues --   -0.52296  -0.51996  -0.51772  -0.51600  -0.51103
 Alpha  occ. eigenvalues --   -0.51057  -0.51000  -0.50920  -0.50795  -0.50341
 Alpha  occ. eigenvalues --   -0.49995  -0.49845  -0.49688  -0.49555  -0.49239
 Alpha  occ. eigenvalues --   -0.49066  -0.48687  -0.48057  -0.47740  -0.47604
 Alpha  occ. eigenvalues --   -0.47374  -0.46885  -0.46866  -0.46432  -0.45991
 Alpha  occ. eigenvalues --   -0.45860  -0.45675  -0.45317  -0.45230  -0.45156
 Alpha  occ. eigenvalues --   -0.44931  -0.44823  -0.44705  -0.44362  -0.43946
 Alpha  occ. eigenvalues --   -0.43211  -0.43005  -0.42772  -0.42564  -0.42462
 Alpha  occ. eigenvalues --   -0.42019  -0.41861  -0.40621  -0.39169  -0.38577
 Alpha  occ. eigenvalues --   -0.38123  -0.37182  -0.35390  -0.34790  -0.34509
 Alpha  occ. eigenvalues --   -0.33379  -0.33015  -0.32803  -0.31915  -0.27004
 Alpha  occ. eigenvalues --   -0.21589
 Alpha virt. eigenvalues --   -0.08660  -0.02093  -0.00368   0.00855   0.01242
 Alpha virt. eigenvalues --    0.01712   0.02768   0.03147   0.04251   0.04960
 Alpha virt. eigenvalues --    0.06026   0.07062   0.07436   0.07819   0.08079

 Mulliken charges:
               1
     1  Mg   0.437034
     2  C   -0.035340
     3  C   -0.066641
     4  C   -0.092595
     5  C   -0.074674
     6  N   -0.310135
     7  C    0.101729
     8  C    0.001825
     9  C   -0.000637
    10  C    0.152170
    11  C   -0.049757
    12  C   -0.016766
    13  C    0.015405
    14  C    0.474850
    15  O   -0.563840
    16  O   -0.249862
    17  N   -0.326121
    18  C    0.128805
    19  C    0.035968
    20  C   -0.041331
    21  C    0.111518
    22  C   -0.048085
    23  C    0.327255
    24  O   -0.520910
    25  C   -0.028370
    26  N   -0.248755
    27  C    0.133769
    28  C   -0.002473
    29  C    0.003386
    30  C    0.102158
    31  C   -0.050561
    32  C   -0.027634
    33  C   -0.067531
    34  N   -0.334456
    35  C    0.080819
    36  C    0.035074
    37  C   -0.060806
    38  C    0.125496
    39  C   -0.043254
    40  C    0.338900
    41  O   -0.505583
    42  C    0.053743
    43  C    0.488157
    44  O   -0.503884
    45  O   -0.271449
    46  C    0.074600
    47  C    0.113993
    48  C   -0.086240
    49  C   -0.000958
    50  C   -0.045000
    51  C   -0.019316
    52  C   -0.034056
    53  C   -0.042054
    54  C   -0.010312
    55  C   -0.058731
    56  C   -0.032818
    57  C   -0.040770
    58  C   -0.051241
    59  C   -0.019480
    60  C   -0.064875
    61  C   -0.024747
    62  C   -0.038187
    63  C   -0.029045
    64  C   -0.007690
    65  C   -0.062607
    66  C   -0.063770
    67  H    0.027892
    68  H    0.023188
    69  H    0.030906
    70  H    0.040938
    71  H    0.031163
    72  H    0.024629
    73  H    0.020438
    74  H    0.024498
    75  H    0.023146
    76  H    0.034827
    77  H    0.032001
    78  H    0.048054
    79  H    0.024299
    80  H    0.045883
    81  H    0.036203
    82  H    0.048099
    83  H    0.024557
    84  H    0.041748
    85  H    0.022760
    86  H    0.025814
    87  H    0.034662
    88  H    0.024738
    89  H    0.033536
    90  H    0.029025
    91  H    0.017778
    92  H    0.030159
    93  H    0.016767
    94  H    0.024702
    95  H    0.036809
    96  H    0.031420
    97  H    0.029455
    98  H    0.046520
    99  H    0.042629
   100  H    0.050397
   101  H    0.028898
   102  H    0.029562
   103  H    0.053282
   104  H    0.013819
   105  H    0.033552
   106  H    0.035629
   107  H    0.013688
   108  H    0.028981
   109  H    0.026079
   110  H    0.024509
   111  H    0.023999
   112  H    0.027887
   113  H    0.015685
   114  H    0.023561
   115  H    0.011422
   116  H    0.017284
   117  H    0.009577
   118  H    0.021791
   119  H    0.014214
   120  H    0.026238
   121  H    0.024626
   122  H    0.030928
   123  H    0.006521
   124  H    0.017645
   125  H    0.021465
   126  H    0.014771
   127  H    0.018273
   128  H    0.019479
   129  H    0.022718
   130  H    0.015099
   131  H    0.025110
   132  H    0.008124
   133  H    0.024360
   134  H    0.020321
   135  H    0.011993
   136  H    0.014962
   137  H    0.028545
   138  H    0.012873
   139  H    0.023658
   140  H    0.015929
 Sum of Mulliken charges =  -0.00000

 Dipole moment (field-independent basis, Debye):
    X=              1.3456    Y=              1.3135    Z=              1.8815  Tot=              2.6601
 N-N= 4.467319114041D+03 E-N= 0.000000000000D+00  KE=-9.608916511527D+03
 Leave Link  601 at Sun May  1 00:48:38 2022, MaxMem=  6710886400 cpu:               0.8 elap:               0.1
 (Enter /sw/apps/gaussian-16.0/g16/l9999.exe)
 1\1\GINC-BP1-COMPUTE190\SP\RZINDO CIS\STO-3G\C55H74Mg1N4O6\OF15641\01-
 May-2022\0\\#p ZINDO=(nstates=5)\\step_951_chromophore_23 ZINDO\\0,1\M
 g,0,-10.73,39.961,42.978\C,0,-9.179,36.947,41.675\C,0,-8.622,41.743,40
 .966\C,0,-12.664,42.622,43.632\C,0,-13.177,37.81,44.428\N,0,-9.132,39.
 389,41.43\C,0,-8.552,38.089,41.208\C,0,-7.168,38.257,40.49\C,0,-7.104,
 39.831,40.242\C,0,-8.357,40.415,40.985\C,0,-5.775,40.387,40.642\C,0,-6
 .964,37.293,39.237\C,0,-5.638,36.629,39.221\C,0,-4.816,36.747,37.969\O

 Normal termination of Gaussian 16 at Sun May  1 00:48:38 2022.
