 Gaussian 16, Revision A.03,
 Gaussian 16:  ES64L-G16RevA.03 25-Dec-2016

 ------------------------------
 #p blyp/Def2SVP td=(nstates=5)
 ------------------------------

 --------------------------------------------------
 step_251_chromophore_27 TDDFT with blyp functional
 --------------------------------------------------
 Symbolic Z-matrix:
 Charge =  0 Multiplicity = 1

                         Standard orientation:
 ---------------------------------------------------------------------
 Center     Atomic      Atomic             Coordinates (Angstroms)
 Number     Number       Type             X           Y           Z
 ---------------------------------------------------------------------
      1         12           0       -4.430729    1.033631    0.114498
      2          6           0       -3.957373   -2.427306    0.418822
      3          6           0       -1.007552    1.394180    0.036555
      4          6           0       -4.901624    4.290197   -0.139892
      5          6           0       -7.891278    0.483978    0.369800
      6          7           0       -2.741783   -0.399721    0.134288
      7          6           0       -2.740452   -1.786421    0.286199
      8          6           0       -1.343956   -2.448626   -0.037751
      9          6           0       -0.480938   -1.202573    0.009752
     10          6           0       -1.466073    0.037639    0.055891
     11          6           0        0.382225   -1.163591    1.353138
     12          6           0       -1.501074   -2.966274   -1.536209
     13          6           0       -0.884047   -4.393209   -1.878600
     14          6           0        0.352080   -4.624060   -1.047478
     15          8           0        0.478935   -5.569227   -0.203426
     16          8           0        1.305137   -3.696188   -1.394426
     17          7           0       -3.158601    2.578822    0.119256
     18          6           0       -1.828856    2.557377    0.098724
     19          6           0       -1.254611    3.874206    0.015773
     20          6           0       -2.346193    4.733423   -0.219544
     21          6           0       -3.573880    3.873596   -0.025038
     22          6           0        0.191857    4.204174    0.075419
     23          6           0       -2.379973    6.179647   -0.668948
     24          8           0       -3.407461    6.731402   -1.079114
     25          6           0       -1.131158    7.053615   -0.523227
     26          7           0       -6.189764    2.219044    0.166876
     27          6           0       -6.048327    3.570792   -0.041033
     28          6           0       -7.438404    4.181879   -0.204221
     29          6           0       -8.437638    2.925311   -0.160897
     30          6           0       -7.485091    1.783668    0.079195
     31          6           0       -7.648463    5.318400    0.857767
     32          6           0       -9.358700    2.736505   -1.356057
     33          6           0      -10.863996    2.585762   -0.971956
     34          7           0       -5.669266   -0.618901    0.369519
     35          6           0       -7.093518   -0.691094    0.478739
     36          6           0       -7.505718   -2.033743    0.683359
     37          6           0       -6.289481   -2.736935    0.660584
     38          6           0       -5.227869   -1.819249    0.519611
     39          6           0       -8.870833   -2.623988    0.833387
     40          6           0       -5.692654   -4.031742    0.739562
     41          8           0       -6.148602   -5.136754    0.917905
     42          6           0       -4.169518   -3.867586    0.473325
     43          6           0       -3.415900   -4.622101    1.507599
     44          8           0       -3.296091   -4.346758    2.698088
     45          8           0       -2.829834   -5.649760    0.885635
     46          6           0       -1.962300   -6.490896    1.683276
     47          6           0        2.583859   -3.755923   -0.678904
     48          6           0        3.533552   -2.607345   -0.923136
     49          6           0        4.877628   -2.654067   -1.200902
     50          6           0        5.738019   -3.870787   -1.052509
     51          6           0        5.674898   -1.429277   -1.371184
     52          6           0        6.014842   -1.206921   -2.834811
     53          6           0        7.538659   -1.028521   -3.027023
     54          6           0        7.809066    0.318787   -3.702161
     55          6           0        7.577774    0.193313   -5.178162
     56          6           0        9.258139    0.677905   -3.383237
     57          6           0        9.322887    1.759634   -2.250197
     58          6           0       10.594984    1.705617   -1.405488
     59          6           0       10.260257    1.507722    0.095748
     60          6           0        9.649492    0.037339    0.298254
     61          6           0       11.456078    1.839273    1.049608
     62          6           0       10.936842    2.731097    2.240779
     63          6           0       11.232146    2.117020    3.588548
     64          6           0        9.939601    1.477893    4.284258
     65          6           0        9.121119    2.448772    5.258035
     66          6           0       10.303834    0.173103    4.956111
     67          1           0        0.042157    1.639931   -0.136392
     68          1           0       -4.988784    5.377001   -0.215301
     69          1           0       -8.960015    0.260516    0.391034
     70          1           0       -1.262819   -3.283522    0.657599
     71          1           0        0.138963   -1.139760   -0.883982
     72          1           0        0.180222   -2.015858    2.002234
     73          1           0        0.140561   -0.245103    1.887656
     74          1           0        1.413985   -1.144913    1.001935
     75          1           0       -1.047337   -2.302102   -2.271207
     76          1           0       -2.570063   -2.949438   -1.750135
     77          1           0       -0.457233   -4.395071   -2.881628
     78          1           0       -1.658248   -5.157688   -1.948986
     79          1           0        0.469817    4.557130   -0.918622
     80          1           0        0.793026    3.322532    0.293282
     81          1           0        0.430148    4.974684    0.808051
     82          1           0       -1.594343    8.038905   -0.570528
     83          1           0       -0.379105    6.884411   -1.294772
     84          1           0       -0.630700    7.053260    0.444906
     85          1           0       -7.620886    4.694482   -1.148655
     86          1           0       -9.062172    3.016502    0.727872
     87          1           0       -8.083770    6.154221    0.309918
     88          1           0       -6.741289    5.597355    1.393881
     89          1           0       -8.490579    5.095268    1.513927
     90          1           0       -9.092838    1.897909   -1.998855
     91          1           0       -9.335970    3.704663   -1.858306
     92          1           0      -11.009339    2.761165    0.094100
     93          1           0      -11.200043    1.552712   -1.058964
     94          1           0      -11.488215    3.280264   -1.534579
     95          1           0       -9.232752   -2.581456   -0.194266
     96          1           0       -9.391698   -2.016181    1.572907
     97          1           0       -8.842328   -3.674978    1.117521
     98          1           0       -4.022105   -4.417643   -0.457045
     99          1           0       -2.497585   -6.849357    2.562969
    100          1           0       -1.078464   -6.018057    2.112807
    101          1           0       -1.686644   -7.330528    1.044951
    102          1           0        2.984411   -4.708273   -1.025886
    103          1           0        2.378093   -3.869040    0.384717
    104          1           0        3.035024   -1.647403   -1.055191
    105          1           0        5.106447   -4.742597   -1.220608
    106          1           0        6.208657   -3.919952   -0.070616
    107          1           0        6.570590   -3.964193   -1.750300
    108          1           0        6.441099   -1.313620   -0.605081
    109          1           0        5.021193   -0.580780   -1.170675
    110          1           0        5.461043   -0.336197   -3.186206
    111          1           0        5.621343   -2.061286   -3.386719
    112          1           0        7.989448   -1.763400   -3.694598
    113          1           0        8.090479   -1.029497   -2.086990
    114          1           0        7.142479    1.139730   -3.437116
    115          1           0        6.838931    0.908768   -5.540156
    116          1           0        7.094057   -0.726668   -5.507902
    117          1           0        8.521610    0.244215   -5.721535
    118          1           0        9.817900    0.937832   -4.281425
    119          1           0        9.832649   -0.154169   -2.974342
    120          1           0        8.448153    1.656254   -1.608472
    121          1           0        9.268678    2.747067   -2.708735
    122          1           0       11.162116    2.617161   -1.594839
    123          1           0       11.232114    0.888705   -1.742825
    124          1           0        9.436181    2.192670    0.292305
    125          1           0       10.260066   -0.379572    1.098990
    126          1           0        9.916161   -0.524976   -0.596499
    127          1           0        8.587521    0.095013    0.538319
    128          1           0       12.143811    2.416652    0.433194
    129          1           0       11.871321    0.850127    1.244597
    130          1           0        9.870260    2.948548    2.177571
    131          1           0       11.379722    3.722041    2.141783
    132          1           0       11.531930    2.900196    4.284257
    133          1           0       12.014342    1.359149    3.634061
    134          1           0        9.325313    1.147372    3.446546
    135          1           0        8.116814    2.687997    4.908104
    136          1           0        9.718263    3.357012    5.340480
    137          1           0        8.946617    1.973749    6.223090
    138          1           0       11.382326    0.090736    5.092697
    139          1           0        9.914855   -0.646661    4.351558
    140          1           0        9.888071   -0.111500    5.922743
 ---------------------------------------------------------------------

 SCF Done:  E(RB-LYP) =  -3007.37492916     A.U. after   21 cycles

 Excitation energies and oscillator strengths:

 Excited State   1:      Singlet-A      1.7288 eV  717.17 nm  f=0.0042  <S**2>=0.000
     244 -> 247        0.60642
     245 -> 247       -0.35839
 This state for optimization and/or second-order correction.
 Total Energy, E(TD-HF/TD-DFT) =  -3007.31139713
 Copying the excited state density for this state as the 1-particle RhoCI density.

 Excited State   2:      Singlet-A      1.8011 eV  688.38 nm  f=0.2764  <S**2>=0.000
     245 -> 248        0.16369
     246 -> 247        0.68492
     246 <- 247       -0.14739

 Excited State   3:      Singlet-A      2.0556 eV  603.15 nm  f=0.0948  <S**2>=0.000
     243 -> 247        0.13399
     244 -> 247        0.33155
     245 -> 247        0.53971
     246 -> 248       -0.21547
     246 -> 249       -0.13199

 Excited State   4:      Singlet-A      2.2049 eV  562.32 nm  f=0.0054  <S**2>=0.000
     243 -> 247        0.69258

 Excited State   5:      Singlet-A      2.4809 eV  499.75 nm  f=0.0025  <S**2>=0.000
     241 -> 247        0.32911
     242 -> 247        0.59269
     246 -> 248       -0.16663

 The electronic state is 1-A.
 Alpha  occ. eigenvalues --  -46.26247 -18.83428 -18.81613 -18.77314 -18.76245
 Alpha  occ. eigenvalues --  -18.75323 -18.74490 -14.03339 -14.02706 -14.01494
 Alpha  occ. eigenvalues --  -14.00220 -10.05092 -10.02519 -10.00554  -9.98758
 Alpha  occ. eigenvalues --   -9.98084  -9.96993  -9.96170  -9.96104  -9.96061
 Alpha  occ. eigenvalues --   -9.95986  -9.95960  -9.95767  -9.95135  -9.94555
 Alpha  occ. eigenvalues --   -9.94112  -9.94106  -9.93926  -9.93807  -9.93741
 Alpha  occ. eigenvalues --   -9.93606  -9.93548  -9.93544  -9.93266  -9.93232
 Alpha  occ. eigenvalues --   -9.93225  -9.93068  -9.93047  -9.92795  -9.92701
 Alpha  occ. eigenvalues --   -9.92619  -9.92479  -9.92312  -9.92285  -9.92216
 Alpha  occ. eigenvalues --   -9.92180  -9.92170  -9.92005  -9.91964  -9.91962
 Alpha  occ. eigenvalues --   -9.91866  -9.91838  -9.91711  -9.91702  -9.91666
 Alpha  occ. eigenvalues --   -9.91596  -9.91589  -9.91558  -9.91347  -9.91332
 Alpha  occ. eigenvalues --   -9.91242  -9.91123  -9.90973  -9.90658  -9.90501
 Alpha  occ. eigenvalues --   -9.89938  -2.91043  -1.71479  -1.70904  -1.70769
 Alpha  occ. eigenvalues --   -0.97908  -0.97836  -0.91540  -0.91117  -0.88687
 Alpha  occ. eigenvalues --   -0.88615  -0.86959  -0.86400  -0.85266  -0.84806
 Alpha  occ. eigenvalues --   -0.75574  -0.75208  -0.73682  -0.72685  -0.72661
 Alpha  occ. eigenvalues --   -0.72438  -0.71702  -0.71203  -0.70948  -0.70633
 Alpha  occ. eigenvalues --   -0.70009  -0.69754  -0.68152  -0.67342  -0.67226
 Alpha  occ. eigenvalues --   -0.66793  -0.65872  -0.65389  -0.65187  -0.64495
 Alpha  occ. eigenvalues --   -0.64343  -0.62891  -0.62441  -0.61805  -0.61238
 Alpha  occ. eigenvalues --   -0.60303  -0.60202  -0.60069  -0.59672  -0.59359
 Alpha  occ. eigenvalues --   -0.58359  -0.58030  -0.56357  -0.55706  -0.54437
 Alpha  occ. eigenvalues --   -0.54156  -0.53709  -0.53006  -0.52987  -0.51492
 Alpha  occ. eigenvalues --   -0.51359  -0.51117  -0.50889  -0.50631  -0.50476
 Alpha  occ. eigenvalues --   -0.50160  -0.49590  -0.48754  -0.48224  -0.47833
 Alpha  occ. eigenvalues --   -0.46897  -0.46003  -0.45714  -0.45321  -0.44225
 Alpha  occ. eigenvalues --   -0.43837  -0.43725  -0.43259  -0.42915  -0.42340
 Alpha  occ. eigenvalues --   -0.42020  -0.41862  -0.41668  -0.41405  -0.41147
 Alpha  occ. eigenvalues --   -0.41040  -0.40900  -0.40692  -0.40342  -0.40177
 Alpha  occ. eigenvalues --   -0.40017  -0.39991  -0.39680  -0.39515  -0.39338
 Alpha  occ. eigenvalues --   -0.39191  -0.38910  -0.38706  -0.38446  -0.38284
 Alpha  occ. eigenvalues --   -0.38039  -0.37984  -0.37860  -0.37785  -0.37445
 Alpha  occ. eigenvalues --   -0.37155  -0.36872  -0.36822  -0.36755  -0.36256
 Alpha  occ. eigenvalues --   -0.36149  -0.36044  -0.35831  -0.35611  -0.35573
 Alpha  occ. eigenvalues --   -0.35434  -0.35228  -0.35209  -0.35027  -0.34982
 Alpha  occ. eigenvalues --   -0.34849  -0.34498  -0.34372  -0.34165  -0.34016
 Alpha  occ. eigenvalues --   -0.33975  -0.33680  -0.33628  -0.33396  -0.33209
 Alpha  occ. eigenvalues --   -0.33139  -0.33102  -0.32922  -0.32780  -0.32573
 Alpha  occ. eigenvalues --   -0.32461  -0.32269  -0.32130  -0.31891  -0.31544
 Alpha  occ. eigenvalues --   -0.31230  -0.31031  -0.30912  -0.30827  -0.30683
 Alpha  occ. eigenvalues --   -0.30419  -0.30236  -0.30088  -0.30017  -0.29685
 Alpha  occ. eigenvalues --   -0.29510  -0.29353  -0.29275  -0.29089  -0.29054
 Alpha  occ. eigenvalues --   -0.28824  -0.28693  -0.28447  -0.28067  -0.27472
 Alpha  occ. eigenvalues --   -0.27446  -0.27408  -0.27287  -0.26854  -0.26681
 Alpha  occ. eigenvalues --   -0.26348  -0.26263  -0.26182  -0.25851  -0.25388
 Alpha  occ. eigenvalues --   -0.25377  -0.24991  -0.24240  -0.23900  -0.23666
 Alpha  occ. eigenvalues --   -0.23259  -0.22187  -0.21858  -0.21324  -0.20891
 Alpha  occ. eigenvalues --   -0.20707  -0.20234  -0.19406  -0.17808  -0.17195
 Alpha  occ. eigenvalues --   -0.15710
 Alpha virt. eigenvalues --   -0.11436  -0.07109  -0.05640  -0.04173  -0.04025
 Alpha virt. eigenvalues --   -0.03603  -0.01859  -0.01131  -0.00802   0.00425
 Alpha virt. eigenvalues --    0.01210   0.01594   0.02014   0.02047   0.02728

 Mulliken charges:
               1
     1  Mg   0.704331
     2  C    0.066266
     3  C   -0.091715
     4  C   -0.047191
     5  C   -0.074299
     6  N   -0.212427
     7  C   -0.133622
     8  C   -0.001206
     9  C    0.006051
    10  C    0.059408
    11  C    0.113012
    12  C    0.084373
    13  C    0.165235
    14  C    0.110805
    15  O   -0.238914
    16  O   -0.290947
    17  N   -0.281578
    18  C    0.118166
    19  C   -0.152671
    20  C    0.036349
    21  C    0.081531
    22  C    0.188716
    23  C   -0.059272
    24  O   -0.175957
    25  C    0.095013
    26  N   -0.242906
    27  C    0.084079
    28  C   -0.013866
    29  C    0.054322
    30  C    0.033967
    31  C    0.116582
    32  C    0.115721
    33  C    0.038757
    34  N   -0.231797
    35  C    0.081633
    36  C   -0.196204
    37  C    0.110066
    38  C    0.051395
    39  C    0.187634
    40  C   -0.104393
    41  O   -0.121968
    42  C    0.078224
    43  C    0.071628
    44  O   -0.190524
    45  O   -0.243585
    46  C    0.235505
    47  C    0.303785
    48  C   -0.072467
    49  C   -0.168129
    50  C    0.147385
    51  C    0.146400
    52  C    0.092205
    53  C    0.115972
    54  C   -0.110087
    55  C    0.121229
    56  C    0.115903
    57  C    0.063531
    58  C    0.105793
    59  C   -0.172753
    60  C    0.107256
    61  C    0.155017
    62  C    0.090615
    63  C    0.105611
    64  C   -0.104449
    65  C    0.108192
    66  C    0.080138
    67  H   -0.062778
    68  H   -0.037873
    69  H   -0.070136
    70  H    0.021396
    71  H   -0.012369
    72  H    0.008358
    73  H   -0.004029
    74  H   -0.002941
    75  H   -0.015370
    76  H   -0.008475
    77  H   -0.011553
    78  H    0.001894
    79  H    0.001244
    80  H   -0.012702
    81  H    0.007323
    82  H   -0.002594
    83  H    0.014038
    84  H    0.001857
    85  H   -0.016904
    86  H   -0.024216
    87  H   -0.020063
    88  H    0.016787
    89  H   -0.022867
    90  H   -0.005766
    91  H   -0.025044
    92  H   -0.021701
    93  H   -0.006028
    94  H   -0.000037
    95  H    0.006820
    96  H    0.009309
    97  H    0.008935
    98  H   -0.005892
    99  H   -0.000181
   100  H    0.011005
   101  H    0.013721
   102  H   -0.008121
   103  H    0.008412
   104  H   -0.031169
   105  H   -0.016404
   106  H    0.009625
   107  H   -0.011551
   108  H   -0.009501
   109  H   -0.059611
   110  H   -0.022668
   111  H   -0.023127
   112  H   -0.030147
   113  H   -0.031117
   114  H   -0.034921
   115  H   -0.026745
   116  H   -0.032326
   117  H   -0.019987
   118  H   -0.042767
   119  H   -0.041799
   120  H   -0.028284
   121  H   -0.029731
   122  H   -0.041645
   123  H   -0.036255
   124  H   -0.034725
   125  H   -0.023005
   126  H   -0.005590
   127  H    0.009823
   128  H   -0.038840
   129  H   -0.026230
   130  H   -0.022680
   131  H   -0.036499
   132  H   -0.043688
   133  H   -0.027752
   134  H   -0.034745
   135  H   -0.014371
   136  H   -0.012675
   137  H   -0.013005
   138  H   -0.016118
   139  H   -0.020367
   140  H   -0.027735
 Sum of Mulliken charges =  -0.00000

 Dipole moment (field-independent basis, Debye):
    X=              4.8977    Y=              3.9029    Z=             -3.2849  Tot=              7.0718
 Quadrupole moment (field-independent basis, Debye-Ang):
   XX=           -375.6825   YY=           -439.3915   ZZ=           -412.3963
   XY=            -24.4728   XZ=              8.1234   YZ=             19.8141

 Normal termination of Gaussian 16 at Fri Apr 29 11:44:09 2022.
