 Gaussian 16, Revision A.03,
 Gaussian 16:  ES64L-G16RevA.03 25-Dec-2016

 -----------------------------------
 #p cam-b3lyp/Def2SVP td=(nstates=5)
 -----------------------------------

 -------------------------------------------------------
 step_251_chromophore_27 TDDFT with cam-b3lyp functional
 -------------------------------------------------------
 Symbolic Z-matrix:
 Charge =  0 Multiplicity = 1

                         Standard orientation:
 ---------------------------------------------------------------------
 Center     Atomic      Atomic             Coordinates (Angstroms)
 Number     Number       Type             X           Y           Z
 ---------------------------------------------------------------------
      1         12           0       -4.430729    1.033631    0.114498
      2          6           0       -3.957373   -2.427306    0.418822
      3          6           0       -1.007552    1.394180    0.036555
      4          6           0       -4.901624    4.290197   -0.139892
      5          6           0       -7.891278    0.483978    0.369800
      6          7           0       -2.741783   -0.399721    0.134288
      7          6           0       -2.740452   -1.786421    0.286199
      8          6           0       -1.343956   -2.448626   -0.037751
      9          6           0       -0.480938   -1.202573    0.009752
     10          6           0       -1.466073    0.037639    0.055891
     11          6           0        0.382225   -1.163591    1.353138
     12          6           0       -1.501074   -2.966274   -1.536209
     13          6           0       -0.884047   -4.393209   -1.878600
     14          6           0        0.352080   -4.624060   -1.047478
     15          8           0        0.478935   -5.569227   -0.203426
     16          8           0        1.305137   -3.696188   -1.394426
     17          7           0       -3.158601    2.578822    0.119256
     18          6           0       -1.828856    2.557377    0.098724
     19          6           0       -1.254611    3.874206    0.015773
     20          6           0       -2.346193    4.733423   -0.219544
     21          6           0       -3.573880    3.873596   -0.025038
     22          6           0        0.191857    4.204174    0.075419
     23          6           0       -2.379973    6.179647   -0.668948
     24          8           0       -3.407461    6.731402   -1.079114
     25          6           0       -1.131158    7.053615   -0.523227
     26          7           0       -6.189764    2.219044    0.166876
     27          6           0       -6.048327    3.570792   -0.041033
     28          6           0       -7.438404    4.181879   -0.204221
     29          6           0       -8.437638    2.925311   -0.160897
     30          6           0       -7.485091    1.783668    0.079195
     31          6           0       -7.648463    5.318400    0.857767
     32          6           0       -9.358700    2.736505   -1.356057
     33          6           0      -10.863996    2.585762   -0.971956
     34          7           0       -5.669266   -0.618901    0.369519
     35          6           0       -7.093518   -0.691094    0.478739
     36          6           0       -7.505718   -2.033743    0.683359
     37          6           0       -6.289481   -2.736935    0.660584
     38          6           0       -5.227869   -1.819249    0.519611
     39          6           0       -8.870833   -2.623988    0.833387
     40          6           0       -5.692654   -4.031742    0.739562
     41          8           0       -6.148602   -5.136754    0.917905
     42          6           0       -4.169518   -3.867586    0.473325
     43          6           0       -3.415900   -4.622101    1.507599
     44          8           0       -3.296091   -4.346758    2.698088
     45          8           0       -2.829834   -5.649760    0.885635
     46          6           0       -1.962300   -6.490896    1.683276
     47          6           0        2.583859   -3.755923   -0.678904
     48          6           0        3.533552   -2.607345   -0.923136
     49          6           0        4.877628   -2.654067   -1.200902
     50          6           0        5.738019   -3.870787   -1.052509
     51          6           0        5.674898   -1.429277   -1.371184
     52          6           0        6.014842   -1.206921   -2.834811
     53          6           0        7.538659   -1.028521   -3.027023
     54          6           0        7.809066    0.318787   -3.702161
     55          6           0        7.577774    0.193313   -5.178162
     56          6           0        9.258139    0.677905   -3.383237
     57          6           0        9.322887    1.759634   -2.250197
     58          6           0       10.594984    1.705617   -1.405488
     59          6           0       10.260257    1.507722    0.095748
     60          6           0        9.649492    0.037339    0.298254
     61          6           0       11.456078    1.839273    1.049608
     62          6           0       10.936842    2.731097    2.240779
     63          6           0       11.232146    2.117020    3.588548
     64          6           0        9.939601    1.477893    4.284258
     65          6           0        9.121119    2.448772    5.258035
     66          6           0       10.303834    0.173103    4.956111
     67          1           0        0.042157    1.639931   -0.136392
     68          1           0       -4.988784    5.377001   -0.215301
     69          1           0       -8.960015    0.260516    0.391034
     70          1           0       -1.262819   -3.283522    0.657599
     71          1           0        0.138963   -1.139760   -0.883982
     72          1           0        0.180222   -2.015858    2.002234
     73          1           0        0.140561   -0.245103    1.887656
     74          1           0        1.413985   -1.144913    1.001935
     75          1           0       -1.047337   -2.302102   -2.271207
     76          1           0       -2.570063   -2.949438   -1.750135
     77          1           0       -0.457233   -4.395071   -2.881628
     78          1           0       -1.658248   -5.157688   -1.948986
     79          1           0        0.469817    4.557130   -0.918622
     80          1           0        0.793026    3.322532    0.293282
     81          1           0        0.430148    4.974684    0.808051
     82          1           0       -1.594343    8.038905   -0.570528
     83          1           0       -0.379105    6.884411   -1.294772
     84          1           0       -0.630700    7.053260    0.444906
     85          1           0       -7.620886    4.694482   -1.148655
     86          1           0       -9.062172    3.016502    0.727872
     87          1           0       -8.083770    6.154221    0.309918
     88          1           0       -6.741289    5.597355    1.393881
     89          1           0       -8.490579    5.095268    1.513927
     90          1           0       -9.092838    1.897909   -1.998855
     91          1           0       -9.335970    3.704663   -1.858306
     92          1           0      -11.009339    2.761165    0.094100
     93          1           0      -11.200043    1.552712   -1.058964
     94          1           0      -11.488215    3.280264   -1.534579
     95          1           0       -9.232752   -2.581456   -0.194266
     96          1           0       -9.391698   -2.016181    1.572907
     97          1           0       -8.842328   -3.674978    1.117521
     98          1           0       -4.022105   -4.417643   -0.457045
     99          1           0       -2.497585   -6.849357    2.562969
    100          1           0       -1.078464   -6.018057    2.112807
    101          1           0       -1.686644   -7.330528    1.044951
    102          1           0        2.984411   -4.708273   -1.025886
    103          1           0        2.378093   -3.869040    0.384717
    104          1           0        3.035024   -1.647403   -1.055191
    105          1           0        5.106447   -4.742597   -1.220608
    106          1           0        6.208657   -3.919952   -0.070616
    107          1           0        6.570590   -3.964193   -1.750300
    108          1           0        6.441099   -1.313620   -0.605081
    109          1           0        5.021193   -0.580780   -1.170675
    110          1           0        5.461043   -0.336197   -3.186206
    111          1           0        5.621343   -2.061286   -3.386719
    112          1           0        7.989448   -1.763400   -3.694598
    113          1           0        8.090479   -1.029497   -2.086990
    114          1           0        7.142479    1.139730   -3.437116
    115          1           0        6.838931    0.908768   -5.540156
    116          1           0        7.094057   -0.726668   -5.507902
    117          1           0        8.521610    0.244215   -5.721535
    118          1           0        9.817900    0.937832   -4.281425
    119          1           0        9.832649   -0.154169   -2.974342
    120          1           0        8.448153    1.656254   -1.608472
    121          1           0        9.268678    2.747067   -2.708735
    122          1           0       11.162116    2.617161   -1.594839
    123          1           0       11.232114    0.888705   -1.742825
    124          1           0        9.436181    2.192670    0.292305
    125          1           0       10.260066   -0.379572    1.098990
    126          1           0        9.916161   -0.524976   -0.596499
    127          1           0        8.587521    0.095013    0.538319
    128          1           0       12.143811    2.416652    0.433194
    129          1           0       11.871321    0.850127    1.244597
    130          1           0        9.870260    2.948548    2.177571
    131          1           0       11.379722    3.722041    2.141783
    132          1           0       11.531930    2.900196    4.284257
    133          1           0       12.014342    1.359149    3.634061
    134          1           0        9.325313    1.147372    3.446546
    135          1           0        8.116814    2.687997    4.908104
    136          1           0        9.718263    3.357012    5.340480
    137          1           0        8.946617    1.973749    6.223090
    138          1           0       11.382326    0.090736    5.092697
    139          1           0        9.914855   -0.646661    4.351558
    140          1           0        9.888071   -0.111500    5.922743
 ---------------------------------------------------------------------

 SCF Done:  E(RCAM-B3LYP) =  -3007.17965077     A.U. after   18 cycles

 Excitation energies and oscillator strengths:

 Excited State   1:      Singlet-A      1.7237 eV  719.28 nm  f=0.3743  <S**2>=0.000
     245 -> 248       -0.16106
     246 -> 247        0.68780
 This state for optimization and/or second-order correction.
 Total Energy, E(TD-HF/TD-DFT) =  -3007.11630529
 Copying the excited state density for this state as the 1-particle RhoCI density.

 Excited State   2:      Singlet-A      2.2821 eV  543.28 nm  f=0.1280  <S**2>=0.000
     245 -> 247        0.63716
     246 -> 248        0.28254

 Excited State   3:      Singlet-A      3.4072 eV  363.89 nm  f=0.0177  <S**2>=0.000
     243 -> 247       -0.13821
     243 -> 250       -0.14019
     244 -> 247        0.61001
     244 -> 249       -0.12023
     244 -> 250        0.11888
     246 -> 248       -0.17716

 Excited State   4:      Singlet-A      3.5191 eV  352.32 nm  f=0.1600  <S**2>=0.000
     241 -> 247       -0.17803
     243 -> 247        0.51863
     243 -> 250        0.10112
     244 -> 247        0.24901
     245 -> 247       -0.13961
     246 -> 248        0.26636

 Excited State   5:      Singlet-A      3.5264 eV  351.59 nm  f=0.4423  <S**2>=0.000
     243 -> 247       -0.32847
     243 -> 250       -0.10431
     245 -> 247       -0.23046
     246 -> 248        0.54512

 The electronic state is 1-A.
 Alpha  occ. eigenvalues --  -46.87733 -19.26357 -19.24395 -19.20226 -19.19911
 Alpha  occ. eigenvalues --  -19.18187 -19.17242 -14.42225 -14.41583 -14.40190
 Alpha  occ. eigenvalues --  -14.38417 -10.40486 -10.37718 -10.36229 -10.32978
 Alpha  occ. eigenvalues --  -10.32879 -10.31843 -10.30973 -10.30636 -10.30589
 Alpha  occ. eigenvalues --  -10.30487 -10.30081 -10.29777 -10.29040 -10.28869
 Alpha  occ. eigenvalues --  -10.28640 -10.28343 -10.28241 -10.27955 -10.27859
 Alpha  occ. eigenvalues --  -10.27717 -10.27648 -10.27516 -10.27499 -10.27458
 Alpha  occ. eigenvalues --  -10.27286 -10.27041 -10.27028 -10.26658 -10.26647
 Alpha  occ. eigenvalues --  -10.26491 -10.26482 -10.26193 -10.26071 -10.25993
 Alpha  occ. eigenvalues --  -10.25917 -10.25861 -10.25852 -10.25839 -10.25720
 Alpha  occ. eigenvalues --  -10.25678 -10.25675 -10.25423 -10.25401 -10.25391
 Alpha  occ. eigenvalues --  -10.25294 -10.25287 -10.25277 -10.25053 -10.25011
 Alpha  occ. eigenvalues --  -10.24955 -10.24847 -10.24683 -10.24268 -10.24108
 Alpha  occ. eigenvalues --  -10.23504  -3.16443  -1.91352  -1.90878  -1.90773
 Alpha  occ. eigenvalues --   -1.16285  -1.16195  -1.10348  -1.09181  -1.06484
 Alpha  occ. eigenvalues --   -1.06395  -1.04951  -1.03863  -1.02899  -1.02311
 Alpha  occ. eigenvalues --   -0.92523  -0.92202  -0.90551  -0.89611  -0.89429
 Alpha  occ. eigenvalues --   -0.89188  -0.88455  -0.87941  -0.87565  -0.87004
 Alpha  occ. eigenvalues --   -0.86598  -0.86092  -0.84442  -0.83498  -0.83293
 Alpha  occ. eigenvalues --   -0.82912  -0.82173  -0.81372  -0.80960  -0.80474
 Alpha  occ. eigenvalues --   -0.80165  -0.78901  -0.78004  -0.77238  -0.76674
 Alpha  occ. eigenvalues --   -0.75614  -0.75595  -0.75436  -0.74895  -0.74647
 Alpha  occ. eigenvalues --   -0.73379  -0.73039  -0.71283  -0.70540  -0.69019
 Alpha  occ. eigenvalues --   -0.68787  -0.68506  -0.67445  -0.67410  -0.65703
 Alpha  occ. eigenvalues --   -0.65615  -0.65159  -0.64915  -0.64765  -0.64359
 Alpha  occ. eigenvalues --   -0.63972  -0.63603  -0.62684  -0.61869  -0.61453
 Alpha  occ. eigenvalues --   -0.60753  -0.59539  -0.59228  -0.58737  -0.57566
 Alpha  occ. eigenvalues --   -0.57185  -0.57072  -0.56623  -0.56101  -0.55437
 Alpha  occ. eigenvalues --   -0.55132  -0.54977  -0.54842  -0.54288  -0.53940
 Alpha  occ. eigenvalues --   -0.53836  -0.53687  -0.53552  -0.53347  -0.53104
 Alpha  occ. eigenvalues --   -0.52843  -0.52549  -0.52217  -0.52061  -0.52033
 Alpha  occ. eigenvalues --   -0.51597  -0.51391  -0.51126  -0.50962  -0.50774
 Alpha  occ. eigenvalues --   -0.50363  -0.50293  -0.50231  -0.50197  -0.49853
 Alpha  occ. eigenvalues --   -0.49595  -0.49319  -0.49289  -0.48929  -0.48728
 Alpha  occ. eigenvalues --   -0.48621  -0.48412  -0.48242  -0.47768  -0.47679
 Alpha  occ. eigenvalues --   -0.47504  -0.47375  -0.47349  -0.47025  -0.46868
 Alpha  occ. eigenvalues --   -0.46662  -0.46549  -0.46301  -0.46009  -0.45887
 Alpha  occ. eigenvalues --   -0.45677  -0.45376  -0.45292  -0.45236  -0.44956
 Alpha  occ. eigenvalues --   -0.44729  -0.44686  -0.44599  -0.44470  -0.44419
 Alpha  occ. eigenvalues --   -0.44205  -0.43736  -0.43636  -0.43570  -0.43475
 Alpha  occ. eigenvalues --   -0.43077  -0.42845  -0.42514  -0.42273  -0.41995
 Alpha  occ. eigenvalues --   -0.41927  -0.41623  -0.41351  -0.41140  -0.41066
 Alpha  occ. eigenvalues --   -0.40888  -0.40683  -0.40607  -0.40368  -0.40198
 Alpha  occ. eigenvalues --   -0.40120  -0.39766  -0.39432  -0.38977  -0.38522
 Alpha  occ. eigenvalues --   -0.38340  -0.38247  -0.38165  -0.37646  -0.37515
 Alpha  occ. eigenvalues --   -0.37467  -0.37070  -0.37006  -0.36966  -0.36365
 Alpha  occ. eigenvalues --   -0.35966  -0.35572  -0.35508  -0.34337  -0.34196
 Alpha  occ. eigenvalues --   -0.33790  -0.33463  -0.32599  -0.32250  -0.31362
 Alpha  occ. eigenvalues --   -0.30850  -0.30699  -0.29533  -0.29156  -0.24077
 Alpha  occ. eigenvalues --   -0.21016
 Alpha virt. eigenvalues --   -0.08543  -0.01668   0.00556   0.02902   0.03395
 Alpha virt. eigenvalues --    0.03585   0.03979   0.05688   0.06681   0.06919
 Alpha virt. eigenvalues --    0.07971   0.08175   0.08195   0.08855   0.09009

 Mulliken charges:
               1
     1  Mg   0.840847
     2  C    0.027730
     3  C   -0.107195
     4  C   -0.066820
     5  C   -0.071218
     6  N   -0.282075
     7  C   -0.080513
     8  C   -0.054880
     9  C   -0.044426
    10  C    0.076663
    11  C    0.062418
    12  C    0.039647
    13  C    0.099072
    14  C    0.182791
    15  O   -0.280133
    16  O   -0.353269
    17  N   -0.375438
    18  C    0.136045
    19  C   -0.158437
    20  C   -0.029614
    21  C    0.112012
    22  C    0.127836
    23  C    0.018790
    24  O   -0.213723
    25  C    0.015327
    26  N   -0.316238
    27  C    0.097937
    28  C   -0.060638
    29  C   -0.001782
    30  C    0.049123
    31  C    0.056837
    32  C    0.053015
    33  C   -0.019171
    34  N   -0.321699
    35  C    0.076526
    36  C   -0.187296
    37  C    0.018008
    38  C    0.094305
    39  C    0.134271
    40  C    0.000566
    41  O   -0.165001
    42  C   -0.000825
    43  C    0.159699
    44  O   -0.228649
    45  O   -0.306094
    46  C    0.192849
    47  C    0.269393
    48  C   -0.090087
    49  C   -0.187001
    50  C    0.087620
    51  C    0.079188
    52  C    0.039688
    53  C    0.064246
    54  C   -0.167815
    55  C    0.060614
    56  C    0.064527
    57  C    0.008899
    58  C    0.051753
    59  C   -0.217561
    60  C    0.049253
    61  C    0.097223
    62  C    0.032837
    63  C    0.049411
    64  C   -0.160648
    65  C    0.050450
    66  C    0.022239
    67  H   -0.027340
    68  H    0.002208
    69  H   -0.035417
    70  H    0.049939
    71  H    0.020652
    72  H    0.033520
    73  H    0.022171
    74  H    0.016291
    75  H    0.015033
    76  H    0.023265
    77  H    0.022892
    78  H    0.034636
    79  H    0.029221
    80  H    0.017118
    81  H    0.035354
    82  H    0.033359
    83  H    0.042601
    84  H    0.031148
    85  H    0.017242
    86  H    0.009811
    87  H    0.005186
    88  H    0.040297
    89  H    0.003599
    90  H    0.024224
    91  H    0.003271
    92  H    0.001249
    93  H    0.016377
    94  H    0.023316
    95  H    0.031304
    96  H    0.031495
    97  H    0.037256
    98  H    0.036283
    99  H    0.025117
   100  H    0.033080
   101  H    0.038067
   102  H    0.021104
   103  H    0.037034
   104  H   -0.002444
   105  H    0.007479
   106  H    0.035050
   107  H    0.013398
   108  H    0.017853
   109  H   -0.025406
   110  H    0.004933
   111  H    0.006768
   112  H   -0.000421
   113  H   -0.007405
   114  H   -0.003046
   115  H   -0.001382
   116  H   -0.006602
   117  H    0.005131
   118  H   -0.012083
   119  H   -0.014657
   120  H   -0.002386
   121  H   -0.000280
   122  H   -0.011005
   123  H   -0.008310
   124  H   -0.004605
   125  H    0.000319
   126  H    0.015369
   127  H    0.029329
   128  H   -0.007340
   129  H    0.000667
   130  H    0.004138
   131  H   -0.005317
   132  H   -0.013938
   133  H    0.001343
   134  H   -0.005457
   135  H    0.008993
   136  H    0.009258
   137  H    0.010740
   138  H    0.006924
   139  H    0.002823
   140  H   -0.001806
 Sum of Mulliken charges =  -0.00000

 Dipole moment (field-independent basis, Debye):
    X=              5.7819    Y=              5.1047    Z=             -3.5367  Tot=              8.4851
 Quadrupole moment (field-independent basis, Debye-Ang):
   XX=           -379.1463   YY=           -434.5159   ZZ=           -412.7351
   XY=            -27.6659   XZ=              8.9918   YZ=             20.6157

 Normal termination of Gaussian 16 at Fri Apr 29 10:41:15 2022.
