 Gaussian 16, Revision A.03,
 Gaussian 16:  ES64L-G16RevA.03 25-Dec-2016

 ---------------------------------
 #p PBE1PBE/Def2SVP td=(nstates=5)
 ---------------------------------

 -----------------------------------------------------
 step_251_chromophore_27 TDDFT with PBE1PBE functional
 -----------------------------------------------------
 Symbolic Z-matrix:
 Charge =  0 Multiplicity = 1

                         Standard orientation:
 ---------------------------------------------------------------------
 Center     Atomic      Atomic             Coordinates (Angstroms)
 Number     Number       Type             X           Y           Z
 ---------------------------------------------------------------------
      1         12           0       -4.430729    1.033631    0.114498
      2          6           0       -3.957373   -2.427306    0.418822
      3          6           0       -1.007552    1.394180    0.036555
      4          6           0       -4.901624    4.290197   -0.139892
      5          6           0       -7.891278    0.483978    0.369800
      6          7           0       -2.741783   -0.399721    0.134288
      7          6           0       -2.740452   -1.786421    0.286199
      8          6           0       -1.343956   -2.448626   -0.037751
      9          6           0       -0.480938   -1.202573    0.009752
     10          6           0       -1.466073    0.037639    0.055891
     11          6           0        0.382225   -1.163591    1.353138
     12          6           0       -1.501074   -2.966274   -1.536209
     13          6           0       -0.884047   -4.393209   -1.878600
     14          6           0        0.352080   -4.624060   -1.047478
     15          8           0        0.478935   -5.569227   -0.203426
     16          8           0        1.305137   -3.696188   -1.394426
     17          7           0       -3.158601    2.578822    0.119256
     18          6           0       -1.828856    2.557377    0.098724
     19          6           0       -1.254611    3.874206    0.015773
     20          6           0       -2.346193    4.733423   -0.219544
     21          6           0       -3.573880    3.873596   -0.025038
     22          6           0        0.191857    4.204174    0.075419
     23          6           0       -2.379973    6.179647   -0.668948
     24          8           0       -3.407461    6.731402   -1.079114
     25          6           0       -1.131158    7.053615   -0.523227
     26          7           0       -6.189764    2.219044    0.166876
     27          6           0       -6.048327    3.570792   -0.041033
     28          6           0       -7.438404    4.181879   -0.204221
     29          6           0       -8.437638    2.925311   -0.160897
     30          6           0       -7.485091    1.783668    0.079195
     31          6           0       -7.648463    5.318400    0.857767
     32          6           0       -9.358700    2.736505   -1.356057
     33          6           0      -10.863996    2.585762   -0.971956
     34          7           0       -5.669266   -0.618901    0.369519
     35          6           0       -7.093518   -0.691094    0.478739
     36          6           0       -7.505718   -2.033743    0.683359
     37          6           0       -6.289481   -2.736935    0.660584
     38          6           0       -5.227869   -1.819249    0.519611
     39          6           0       -8.870833   -2.623988    0.833387
     40          6           0       -5.692654   -4.031742    0.739562
     41          8           0       -6.148602   -5.136754    0.917905
     42          6           0       -4.169518   -3.867586    0.473325
     43          6           0       -3.415900   -4.622101    1.507599
     44          8           0       -3.296091   -4.346758    2.698088
     45          8           0       -2.829834   -5.649760    0.885635
     46          6           0       -1.962300   -6.490896    1.683276
     47          6           0        2.583859   -3.755923   -0.678904
     48          6           0        3.533552   -2.607345   -0.923136
     49          6           0        4.877628   -2.654067   -1.200902
     50          6           0        5.738019   -3.870787   -1.052509
     51          6           0        5.674898   -1.429277   -1.371184
     52          6           0        6.014842   -1.206921   -2.834811
     53          6           0        7.538659   -1.028521   -3.027023
     54          6           0        7.809066    0.318787   -3.702161
     55          6           0        7.577774    0.193313   -5.178162
     56          6           0        9.258139    0.677905   -3.383237
     57          6           0        9.322887    1.759634   -2.250197
     58          6           0       10.594984    1.705617   -1.405488
     59          6           0       10.260257    1.507722    0.095748
     60          6           0        9.649492    0.037339    0.298254
     61          6           0       11.456078    1.839273    1.049608
     62          6           0       10.936842    2.731097    2.240779
     63          6           0       11.232146    2.117020    3.588548
     64          6           0        9.939601    1.477893    4.284258
     65          6           0        9.121119    2.448772    5.258035
     66          6           0       10.303834    0.173103    4.956111
     67          1           0        0.042157    1.639931   -0.136392
     68          1           0       -4.988784    5.377001   -0.215301
     69          1           0       -8.960015    0.260516    0.391034
     70          1           0       -1.262819   -3.283522    0.657599
     71          1           0        0.138963   -1.139760   -0.883982
     72          1           0        0.180222   -2.015858    2.002234
     73          1           0        0.140561   -0.245103    1.887656
     74          1           0        1.413985   -1.144913    1.001935
     75          1           0       -1.047337   -2.302102   -2.271207
     76          1           0       -2.570063   -2.949438   -1.750135
     77          1           0       -0.457233   -4.395071   -2.881628
     78          1           0       -1.658248   -5.157688   -1.948986
     79          1           0        0.469817    4.557130   -0.918622
     80          1           0        0.793026    3.322532    0.293282
     81          1           0        0.430148    4.974684    0.808051
     82          1           0       -1.594343    8.038905   -0.570528
     83          1           0       -0.379105    6.884411   -1.294772
     84          1           0       -0.630700    7.053260    0.444906
     85          1           0       -7.620886    4.694482   -1.148655
     86          1           0       -9.062172    3.016502    0.727872
     87          1           0       -8.083770    6.154221    0.309918
     88          1           0       -6.741289    5.597355    1.393881
     89          1           0       -8.490579    5.095268    1.513927
     90          1           0       -9.092838    1.897909   -1.998855
     91          1           0       -9.335970    3.704663   -1.858306
     92          1           0      -11.009339    2.761165    0.094100
     93          1           0      -11.200043    1.552712   -1.058964
     94          1           0      -11.488215    3.280264   -1.534579
     95          1           0       -9.232752   -2.581456   -0.194266
     96          1           0       -9.391698   -2.016181    1.572907
     97          1           0       -8.842328   -3.674978    1.117521
     98          1           0       -4.022105   -4.417643   -0.457045
     99          1           0       -2.497585   -6.849357    2.562969
    100          1           0       -1.078464   -6.018057    2.112807
    101          1           0       -1.686644   -7.330528    1.044951
    102          1           0        2.984411   -4.708273   -1.025886
    103          1           0        2.378093   -3.869040    0.384717
    104          1           0        3.035024   -1.647403   -1.055191
    105          1           0        5.106447   -4.742597   -1.220608
    106          1           0        6.208657   -3.919952   -0.070616
    107          1           0        6.570590   -3.964193   -1.750300
    108          1           0        6.441099   -1.313620   -0.605081
    109          1           0        5.021193   -0.580780   -1.170675
    110          1           0        5.461043   -0.336197   -3.186206
    111          1           0        5.621343   -2.061286   -3.386719
    112          1           0        7.989448   -1.763400   -3.694598
    113          1           0        8.090479   -1.029497   -2.086990
    114          1           0        7.142479    1.139730   -3.437116
    115          1           0        6.838931    0.908768   -5.540156
    116          1           0        7.094057   -0.726668   -5.507902
    117          1           0        8.521610    0.244215   -5.721535
    118          1           0        9.817900    0.937832   -4.281425
    119          1           0        9.832649   -0.154169   -2.974342
    120          1           0        8.448153    1.656254   -1.608472
    121          1           0        9.268678    2.747067   -2.708735
    122          1           0       11.162116    2.617161   -1.594839
    123          1           0       11.232114    0.888705   -1.742825
    124          1           0        9.436181    2.192670    0.292305
    125          1           0       10.260066   -0.379572    1.098990
    126          1           0        9.916161   -0.524976   -0.596499
    127          1           0        8.587521    0.095013    0.538319
    128          1           0       12.143811    2.416652    0.433194
    129          1           0       11.871321    0.850127    1.244597
    130          1           0        9.870260    2.948548    2.177571
    131          1           0       11.379722    3.722041    2.141783
    132          1           0       11.531930    2.900196    4.284257
    133          1           0       12.014342    1.359149    3.634061
    134          1           0        9.325313    1.147372    3.446546
    135          1           0        8.116814    2.687997    4.908104
    136          1           0        9.718263    3.357012    5.340480
    137          1           0        8.946617    1.973749    6.223090
    138          1           0       11.382326    0.090736    5.092697
    139          1           0        9.914855   -0.646661    4.351558
    140          1           0        9.888071   -0.111500    5.922743
 ---------------------------------------------------------------------

 SCF Done:  E(RPBE1PBE) =  -3005.36790519     A.U. after   15 cycles

 Excitation energies and oscillator strengths:

 Excited State   1:      Singlet-A      1.8600 eV  666.59 nm  f=0.3583  <S**2>=0.000
     245 -> 248       -0.15456
     246 -> 247        0.69398
     246 <- 247       -0.10782
 This state for optimization and/or second-order correction.
 Total Energy, E(TD-HF/TD-DFT) =  -3005.29955267
 Copying the excited state density for this state as the 1-particle RhoCI density.

 Excited State   2:      Singlet-A      2.2752 eV  544.93 nm  f=0.1270  <S**2>=0.000
     245 -> 247        0.64800
     246 -> 248        0.25120
     246 -> 249        0.10945

 Excited State   3:      Singlet-A      2.8142 eV  440.56 nm  f=0.0002  <S**2>=0.000
     244 -> 247        0.68237
     244 -> 250       -0.10890

 Excited State   4:      Singlet-A      3.1050 eV  399.30 nm  f=0.0002  <S**2>=0.000
     243 -> 247        0.68625
     246 -> 248       -0.11576

 Excited State   5:      Singlet-A      3.2300 eV  383.85 nm  f=0.2209  <S**2>=0.000
     239 -> 247        0.16993
     240 -> 247        0.23910
     245 -> 247       -0.19013
     246 -> 248        0.54953
     246 -> 249       -0.16987

 The electronic state is 1-A.
 Alpha  occ. eigenvalues --  -46.91130 -19.27017 -19.25123 -19.20543 -19.19899
 Alpha  occ. eigenvalues --  -19.18529 -19.17729 -14.41760 -14.41097 -14.39676
 Alpha  occ. eigenvalues --  -14.38204 -10.37562 -10.34823 -10.33132 -10.30341
 Alpha  occ. eigenvalues --  -10.30239 -10.29382 -10.28428 -10.28406 -10.28179
 Alpha  occ. eigenvalues --  -10.28045 -10.27915 -10.27069 -10.26972 -10.26490
 Alpha  occ. eigenvalues --  -10.26340 -10.25982 -10.25955 -10.25381 -10.25372
 Alpha  occ. eigenvalues --  -10.25333 -10.25321 -10.25269 -10.25104 -10.25062
 Alpha  occ. eigenvalues --  -10.24990 -10.24951 -10.24825 -10.24381 -10.24370
 Alpha  occ. eigenvalues --  -10.23905 -10.23829 -10.23745 -10.23743 -10.23669
 Alpha  occ. eigenvalues --  -10.23568 -10.23411 -10.23409 -10.23377 -10.23339
 Alpha  occ. eigenvalues --  -10.23203 -10.23154 -10.22968 -10.22932 -10.22907
 Alpha  occ. eigenvalues --  -10.22870 -10.22854 -10.22841 -10.22592 -10.22509
 Alpha  occ. eigenvalues --  -10.22434 -10.22383 -10.22239 -10.21647 -10.21551
 Alpha  occ. eigenvalues --  -10.21480  -3.13416  -1.86268  -1.85771  -1.85670
 Alpha  occ. eigenvalues --   -1.11167  -1.10994  -1.04840  -1.04168  -1.01345
 Alpha  occ. eigenvalues --   -1.01280  -0.99423  -0.98691  -0.97498  -0.96978
 Alpha  occ. eigenvalues --   -0.87036  -0.86316  -0.84657  -0.83805  -0.83625
 Alpha  occ. eigenvalues --   -0.83312  -0.82664  -0.82203  -0.81656  -0.81501
 Alpha  occ. eigenvalues --   -0.80909  -0.80321  -0.78613  -0.77787  -0.77643
 Alpha  occ. eigenvalues --   -0.77112  -0.76257  -0.75613  -0.75256  -0.74736
 Alpha  occ. eigenvalues --   -0.74326  -0.73032  -0.72306  -0.71616  -0.70820
 Alpha  occ. eigenvalues --   -0.69988  -0.69654  -0.69542  -0.69281  -0.68818
 Alpha  occ. eigenvalues --   -0.67736  -0.67491  -0.65690  -0.64827  -0.63374
 Alpha  occ. eigenvalues --   -0.63058  -0.62785  -0.61965  -0.61627  -0.60096
 Alpha  occ. eigenvalues --   -0.59801  -0.59630  -0.59479  -0.58969  -0.58881
 Alpha  occ. eigenvalues --   -0.58486  -0.57743  -0.56880  -0.56497  -0.55779
 Alpha  occ. eigenvalues --   -0.55176  -0.54100  -0.53821  -0.53321  -0.52213
 Alpha  occ. eigenvalues --   -0.51702  -0.51467  -0.51145  -0.50568  -0.50002
 Alpha  occ. eigenvalues --   -0.49686  -0.49547  -0.49247  -0.48746  -0.48451
 Alpha  occ. eigenvalues --   -0.48293  -0.48214  -0.48103  -0.47830  -0.47507
 Alpha  occ. eigenvalues --   -0.47203  -0.47013  -0.46844  -0.46687  -0.46578
 Alpha  occ. eigenvalues --   -0.46258  -0.45953  -0.45772  -0.45446  -0.45274
 Alpha  occ. eigenvalues --   -0.45005  -0.44888  -0.44837  -0.44737  -0.44463
 Alpha  occ. eigenvalues --   -0.44127  -0.43954  -0.43824  -0.43484  -0.43338
 Alpha  occ. eigenvalues --   -0.43142  -0.42911  -0.42880  -0.42387  -0.42328
 Alpha  occ. eigenvalues --   -0.42156  -0.42091  -0.42021  -0.41752  -0.41433
 Alpha  occ. eigenvalues --   -0.41334  -0.41276  -0.41077  -0.40722  -0.40537
 Alpha  occ. eigenvalues --   -0.40294  -0.40065  -0.39973  -0.39938  -0.39832
 Alpha  occ. eigenvalues --   -0.39475  -0.39371  -0.39352  -0.39277  -0.39182
 Alpha  occ. eigenvalues --   -0.38972  -0.38534  -0.38359  -0.38210  -0.38155
 Alpha  occ. eigenvalues --   -0.37864  -0.37468  -0.37380  -0.37164  -0.36846
 Alpha  occ. eigenvalues --   -0.36710  -0.36462  -0.36098  -0.36018  -0.35923
 Alpha  occ. eigenvalues --   -0.35641  -0.35556  -0.35424  -0.35353  -0.35068
 Alpha  occ. eigenvalues --   -0.34913  -0.34725  -0.34211  -0.33768  -0.33475
 Alpha  occ. eigenvalues --   -0.33268  -0.33122  -0.32953  -0.32517  -0.32412
 Alpha  occ. eigenvalues --   -0.32264  -0.32093  -0.32012  -0.31790  -0.31425
 Alpha  occ. eigenvalues --   -0.30850  -0.30514  -0.30446  -0.29437  -0.29298
 Alpha  occ. eigenvalues --   -0.28857  -0.28579  -0.27807  -0.27135  -0.26437
 Alpha  occ. eigenvalues --   -0.26358  -0.26008  -0.25210  -0.24446  -0.20976
 Alpha  occ. eigenvalues --   -0.18646
 Alpha virt. eigenvalues --   -0.11027  -0.05298  -0.03509  -0.01542  -0.00845
 Alpha virt. eigenvalues --   -0.00657   0.00596   0.01760   0.02104   0.03211
 Alpha virt. eigenvalues --    0.03933   0.04581   0.04919   0.04927   0.05618

 Mulliken charges:
               1
     1  Mg   0.995086
     2  C    0.000753
     3  C   -0.088314
     4  C   -0.053301
     5  C   -0.057811
     6  N   -0.383377
     7  C    0.013480
     8  C   -0.138149
     9  C   -0.119395
    10  C    0.107565
    11  C    0.007032
    12  C   -0.003416
    13  C    0.029334
    14  C    0.236836
    15  O   -0.312325
    16  O   -0.380601
    17  N   -0.501921
    18  C    0.158507
    19  C   -0.188317
    20  C   -0.075254
    21  C    0.144404
    22  C    0.066492
    23  C    0.064890
    24  O   -0.250906
    25  C   -0.054412
    26  N   -0.424573
    27  C    0.118577
    28  C   -0.127570
    29  C   -0.079640
    30  C    0.090308
    31  C   -0.000441
    32  C   -0.010901
    33  C   -0.088102
    34  N   -0.454906
    35  C    0.092635
    36  C   -0.196176
    37  C   -0.041242
    38  C    0.162259
    39  C    0.078856
    40  C    0.104685
    41  O   -0.211151
    42  C   -0.117463
    43  C    0.253978
    44  O   -0.265113
    45  O   -0.340534
    46  C    0.138264
    47  C    0.232738
    48  C   -0.104600
    49  C   -0.236174
    50  C    0.030653
    51  C    0.010224
    52  C   -0.014591
    53  C   -0.000398
    54  C   -0.260516
    55  C    0.009106
    56  C    0.012851
    57  C   -0.052094
    58  C   -0.005515
    59  C   -0.295623
    60  C   -0.015374
    61  C    0.040431
    62  C   -0.033376
    63  C   -0.005766
    64  C   -0.252661
    65  C   -0.010805
    66  C   -0.034453
    67  H    0.004850
    68  H    0.033279
    69  H   -0.001471
    70  H    0.090758
    71  H    0.055934
    72  H    0.059054
    73  H    0.050760
    74  H    0.046137
    75  H    0.046771
    76  H    0.057624
    77  H    0.056880
    78  H    0.064707
    79  H    0.057074
    80  H    0.042478
    81  H    0.061686
    82  H    0.059373
    83  H    0.067823
    84  H    0.056512
    85  H    0.053221
    86  H    0.047633
    87  H    0.032793
    88  H    0.067499
    89  H    0.030950
    90  H    0.055925
    91  H    0.038647
    92  H    0.028328
    93  H    0.043525
    94  H    0.050771
    95  H    0.060625
    96  H    0.058781
    97  H    0.065255
    98  H    0.075052
    99  H    0.047782
   100  H    0.055033
   101  H    0.059726
   102  H    0.047627
   103  H    0.062689
   104  H    0.027334
   105  H    0.035040
   106  H    0.062383
   107  H    0.040947
   108  H    0.049805
   109  H    0.009134
   110  H    0.036388
   111  H    0.039894
   112  H    0.032651
   113  H    0.031885
   114  H    0.033678
   115  H    0.026044
   116  H    0.020823
   117  H    0.031818
   118  H    0.020105
   119  H    0.017337
   120  H    0.029882
   121  H    0.033876
   122  H    0.021956
   123  H    0.025043
   124  H    0.034550
   125  H    0.029629
   126  H    0.042334
   127  H    0.056059
   128  H    0.026453
   129  H    0.031480
   130  H    0.035314
   131  H    0.027558
   132  H    0.019577
   133  H    0.032536
   134  H    0.036106
   135  H    0.036173
   136  H    0.035714
   137  H    0.037297
   138  H    0.033405
   139  H    0.029831
   140  H    0.025189
 Sum of Mulliken charges =  -0.00000

 Dipole moment (field-independent basis, Debye):
    X=              5.3226    Y=              4.6195    Z=             -3.5245  Tot=              7.8799
 Quadrupole moment (field-independent basis, Debye-Ang):
   XX=           -370.0325   YY=           -432.3318   ZZ=           -410.3893
   XY=            -26.7353   XZ=              8.6946   YZ=             20.4610

 Normal termination of Gaussian 16 at Fri Apr 29 11:02:37 2022.
