 Gaussian 16, Revision A.03,
 Gaussian 16:  ES64L-G16RevA.03 25-Dec-2016

 --------------------------------
 #p wB97XD/Def2SVP td=(nstates=5)
 --------------------------------

 ----------------------------------------------------
 step_251_chromophore_27 TDDFT with wB97XD functional
 ----------------------------------------------------
 Symbolic Z-matrix:
 Charge =  0 Multiplicity = 1

                         Standard orientation:
 ---------------------------------------------------------------------
 Center     Atomic      Atomic             Coordinates (Angstroms)
 Number     Number       Type             X           Y           Z
 ---------------------------------------------------------------------
      1         12           0       -4.430729    1.033631    0.114498
      2          6           0       -3.957373   -2.427306    0.418822
      3          6           0       -1.007552    1.394180    0.036555
      4          6           0       -4.901624    4.290197   -0.139892
      5          6           0       -7.891278    0.483978    0.369800
      6          7           0       -2.741783   -0.399721    0.134288
      7          6           0       -2.740452   -1.786421    0.286199
      8          6           0       -1.343956   -2.448626   -0.037751
      9          6           0       -0.480938   -1.202573    0.009752
     10          6           0       -1.466073    0.037639    0.055891
     11          6           0        0.382225   -1.163591    1.353138
     12          6           0       -1.501074   -2.966274   -1.536209
     13          6           0       -0.884047   -4.393209   -1.878600
     14          6           0        0.352080   -4.624060   -1.047478
     15          8           0        0.478935   -5.569227   -0.203426
     16          8           0        1.305137   -3.696188   -1.394426
     17          7           0       -3.158601    2.578822    0.119256
     18          6           0       -1.828856    2.557377    0.098724
     19          6           0       -1.254611    3.874206    0.015773
     20          6           0       -2.346193    4.733423   -0.219544
     21          6           0       -3.573880    3.873596   -0.025038
     22          6           0        0.191857    4.204174    0.075419
     23          6           0       -2.379973    6.179647   -0.668948
     24          8           0       -3.407461    6.731402   -1.079114
     25          6           0       -1.131158    7.053615   -0.523227
     26          7           0       -6.189764    2.219044    0.166876
     27          6           0       -6.048327    3.570792   -0.041033
     28          6           0       -7.438404    4.181879   -0.204221
     29          6           0       -8.437638    2.925311   -0.160897
     30          6           0       -7.485091    1.783668    0.079195
     31          6           0       -7.648463    5.318400    0.857767
     32          6           0       -9.358700    2.736505   -1.356057
     33          6           0      -10.863996    2.585762   -0.971956
     34          7           0       -5.669266   -0.618901    0.369519
     35          6           0       -7.093518   -0.691094    0.478739
     36          6           0       -7.505718   -2.033743    0.683359
     37          6           0       -6.289481   -2.736935    0.660584
     38          6           0       -5.227869   -1.819249    0.519611
     39          6           0       -8.870833   -2.623988    0.833387
     40          6           0       -5.692654   -4.031742    0.739562
     41          8           0       -6.148602   -5.136754    0.917905
     42          6           0       -4.169518   -3.867586    0.473325
     43          6           0       -3.415900   -4.622101    1.507599
     44          8           0       -3.296091   -4.346758    2.698088
     45          8           0       -2.829834   -5.649760    0.885635
     46          6           0       -1.962300   -6.490896    1.683276
     47          6           0        2.583859   -3.755923   -0.678904
     48          6           0        3.533552   -2.607345   -0.923136
     49          6           0        4.877628   -2.654067   -1.200902
     50          6           0        5.738019   -3.870787   -1.052509
     51          6           0        5.674898   -1.429277   -1.371184
     52          6           0        6.014842   -1.206921   -2.834811
     53          6           0        7.538659   -1.028521   -3.027023
     54          6           0        7.809066    0.318787   -3.702161
     55          6           0        7.577774    0.193313   -5.178162
     56          6           0        9.258139    0.677905   -3.383237
     57          6           0        9.322887    1.759634   -2.250197
     58          6           0       10.594984    1.705617   -1.405488
     59          6           0       10.260257    1.507722    0.095748
     60          6           0        9.649492    0.037339    0.298254
     61          6           0       11.456078    1.839273    1.049608
     62          6           0       10.936842    2.731097    2.240779
     63          6           0       11.232146    2.117020    3.588548
     64          6           0        9.939601    1.477893    4.284258
     65          6           0        9.121119    2.448772    5.258035
     66          6           0       10.303834    0.173103    4.956111
     67          1           0        0.042157    1.639931   -0.136392
     68          1           0       -4.988784    5.377001   -0.215301
     69          1           0       -8.960015    0.260516    0.391034
     70          1           0       -1.262819   -3.283522    0.657599
     71          1           0        0.138963   -1.139760   -0.883982
     72          1           0        0.180222   -2.015858    2.002234
     73          1           0        0.140561   -0.245103    1.887656
     74          1           0        1.413985   -1.144913    1.001935
     75          1           0       -1.047337   -2.302102   -2.271207
     76          1           0       -2.570063   -2.949438   -1.750135
     77          1           0       -0.457233   -4.395071   -2.881628
     78          1           0       -1.658248   -5.157688   -1.948986
     79          1           0        0.469817    4.557130   -0.918622
     80          1           0        0.793026    3.322532    0.293282
     81          1           0        0.430148    4.974684    0.808051
     82          1           0       -1.594343    8.038905   -0.570528
     83          1           0       -0.379105    6.884411   -1.294772
     84          1           0       -0.630700    7.053260    0.444906
     85          1           0       -7.620886    4.694482   -1.148655
     86          1           0       -9.062172    3.016502    0.727872
     87          1           0       -8.083770    6.154221    0.309918
     88          1           0       -6.741289    5.597355    1.393881
     89          1           0       -8.490579    5.095268    1.513927
     90          1           0       -9.092838    1.897909   -1.998855
     91          1           0       -9.335970    3.704663   -1.858306
     92          1           0      -11.009339    2.761165    0.094100
     93          1           0      -11.200043    1.552712   -1.058964
     94          1           0      -11.488215    3.280264   -1.534579
     95          1           0       -9.232752   -2.581456   -0.194266
     96          1           0       -9.391698   -2.016181    1.572907
     97          1           0       -8.842328   -3.674978    1.117521
     98          1           0       -4.022105   -4.417643   -0.457045
     99          1           0       -2.497585   -6.849357    2.562969
    100          1           0       -1.078464   -6.018057    2.112807
    101          1           0       -1.686644   -7.330528    1.044951
    102          1           0        2.984411   -4.708273   -1.025886
    103          1           0        2.378093   -3.869040    0.384717
    104          1           0        3.035024   -1.647403   -1.055191
    105          1           0        5.106447   -4.742597   -1.220608
    106          1           0        6.208657   -3.919952   -0.070616
    107          1           0        6.570590   -3.964193   -1.750300
    108          1           0        6.441099   -1.313620   -0.605081
    109          1           0        5.021193   -0.580780   -1.170675
    110          1           0        5.461043   -0.336197   -3.186206
    111          1           0        5.621343   -2.061286   -3.386719
    112          1           0        7.989448   -1.763400   -3.694598
    113          1           0        8.090479   -1.029497   -2.086990
    114          1           0        7.142479    1.139730   -3.437116
    115          1           0        6.838931    0.908768   -5.540156
    116          1           0        7.094057   -0.726668   -5.507902
    117          1           0        8.521610    0.244215   -5.721535
    118          1           0        9.817900    0.937832   -4.281425
    119          1           0        9.832649   -0.154169   -2.974342
    120          1           0        8.448153    1.656254   -1.608472
    121          1           0        9.268678    2.747067   -2.708735
    122          1           0       11.162116    2.617161   -1.594839
    123          1           0       11.232114    0.888705   -1.742825
    124          1           0        9.436181    2.192670    0.292305
    125          1           0       10.260066   -0.379572    1.098990
    126          1           0        9.916161   -0.524976   -0.596499
    127          1           0        8.587521    0.095013    0.538319
    128          1           0       12.143811    2.416652    0.433194
    129          1           0       11.871321    0.850127    1.244597
    130          1           0        9.870260    2.948548    2.177571
    131          1           0       11.379722    3.722041    2.141783
    132          1           0       11.531930    2.900196    4.284257
    133          1           0       12.014342    1.359149    3.634061
    134          1           0        9.325313    1.147372    3.446546
    135          1           0        8.116814    2.687997    4.908104
    136          1           0        9.718263    3.357012    5.340480
    137          1           0        8.946617    1.973749    6.223090
    138          1           0       11.382326    0.090736    5.092697
    139          1           0        9.914855   -0.646661    4.351558
    140          1           0        9.888071   -0.111500    5.922743
 ---------------------------------------------------------------------

 SCF Done:  E(RwB97XD) =  -3007.88001910     A.U. after   19 cycles

 Excitation energies and oscillator strengths:

 Excited State   1:      Singlet-A      1.6784 eV  738.69 nm  f=0.3737  <S**2>=0.000
     245 -> 248       -0.16566
     246 -> 247        0.68557
     245 <- 248       -0.10524
 This state for optimization and/or second-order correction.
 Total Energy, E(TD-HF/TD-DFT) =  -3007.81833793
 Copying the excited state density for this state as the 1-particle RhoCI density.

 Excited State   2:      Singlet-A      2.2321 eV  555.45 nm  f=0.1255  <S**2>=0.000
     245 -> 247        0.63526
     246 -> 248        0.28405

 Excited State   3:      Singlet-A      3.4616 eV  358.17 nm  f=0.0300  <S**2>=0.000
     244 -> 247        0.60225
     244 -> 249       -0.15012
     244 -> 250       -0.15881
     246 -> 248       -0.20179

 Excited State   4:      Singlet-A      3.5544 eV  348.82 nm  f=0.5996  <S**2>=0.000
     239 -> 247        0.10518
     241 -> 247       -0.19588
     243 -> 247        0.13957
     244 -> 247        0.15597
     245 -> 247       -0.25952
     246 -> 248        0.56666

 Excited State   5:      Singlet-A      3.5784 eV  346.48 nm  f=0.0241  <S**2>=0.000
     241 -> 247       -0.11492
     243 -> 247        0.60243
     243 -> 249       -0.14234
     243 -> 250       -0.14078
     244 -> 250        0.16539
     246 -> 248       -0.15546

 The electronic state is 1-A.
 Alpha  occ. eigenvalues --  -46.94080 -19.31564 -19.29581 -19.25166 -19.25007
 Alpha  occ. eigenvalues --  -19.23120 -19.22218 -14.46842 -14.46193 -14.44827
 Alpha  occ. eigenvalues --  -14.42978 -10.44312 -10.41543 -10.40270 -10.36923
 Alpha  occ. eigenvalues --  -10.36764 -10.35944 -10.35109 -10.34707 -10.34702
 Alpha  occ. eigenvalues --  -10.34501 -10.34024 -10.33513 -10.33269 -10.32825
 Alpha  occ. eigenvalues --  -10.32717 -10.32348 -10.32308 -10.32145 -10.31855
 Alpha  occ. eigenvalues --  -10.31639 -10.31616 -10.31608 -10.31576 -10.31362
 Alpha  occ. eigenvalues --  -10.31252 -10.31066 -10.31061 -10.30653 -10.30570
 Alpha  occ. eigenvalues --  -10.30556 -10.30313 -10.30108 -10.30034 -10.29920
 Alpha  occ. eigenvalues --  -10.29919 -10.29869 -10.29841 -10.29810 -10.29607
 Alpha  occ. eigenvalues --  -10.29559 -10.29540 -10.29324 -10.29292 -10.29271
 Alpha  occ. eigenvalues --  -10.29250 -10.29242 -10.29205 -10.28987 -10.28885
 Alpha  occ. eigenvalues --  -10.28834 -10.28809 -10.28616 -10.28105 -10.27919
 Alpha  occ. eigenvalues --  -10.27467  -3.20199  -1.93806  -1.93308  -1.93204
 Alpha  occ. eigenvalues --   -1.18445  -1.18364  -1.12623  -1.11350  -1.08649
 Alpha  occ. eigenvalues --   -1.08561  -1.07050  -1.05853  -1.04896  -1.04325
 Alpha  occ. eigenvalues --   -0.94468  -0.94012  -0.92344  -0.91585  -0.91254
 Alpha  occ. eigenvalues --   -0.90987  -0.90388  -0.89862  -0.89342  -0.88909
 Alpha  occ. eigenvalues --   -0.88550  -0.87971  -0.86292  -0.85394  -0.85193
 Alpha  occ. eigenvalues --   -0.84776  -0.84121  -0.83277  -0.82866  -0.82422
 Alpha  occ. eigenvalues --   -0.82008  -0.80912  -0.79887  -0.79146  -0.78518
 Alpha  occ. eigenvalues --   -0.77544  -0.77384  -0.77263  -0.76814  -0.76499
 Alpha  occ. eigenvalues --   -0.75318  -0.75011  -0.73264  -0.72461  -0.70965
 Alpha  occ. eigenvalues --   -0.70694  -0.70457  -0.69442  -0.69288  -0.67656
 Alpha  occ. eigenvalues --   -0.67476  -0.67087  -0.66911  -0.66590  -0.66341
 Alpha  occ. eigenvalues --   -0.65934  -0.65425  -0.64531  -0.63829  -0.63343
 Alpha  occ. eigenvalues --   -0.62791  -0.61484  -0.61221  -0.60719  -0.59528
 Alpha  occ. eigenvalues --   -0.59113  -0.58992  -0.58621  -0.57993  -0.57383
 Alpha  occ. eigenvalues --   -0.57059  -0.56940  -0.56730  -0.56187  -0.55826
 Alpha  occ. eigenvalues --   -0.55693  -0.55608  -0.55479  -0.55306  -0.55065
 Alpha  occ. eigenvalues --   -0.54768  -0.54427  -0.54140  -0.53981  -0.53942
 Alpha  occ. eigenvalues --   -0.53506  -0.53295  -0.53048  -0.52936  -0.52694
 Alpha  occ. eigenvalues --   -0.52296  -0.52199  -0.52141  -0.52086  -0.51815
 Alpha  occ. eigenvalues --   -0.51476  -0.51221  -0.51165  -0.50822  -0.50701
 Alpha  occ. eigenvalues --   -0.50593  -0.50429  -0.50161  -0.49656  -0.49603
 Alpha  occ. eigenvalues --   -0.49415  -0.49279  -0.49264  -0.48947  -0.48721
 Alpha  occ. eigenvalues --   -0.48540  -0.48451  -0.48201  -0.47936  -0.47762
 Alpha  occ. eigenvalues --   -0.47532  -0.47252  -0.47177  -0.47156  -0.46828
 Alpha  occ. eigenvalues --   -0.46605  -0.46564  -0.46521  -0.46391  -0.46371
 Alpha  occ. eigenvalues --   -0.46120  -0.45690  -0.45562  -0.45454  -0.45363
 Alpha  occ. eigenvalues --   -0.45008  -0.44900  -0.44410  -0.44160  -0.43901
 Alpha  occ. eigenvalues --   -0.43835  -0.43549  -0.43234  -0.43083  -0.42965
 Alpha  occ. eigenvalues --   -0.42750  -0.42582  -0.42485  -0.42294  -0.42067
 Alpha  occ. eigenvalues --   -0.42045  -0.41655  -0.41298  -0.40828  -0.40437
 Alpha  occ. eigenvalues --   -0.40198  -0.40165  -0.40013  -0.39526  -0.39422
 Alpha  occ. eigenvalues --   -0.39331  -0.39074  -0.39012  -0.38831  -0.38361
 Alpha  occ. eigenvalues --   -0.37829  -0.37497  -0.37446  -0.36186  -0.36178
 Alpha  occ. eigenvalues --   -0.35679  -0.35583  -0.34680  -0.34282  -0.33549
 Alpha  occ. eigenvalues --   -0.33065  -0.32723  -0.31550  -0.31173  -0.26007
 Alpha  occ. eigenvalues --   -0.22838
 Alpha virt. eigenvalues --   -0.06888   0.00259   0.02567   0.05050   0.05855
 Alpha virt. eigenvalues --    0.06103   0.06536   0.08257   0.09047   0.09452
 Alpha virt. eigenvalues --    0.10492   0.11362   0.11581   0.11714   0.12274

 Mulliken charges:
               1
     1  Mg   0.983603
     2  C    0.006046
     3  C   -0.113738
     4  C   -0.076028
     5  C   -0.074092
     6  N   -0.351460
     7  C   -0.025934
     8  C   -0.103846
     9  C   -0.096437
    10  C    0.100598
    11  C    0.021066
    12  C    0.006849
    13  C    0.041610
    14  C    0.227857
    15  O   -0.307814
    16  O   -0.379722
    17  N   -0.466383
    18  C    0.153913
    19  C   -0.174465
    20  C   -0.070464
    21  C    0.137856
    22  C    0.078099
    23  C    0.062707
    24  O   -0.243586
    25  C   -0.045564
    26  N   -0.389793
    27  C    0.116053
    28  C   -0.106883
    29  C   -0.048748
    30  C    0.073261
    31  C    0.009999
    32  C    0.001433
    33  C   -0.071409
    34  N   -0.413932
    35  C    0.082225
    36  C   -0.193392
    37  C   -0.036371
    38  C    0.137164
    39  C    0.088203
    40  C    0.082597
    41  O   -0.203564
    42  C   -0.072404
    43  C    0.226480
    44  O   -0.258572
    45  O   -0.336272
    46  C    0.148671
    47  C    0.244375
    48  C   -0.111394
    49  C   -0.216069
    50  C    0.040702
    51  C    0.030237
    52  C   -0.003943
    53  C    0.029519
    54  C   -0.227421
    55  C    0.015326
    56  C    0.031025
    57  C   -0.035451
    58  C    0.011950
    59  C   -0.264378
    60  C    0.001036
    61  C    0.052876
    62  C   -0.013176
    63  C    0.008802
    64  C   -0.222359
    65  C    0.003404
    66  C   -0.022701
    67  H   -0.001827
    68  H    0.028281
    69  H   -0.007924
    70  H    0.070540
    71  H    0.044534
    72  H    0.055736
    73  H    0.043466
    74  H    0.036744
    75  H    0.039343
    76  H    0.047198
    77  H    0.050430
    78  H    0.061528
    79  H    0.052441
    80  H    0.040277
    81  H    0.058209
    82  H    0.058565
    83  H    0.064966
    84  H    0.052787
    85  H    0.043062
    86  H    0.032439
    87  H    0.027515
    88  H    0.060808
    89  H    0.025948
    90  H    0.049322
    91  H    0.028074
    92  H    0.020921
    93  H    0.037511
    94  H    0.045685
    95  H    0.054066
    96  H    0.052815
    97  H    0.062032
    98  H    0.065226
    99  H    0.044036
   100  H    0.051705
   101  H    0.058159
   102  H    0.041503
   103  H    0.058319
   104  H    0.021410
   105  H    0.028109
   106  H    0.057619
   107  H    0.035505
   108  H    0.041638
   109  H    0.001026
   110  H    0.028196
   111  H    0.030754
   112  H    0.023822
   113  H    0.007569
   114  H    0.020931
   115  H    0.021231
   116  H    0.014282
   117  H    0.025939
   118  H    0.012623
   119  H    0.003300
   120  H    0.015931
   121  H    0.026631
   122  H    0.014348
   123  H    0.013939
   124  H    0.017684
   125  H    0.021716
   126  H    0.032682
   127  H    0.050443
   128  H    0.018614
   129  H    0.022109
   130  H    0.024099
   131  H    0.021803
   132  H    0.010487
   133  H    0.023019
   134  H    0.019405
   135  H    0.030737
   136  H    0.028672
   137  H    0.031241
   138  H    0.026603
   139  H    0.024125
   140  H    0.019547
 Sum of Mulliken charges =  -0.00000

 Dipole moment (field-independent basis, Debye):
    X=              5.9127    Y=              5.3184    Z=             -3.6050  Tot=              8.7316
 Quadrupole moment (field-independent basis, Debye-Ang):
   XX=           -374.9485   YY=           -429.8687   ZZ=           -409.9740
   XY=            -28.2094   XZ=              9.1745   YZ=             20.6622

 Normal termination of Gaussian 16 at Fri Apr 29 11:31:34 2022.
