 Gaussian 16, Revision A.03,
 Gaussian 16:  ES64L-G16RevA.03 25-Dec-2016

 --------------------
 #p ZINDO=(nstates=5)
 --------------------

 -----------------------------
 step_251_chromophore_27 ZINDO
 -----------------------------
 Symbolic Z-matrix:
 Charge =  0 Multiplicity = 1

                         Standard orientation:
 ---------------------------------------------------------------------
 Center     Atomic      Atomic             Coordinates (Angstroms)
 Number     Number       Type             X           Y           Z
 ---------------------------------------------------------------------
      1         12           0       -4.430729    1.033631    0.114498
      2          6           0       -3.957373   -2.427306    0.418822
      3          6           0       -1.007552    1.394180    0.036555
      4          6           0       -4.901624    4.290197   -0.139892
      5          6           0       -7.891278    0.483978    0.369800
      6          7           0       -2.741783   -0.399721    0.134288
      7          6           0       -2.740452   -1.786421    0.286199
      8          6           0       -1.343956   -2.448626   -0.037751
      9          6           0       -0.480938   -1.202573    0.009752
     10          6           0       -1.466073    0.037639    0.055891
     11          6           0        0.382225   -1.163591    1.353138
     12          6           0       -1.501074   -2.966274   -1.536209
     13          6           0       -0.884047   -4.393209   -1.878600
     14          6           0        0.352080   -4.624060   -1.047478
     15          8           0        0.478935   -5.569227   -0.203426
     16          8           0        1.305137   -3.696188   -1.394426
     17          7           0       -3.158601    2.578822    0.119256
     18          6           0       -1.828856    2.557377    0.098724
     19          6           0       -1.254611    3.874206    0.015773
     20          6           0       -2.346193    4.733423   -0.219544
     21          6           0       -3.573880    3.873596   -0.025038
     22          6           0        0.191857    4.204174    0.075419
     23          6           0       -2.379973    6.179647   -0.668948
     24          8           0       -3.407461    6.731402   -1.079114
     25          6           0       -1.131158    7.053615   -0.523227
     26          7           0       -6.189764    2.219044    0.166876
     27          6           0       -6.048327    3.570792   -0.041033
     28          6           0       -7.438404    4.181879   -0.204221
     29          6           0       -8.437638    2.925311   -0.160897
     30          6           0       -7.485091    1.783668    0.079195
     31          6           0       -7.648463    5.318400    0.857767
     32          6           0       -9.358700    2.736505   -1.356057
     33          6           0      -10.863996    2.585762   -0.971956
     34          7           0       -5.669266   -0.618901    0.369519
     35          6           0       -7.093518   -0.691094    0.478739
     36          6           0       -7.505718   -2.033743    0.683359
     37          6           0       -6.289481   -2.736935    0.660584
     38          6           0       -5.227869   -1.819249    0.519611
     39          6           0       -8.870833   -2.623988    0.833387
     40          6           0       -5.692654   -4.031742    0.739562
     41          8           0       -6.148602   -5.136754    0.917905
     42          6           0       -4.169518   -3.867586    0.473325
     43          6           0       -3.415900   -4.622101    1.507599
     44          8           0       -3.296091   -4.346758    2.698088
     45          8           0       -2.829834   -5.649760    0.885635
     46          6           0       -1.962300   -6.490896    1.683276
     47          6           0        2.583859   -3.755923   -0.678904
     48          6           0        3.533552   -2.607345   -0.923136
     49          6           0        4.877628   -2.654067   -1.200902
     50          6           0        5.738019   -3.870787   -1.052509
     51          6           0        5.674898   -1.429277   -1.371184
     52          6           0        6.014842   -1.206921   -2.834811
     53          6           0        7.538659   -1.028521   -3.027023
     54          6           0        7.809066    0.318787   -3.702161
     55          6           0        7.577774    0.193313   -5.178162
     56          6           0        9.258139    0.677905   -3.383237
     57          6           0        9.322887    1.759634   -2.250197
     58          6           0       10.594984    1.705617   -1.405488
     59          6           0       10.260257    1.507722    0.095748
     60          6           0        9.649492    0.037339    0.298254
     61          6           0       11.456078    1.839273    1.049608
     62          6           0       10.936842    2.731097    2.240779
     63          6           0       11.232146    2.117020    3.588548
     64          6           0        9.939601    1.477893    4.284258
     65          6           0        9.121119    2.448772    5.258035
     66          6           0       10.303834    0.173103    4.956111
     67          1           0        0.042157    1.639931   -0.136392
     68          1           0       -4.988784    5.377001   -0.215301
     69          1           0       -8.960015    0.260516    0.391034
     70          1           0       -1.262819   -3.283522    0.657599
     71          1           0        0.138963   -1.139760   -0.883982
     72          1           0        0.180222   -2.015858    2.002234
     73          1           0        0.140561   -0.245103    1.887656
     74          1           0        1.413985   -1.144913    1.001935
     75          1           0       -1.047337   -2.302102   -2.271207
     76          1           0       -2.570063   -2.949438   -1.750135
     77          1           0       -0.457233   -4.395071   -2.881628
     78          1           0       -1.658248   -5.157688   -1.948986
     79          1           0        0.469817    4.557130   -0.918622
     80          1           0        0.793026    3.322532    0.293282
     81          1           0        0.430148    4.974684    0.808051
     82          1           0       -1.594343    8.038905   -0.570528
     83          1           0       -0.379105    6.884411   -1.294772
     84          1           0       -0.630700    7.053260    0.444906
     85          1           0       -7.620886    4.694482   -1.148655
     86          1           0       -9.062172    3.016502    0.727872
     87          1           0       -8.083770    6.154221    0.309918
     88          1           0       -6.741289    5.597355    1.393881
     89          1           0       -8.490579    5.095268    1.513927
     90          1           0       -9.092838    1.897909   -1.998855
     91          1           0       -9.335970    3.704663   -1.858306
     92          1           0      -11.009339    2.761165    0.094100
     93          1           0      -11.200043    1.552712   -1.058964
     94          1           0      -11.488215    3.280264   -1.534579
     95          1           0       -9.232752   -2.581456   -0.194266
     96          1           0       -9.391698   -2.016181    1.572907
     97          1           0       -8.842328   -3.674978    1.117521
     98          1           0       -4.022105   -4.417643   -0.457045
     99          1           0       -2.497585   -6.849357    2.562969
    100          1           0       -1.078464   -6.018057    2.112807
    101          1           0       -1.686644   -7.330528    1.044951
    102          1           0        2.984411   -4.708273   -1.025886
    103          1           0        2.378093   -3.869040    0.384717
    104          1           0        3.035024   -1.647403   -1.055191
    105          1           0        5.106447   -4.742597   -1.220608
    106          1           0        6.208657   -3.919952   -0.070616
    107          1           0        6.570590   -3.964193   -1.750300
    108          1           0        6.441099   -1.313620   -0.605081
    109          1           0        5.021193   -0.580780   -1.170675
    110          1           0        5.461043   -0.336197   -3.186206
    111          1           0        5.621343   -2.061286   -3.386719
    112          1           0        7.989448   -1.763400   -3.694598
    113          1           0        8.090479   -1.029497   -2.086990
    114          1           0        7.142479    1.139730   -3.437116
    115          1           0        6.838931    0.908768   -5.540156
    116          1           0        7.094057   -0.726668   -5.507902
    117          1           0        8.521610    0.244215   -5.721535
    118          1           0        9.817900    0.937832   -4.281425
    119          1           0        9.832649   -0.154169   -2.974342
    120          1           0        8.448153    1.656254   -1.608472
    121          1           0        9.268678    2.747067   -2.708735
    122          1           0       11.162116    2.617161   -1.594839
    123          1           0       11.232114    0.888705   -1.742825
    124          1           0        9.436181    2.192670    0.292305
    125          1           0       10.260066   -0.379572    1.098990
    126          1           0        9.916161   -0.524976   -0.596499
    127          1           0        8.587521    0.095013    0.538319
    128          1           0       12.143811    2.416652    0.433194
    129          1           0       11.871321    0.850127    1.244597
    130          1           0        9.870260    2.948548    2.177571
    131          1           0       11.379722    3.722041    2.141783
    132          1           0       11.531930    2.900196    4.284257
    133          1           0       12.014342    1.359149    3.634061
    134          1           0        9.325313    1.147372    3.446546
    135          1           0        8.116814    2.687997    4.908104
    136          1           0        9.718263    3.357012    5.340480
    137          1           0        8.946617    1.973749    6.223090
    138          1           0       11.382326    0.090736    5.092697
    139          1           0        9.914855   -0.646661    4.351558
    140          1           0        9.888071   -0.111500    5.922743
 ---------------------------------------------------------------------

 SCF Done:  E(RZINDO/S) =  -474.539690116     A.U. after   19 cycles

 Excitation energies and oscillator strengths:

 Excited State   1:      Singlet-A      1.2793 eV  969.14 nm  f=0.5763  <S**2>=0.000
     175 ->178         0.15564
     176 ->177         0.66964
 This state for optimization and/or second-order correction.
 Total Energy, E(CIS/TDA) =  -474.492676006
 Copying the excited state density for this state as the 1-particle RhoCI density.

 Excited State   2:      Singlet-A      1.9774 eV  627.00 nm  f=0.0478  <S**2>=0.000
     175 ->177         0.54031
     176 ->178        -0.40891
     176 ->179         0.11989

 Excited State   3:      Singlet-A      2.9561 eV  419.42 nm  f=0.0161  <S**2>=0.000
     167 ->177         0.26127
     167 ->178        -0.23790
     167 ->179        -0.35770
     167 ->181         0.16576
     167 ->186        -0.18322
     168 ->177         0.15726
     168 ->178        -0.13791
     168 ->179        -0.20334
     168 ->186        -0.10376

 Excited State   4:      Singlet-A      2.9708 eV  417.35 nm  f=0.5577  <S**2>=0.000
     171 ->177         0.12583
     171 ->181         0.16011
     175 ->177         0.29627
     176 ->178         0.47973
     176 ->179         0.26783

 Excited State   5:      Singlet-A      3.0116 eV  411.69 nm  f=0.0824  <S**2>=0.000
     171 ->177         0.27206
     171 ->179         0.21747
     171 ->181         0.36669
     171 ->186         0.17153
     171 ->188        -0.15929
     171 ->205        -0.10733
     173 ->177        -0.13228
     173 ->181        -0.11726
     175 ->177        -0.11220
     176 ->178        -0.19019
     176 ->179        -0.15980

 The electronic state is 1-A.
 Alpha  occ. eigenvalues --   -1.85365  -1.83325  -1.79728  -1.73781  -1.73235
 Alpha  occ. eigenvalues --   -1.70125  -1.68458  -1.62015  -1.59590  -1.59265
 Alpha  occ. eigenvalues --   -1.56559  -1.52261  -1.48276  -1.47746  -1.46219
 Alpha  occ. eigenvalues --   -1.43503  -1.43009  -1.41863  -1.39177  -1.38976
 Alpha  occ. eigenvalues --   -1.35929  -1.33911  -1.33488  -1.32008  -1.28626
 Alpha  occ. eigenvalues --   -1.26532  -1.25574  -1.22225  -1.20829  -1.18458
 Alpha  occ. eigenvalues --   -1.17413  -1.16607  -1.16109  -1.15702  -1.14406
 Alpha  occ. eigenvalues --   -1.12164  -1.11542  -1.11117  -1.04634  -1.02940
 Alpha  occ. eigenvalues --   -1.02151  -1.01578  -0.99198  -0.97562  -0.97328
 Alpha  occ. eigenvalues --   -0.96160  -0.95713  -0.94788  -0.93052  -0.92462
 Alpha  occ. eigenvalues --   -0.91012  -0.90810  -0.89283  -0.88944  -0.86735
 Alpha  occ. eigenvalues --   -0.85959  -0.84816  -0.83754  -0.82971  -0.81501
 Alpha  occ. eigenvalues --   -0.80308  -0.79166  -0.77380  -0.76577  -0.76242
 Alpha  occ. eigenvalues --   -0.75893  -0.75228  -0.74956  -0.74177  -0.73589
 Alpha  occ. eigenvalues --   -0.73302  -0.72774  -0.72113  -0.71566  -0.70557
 Alpha  occ. eigenvalues --   -0.70403  -0.69972  -0.69353  -0.68824  -0.67607
 Alpha  occ. eigenvalues --   -0.67588  -0.66893  -0.66749  -0.66272  -0.65995
 Alpha  occ. eigenvalues --   -0.65363  -0.65002  -0.64499  -0.63959  -0.63386
 Alpha  occ. eigenvalues --   -0.63121  -0.62742  -0.62584  -0.62232  -0.61754
 Alpha  occ. eigenvalues --   -0.61378  -0.60948  -0.60498  -0.60159  -0.60035
 Alpha  occ. eigenvalues --   -0.59754  -0.59184  -0.59012  -0.58676  -0.58544
 Alpha  occ. eigenvalues --   -0.58317  -0.58172  -0.57768  -0.56812  -0.56666
 Alpha  occ. eigenvalues --   -0.56571  -0.56353  -0.55637  -0.55259  -0.54826
 Alpha  occ. eigenvalues --   -0.54565  -0.54011  -0.53477  -0.53112  -0.52900
 Alpha  occ. eigenvalues --   -0.52639  -0.52311  -0.52023  -0.51784  -0.51597
 Alpha  occ. eigenvalues --   -0.51365  -0.50953  -0.50906  -0.50035  -0.49845
 Alpha  occ. eigenvalues --   -0.49740  -0.49514  -0.49276  -0.48846  -0.48823
 Alpha  occ. eigenvalues --   -0.48654  -0.48559  -0.48113  -0.47787  -0.47522
 Alpha  occ. eigenvalues --   -0.47430  -0.47414  -0.47001  -0.46837  -0.46676
 Alpha  occ. eigenvalues --   -0.46233  -0.46027  -0.45892  -0.45383  -0.45294
 Alpha  occ. eigenvalues --   -0.44937  -0.44833  -0.44403  -0.44270  -0.44140
 Alpha  occ. eigenvalues --   -0.43852  -0.43748  -0.42514  -0.42412  -0.42056
 Alpha  occ. eigenvalues --   -0.41955  -0.41039  -0.40245  -0.38941  -0.38851
 Alpha  occ. eigenvalues --   -0.37238  -0.36825  -0.36368  -0.34543  -0.34251
 Alpha  occ. eigenvalues --   -0.33115  -0.32687  -0.32331  -0.31528  -0.26744
 Alpha  occ. eigenvalues --   -0.21664
 Alpha virt. eigenvalues --   -0.08322  -0.01867  -0.00631   0.00963   0.01917
 Alpha virt. eigenvalues --    0.03080   0.03329   0.03450   0.03979   0.04948
 Alpha virt. eigenvalues --    0.06252   0.06839   0.07034   0.07758   0.08190

 Mulliken charges:
               1
     1  Mg   0.421926
     2  C   -0.027070
     3  C   -0.114707
     4  C   -0.058611
     5  C   -0.055132
     6  N   -0.289763
     7  C    0.084001
     8  C    0.005230
     9  C    0.010708
    10  C    0.163306
    11  C   -0.056339
    12  C   -0.030424
    13  C    0.001567
    14  C    0.477606
    15  O   -0.542131
    16  O   -0.271013
    17  N   -0.307706
    18  C    0.149164
    19  C    0.027726
    20  C   -0.046872
    21  C    0.136855
    22  C   -0.037351
    23  C    0.330990
    24  O   -0.513604
    25  C   -0.038166
    26  N   -0.275902
    27  C    0.161260
    28  C   -0.005366
    29  C    0.002619
    30  C    0.093054
    31  C   -0.056770
    32  C   -0.027813
    33  C   -0.063987
    34  N   -0.313919
    35  C    0.045325
    36  C    0.029472
    37  C   -0.079775
    38  C    0.128114
    39  C   -0.037902
    40  C    0.328487
    41  O   -0.537630
    42  C    0.051343
    43  C    0.496133
    44  O   -0.538002
    45  O   -0.257307
    46  C    0.075098
    47  C    0.105798
    48  C   -0.103302
    49  C    0.014111
    50  C   -0.042169
    51  C   -0.019727
    52  C   -0.024953
    53  C   -0.030460
    54  C   -0.008492
    55  C   -0.059283
    56  C   -0.040056
    57  C   -0.040181
    58  C   -0.034209
    59  C   -0.029088
    60  C   -0.069281
    61  C   -0.039832
    62  C   -0.026182
    63  C   -0.034158
    64  C   -0.018423
    65  C   -0.058960
    66  C   -0.058593
    67  H    0.032141
    68  H    0.046511
    69  H    0.022297
    70  H    0.063201
    71  H    0.035145
    72  H    0.036379
    73  H    0.026018
    74  H    0.020464
    75  H    0.024398
    76  H    0.028438
    77  H    0.032134
    78  H    0.050175
    79  H    0.031942
    80  H    0.026732
    81  H    0.034773
    82  H    0.036881
    83  H    0.043874
    84  H    0.032300
    85  H    0.034186
    86  H    0.031486
    87  H    0.015378
    88  H    0.036803
    89  H    0.019890
    90  H    0.033335
    91  H    0.017882
    92  H    0.015978
    93  H    0.018637
    94  H    0.023389
    95  H    0.034213
    96  H    0.033504
    97  H    0.037131
    98  H    0.052687
    99  H    0.040130
   100  H    0.047249
   101  H    0.033789
   102  H    0.042963
   103  H    0.052751
   104  H    0.026373
   105  H    0.019400
   106  H    0.032973
   107  H    0.023246
   108  H    0.033890
   109  H    0.000848
   110  H    0.023471
   111  H    0.021648
   112  H    0.024104
   113  H    0.020424
   114  H    0.025480
   115  H    0.011614
   116  H    0.009421
   117  H    0.020829
   118  H    0.019163
   119  H    0.015735
   120  H    0.020182
   121  H    0.013719
   122  H    0.012097
   123  H    0.016877
   124  H    0.015234
   125  H    0.019061
   126  H    0.025458
   127  H    0.029331
   128  H    0.018935
   129  H    0.033454
   130  H    0.023973
   131  H    0.014521
   132  H    0.011676
   133  H    0.027293
   134  H    0.016906
   135  H    0.019113
   136  H    0.023446
   137  H    0.022952
   138  H    0.016954
   139  H    0.010166
   140  H    0.015567
 Sum of Mulliken charges =  -0.00000

 Dipole moment (field-independent basis, Debye):
    X=              8.4409    Y=              7.9173    Z=             -5.3863  Tot=             12.7650
 N-N= 4.444730651523D+03 E-N= 0.000000000000D+00  KE=-9.563756896249D+03
 Leave Link  601 at Fri Apr 29 11:44:17 2022, MaxMem=  6710886400 cpu:               0.8 elap:               0.0
 (Enter /sw/apps/gaussian-16.0/g16/l9999.exe)
 1\1\GINC-BP1-COMPUTE103\SP\RZINDO CIS\STO-3G\C55H74Mg1N4O6\OF15641\29-
 Apr-2022\0\\#p ZINDO=(nstates=5)\\step_251_chromophore_27 ZINDO\\0,1\M
 g,0,-5.361,24.76,27.025\C,0,-3.642,26.638,29.436\C,0,-6.4,22.659,29.54
 7\C,0,-6.945,22.991,24.733\C,0,-4.075,26.918,24.569\N,0,-5.093,24.762,
 29.224\C,0,-4.334,25.604,30.037\C,0,-4.642,25.43,31.576\C,0,-5.37,24.1
 01,31.517\C,0,-5.66,23.803,29.988\C,0,-4.437,22.921,32.054\C,0,-5.658,
 26.613,31.902\C,0,-5.451,27.388,33.277\C,0,-4.924,26.437,34.321\O,0,-3

 Normal termination of Gaussian 16 at Fri Apr 29 11:44:17 2022.
