 Gaussian 16, Revision A.03,
 Gaussian 16:  ES64L-G16RevA.03 25-Dec-2016

 ------------------------------
 #p blyp/Def2SVP td=(nstates=5)
 ------------------------------

 --------------------------------------------------
 step_801_chromophore_22 TDDFT with blyp functional
 --------------------------------------------------
 Symbolic Z-matrix:
 Charge =  0 Multiplicity = 1

                         Standard orientation:
 ---------------------------------------------------------------------
 Center     Atomic      Atomic             Coordinates (Angstroms)
 Number     Number       Type             X           Y           Z
 ---------------------------------------------------------------------
      1         12           0       -6.199180    0.499165    0.135744
      2          6           0       -3.921188   -2.083255    0.523347
      3          6           0       -4.086282    2.620863    1.639273
      4          6           0       -8.563881    2.959675   -0.474628
      5          6           0       -8.585936   -1.916362   -0.757096
      6          7           0       -4.181922    0.281105    0.963415
      7          6           0       -3.393985   -0.866219    1.002248
      8          6           0       -2.048750   -0.492634    1.603186
      9          6           0       -2.384885    0.849272    2.407124
     10          6           0       -3.663237    1.307167    1.662374
     11          6           0       -2.573227    0.545356    3.994092
     12          6           0       -0.831968   -0.263773    0.567520
     13          6           0        0.606946   -0.547050    1.148073
     14          6           0        1.610415   -1.370814    0.427945
     15          8           0        1.571318   -1.706194   -0.751213
     16          8           0        2.736596   -1.567274    1.224161
     17          7           0       -6.291816    2.425272    0.522674
     18          6           0       -5.283314    3.184748    1.104740
     19          6           0       -5.550083    4.594903    0.994352
     20          6           0       -6.872281    4.671485    0.454719
     21          6           0       -7.335104    3.314321    0.172438
     22          6           0       -4.619910    5.651306    1.611404
     23          6           0       -7.739439    5.874137    0.282520
     24          8           0       -8.913290    5.819418   -0.142789
     25          6           0       -7.193759    7.221200    0.530572
     26          7           0       -8.372145    0.506091   -0.402715
     27          6           0       -8.957952    1.687548   -0.768873
     28          6           0      -10.001900    1.348673   -1.827433
     29          6           0      -10.278852   -0.182156   -1.685768
     30          6           0       -9.044989   -0.588929   -0.881116
     31          6           0      -11.336306    2.145862   -1.635675
     32          6           0      -10.359220   -0.955251   -2.984390
     33          6           0      -11.502725   -1.960752   -3.198219
     34          7           0       -6.306628   -1.554588    0.008070
     35          6           0       -7.309793   -2.362790   -0.382710
     36          6           0       -6.802100   -3.660175   -0.521639
     37          6           0       -5.432643   -3.628002   -0.174008
     38          6           0       -5.207859   -2.282366    0.083738
     39          6           0       -7.495353   -4.858378   -0.970993
     40          6           0       -4.194571   -4.454558    0.082507
     41          8           0       -4.004158   -5.615348   -0.101120
     42          6           0       -3.167501   -3.431121    0.494543
     43          6           0       -2.144706   -3.558837   -0.497807
     44          8           0       -2.047088   -3.017912   -1.544622
     45          8           0       -1.228165   -4.488877   -0.123555
     46          6           0       -0.256710   -4.894443   -1.161809
     47          6           0        3.887148   -2.236126    0.556888
     48          6           0        5.050779   -1.413078    1.147411
     49          6           0        6.395296   -1.411754    0.756128
     50          6           0        6.984901   -2.312617   -0.287208
     51          6           0        7.327485   -0.349673    1.433152
     52          6           0        8.005657   -0.963511    2.704708
     53          6           0        9.435929   -0.381238    2.780582
     54          6           0       10.482060   -1.409493    2.187412
     55          6           0       10.920806   -2.395821    3.246233
     56          6           0       11.732378   -0.565578    1.653515
     57          6           0       11.683474   -0.170127    0.196019
     58          6           0       11.624405    1.398129    0.079102
     59          6           0       11.679441    1.933261   -1.379321
     60          6           0       10.258508    2.201500   -1.896894
     61          6           0       12.612548    3.148394   -1.544698
     62          6           0       13.612443    2.870949   -2.584932
     63          6           0       14.973821    2.578029   -2.009696
     64          6           0       15.751996    1.508026   -2.797398
     65          6           0       15.325550    0.125000   -2.270400
     66          6           0       17.195380    1.884742   -2.853640
     67          1           0       -3.313003    3.262084    2.067566
     68          1           0       -9.013998    3.688856   -1.151592
     69          1           0       -9.239436   -2.657138   -1.222078
     70          1           0       -1.750322   -1.282450    2.292942
     71          1           0       -1.601842    1.597738    2.290157
     72          1           0       -1.812110    1.104246    4.537287
     73          1           0       -2.410558   -0.493244    4.281185
     74          1           0       -3.573170    0.838230    4.315104
     75          1           0       -0.959142    0.797399    0.352881
     76          1           0       -1.035015   -0.759623   -0.381553
     77          1           0        0.497636   -0.976308    2.144641
     78          1           0        1.048160    0.413412    1.415829
     79          1           0       -3.608949    5.308446    1.830115
     80          1           0       -5.071828    6.040911    2.523529
     81          1           0       -4.365873    6.423524    0.885759
     82          1           0       -6.383932    7.277762   -0.196485
     83          1           0       -6.975770    7.083544    1.589157
     84          1           0       -8.014449    7.895647    0.286060
     85          1           0       -9.658607    1.597469   -2.831476
     86          1           0      -11.027260   -0.549235   -0.982585
     87          1           0      -11.339019    2.849409   -0.803226
     88          1           0      -12.168919    1.527360   -1.298806
     89          1           0      -11.530936    2.750824   -2.521301
     90          1           0       -9.431597   -1.454845   -3.264092
     91          1           0      -10.419830   -0.204537   -3.772368
     92          1           0      -11.989164   -1.762651   -4.152901
     93          1           0      -12.337016   -1.783779   -2.518959
     94          1           0      -11.127754   -2.982222   -3.121980
     95          1           0       -8.001916   -4.701861   -1.923730
     96          1           0       -8.218881   -5.218129   -0.239344
     97          1           0       -6.822927   -5.680211   -1.220194
     98          1           0       -2.843047   -3.644994    1.513109
     99          1           0       -0.876905   -5.093150   -2.035576
    100          1           0        0.172570   -5.803692   -0.741957
    101          1           0        0.457182   -4.079961   -1.278965
    102          1           0        3.893824   -2.174207   -0.531079
    103          1           0        3.999541   -3.264210    0.901302
    104          1           0        4.813021   -0.712463    1.947440
    105          1           0        6.243656   -2.836082   -0.891035
    106          1           0        7.403629   -3.067468    0.378901
    107          1           0        7.839187   -1.923700   -0.841414
    108          1           0        6.969650    0.577698    1.879531
    109          1           0        8.078719   -0.050511    0.703039
    110          1           0        7.946288   -2.052376    2.704706
    111          1           0        7.438705   -0.723159    3.603751
    112          1           0        9.595265   -0.231668    3.848213
    113          1           0        9.482045    0.532114    2.186832
    114          1           0       10.125450   -2.009460    1.350905
    115          1           0       10.126757   -2.442106    3.991246
    116          1           0       11.767237   -2.038216    3.833461
    117          1           0       11.181594   -3.356796    2.802230
    118          1           0       12.636232   -1.148689    1.829024
    119          1           0       11.974266    0.287940    2.287475
    120          1           0       11.069891   -0.750913   -0.492363
    121          1           0       12.654319   -0.538256   -0.135766
    122          1           0       12.531302    1.800899    0.531145
    123          1           0       10.724414    1.723138    0.599923
    124          1           0       11.940999    1.102093   -2.033863
    125          1           0        9.597340    1.572073   -1.299484
    126          1           0       10.204617    2.054285   -2.975330
    127          1           0        9.987778    3.226077   -1.641629
    128          1           0       13.128052    3.455096   -0.633897
    129          1           0       12.046092    4.062913   -1.723210
    130          1           0       13.544871    3.771355   -3.194726
    131          1           0       13.178828    2.211496   -3.337316
    132          1           0       14.871121    2.167079   -1.005246
    133          1           0       15.538052    3.505422   -1.909756
    134          1           0       15.424480    1.596612   -3.833730
    135          1           0       15.990874   -0.188261   -1.465702
    136          1           0       15.380924   -0.556459   -3.120167
    137          1           0       14.316689    0.299291   -1.895224
    138          1           0       17.623598    1.929259   -1.852003
    139          1           0       17.231346    2.813315   -3.422344
    140          1           0       17.681269    1.116385   -3.455008
 ---------------------------------------------------------------------

 SCF Done:  E(RB-LYP) =  -3007.34722541     A.U. after   21 cycles

 Excitation energies and oscillator strengths:

 Excited State   1:      Singlet-A      1.5880 eV  780.78 nm  f=0.0073  <S**2>=0.000
     244 -> 247        0.43953
     245 -> 247        0.53030
     246 -> 247        0.15502
 This state for optimization and/or second-order correction.
 Total Energy, E(TD-HF/TD-DFT) =  -3007.28886913
 Copying the excited state density for this state as the 1-particle RhoCI density.

 Excited State   2:      Singlet-A      1.7987 eV  689.28 nm  f=0.2778  <S**2>=0.000
     244 -> 248        0.10393
     245 -> 247       -0.13504
     245 -> 248       -0.16654
     246 -> 247        0.67217
     246 <- 247       -0.14610

 Excited State   3:      Singlet-A      1.9782 eV  626.74 nm  f=0.0002  <S**2>=0.000
     243 -> 247        0.70694

 Excited State   4:      Singlet-A      2.0652 eV  600.34 nm  f=0.0767  <S**2>=0.000
     242 -> 247       -0.19350
     244 -> 247        0.49731
     245 -> 247       -0.38401
     246 -> 248       -0.23446

 Excited State   5:      Singlet-A      2.2022 eV  563.01 nm  f=0.0113  <S**2>=0.000
     242 -> 247        0.67762
     244 -> 247        0.12386
     245 -> 247       -0.10814
     246 -> 248       -0.10666

 The electronic state is 1-A.
 Alpha  occ. eigenvalues --  -46.26023 -18.82126 -18.79707 -18.77240 -18.76612
 Alpha  occ. eigenvalues --  -18.75494 -18.74412 -14.02979 -14.02135 -14.01221
 Alpha  occ. eigenvalues --  -14.00348 -10.04599 -10.02340 -10.00344  -9.98703
 Alpha  occ. eigenvalues --   -9.98374  -9.96742  -9.96168  -9.96145  -9.96145
 Alpha  occ. eigenvalues --   -9.96069  -9.95657  -9.95403  -9.94880  -9.94795
 Alpha  occ. eigenvalues --   -9.94625  -9.94405  -9.93938  -9.93770  -9.93684
 Alpha  occ. eigenvalues --   -9.93655  -9.93605  -9.93544  -9.93490  -9.93455
 Alpha  occ. eigenvalues --   -9.93377  -9.93017  -9.92844  -9.92816  -9.92532
 Alpha  occ. eigenvalues --   -9.92515  -9.92486  -9.92280  -9.92207  -9.92165
 Alpha  occ. eigenvalues --   -9.91853  -9.91781  -9.91598  -9.91550  -9.91463
 Alpha  occ. eigenvalues --   -9.91408  -9.91403  -9.91256  -9.91216  -9.91178
 Alpha  occ. eigenvalues --   -9.91169  -9.91031  -9.90962  -9.90821  -9.90743
 Alpha  occ. eigenvalues --   -9.90704  -9.90636  -9.90599  -9.90595  -9.90256
 Alpha  occ. eigenvalues --   -9.90224  -2.90837  -1.71262  -1.70707  -1.70566
 Alpha  occ. eigenvalues --   -0.98014  -0.97284  -0.93779  -0.89645  -0.89578
 Alpha  occ. eigenvalues --   -0.89214  -0.87771  -0.85560  -0.85100  -0.83810
 Alpha  occ. eigenvalues --   -0.76483  -0.73929  -0.73097  -0.72508  -0.72149
 Alpha  occ. eigenvalues --   -0.71783  -0.71456  -0.71038  -0.70592  -0.70349
 Alpha  occ. eigenvalues --   -0.70024  -0.69054  -0.68338  -0.68002  -0.67086
 Alpha  occ. eigenvalues --   -0.66673  -0.66073  -0.65481  -0.65119  -0.64743
 Alpha  occ. eigenvalues --   -0.64457  -0.62584  -0.62314  -0.61752  -0.60885
 Alpha  occ. eigenvalues --   -0.60654  -0.60126  -0.59756  -0.59191  -0.58856
 Alpha  occ. eigenvalues --   -0.58119  -0.57244  -0.56761  -0.55544  -0.54441
 Alpha  occ. eigenvalues --   -0.54030  -0.53812  -0.52617  -0.52316  -0.51663
 Alpha  occ. eigenvalues --   -0.51312  -0.50931  -0.50585  -0.50452  -0.50097
 Alpha  occ. eigenvalues --   -0.49515  -0.49309  -0.48440  -0.47358  -0.46568
 Alpha  occ. eigenvalues --   -0.46488  -0.45862  -0.45766  -0.45439  -0.45056
 Alpha  occ. eigenvalues --   -0.43966  -0.43673  -0.43047  -0.42605  -0.42299
 Alpha  occ. eigenvalues --   -0.41338  -0.41263  -0.41095  -0.41041  -0.40994
 Alpha  occ. eigenvalues --   -0.40884  -0.40643  -0.40311  -0.39979  -0.39909
 Alpha  occ. eigenvalues --   -0.39762  -0.39644  -0.39480  -0.39402  -0.39163
 Alpha  occ. eigenvalues --   -0.39005  -0.38857  -0.38817  -0.38354  -0.38196
 Alpha  occ. eigenvalues --   -0.38165  -0.37843  -0.37709  -0.37619  -0.37489
 Alpha  occ. eigenvalues --   -0.37269  -0.36996  -0.36842  -0.36757  -0.36493
 Alpha  occ. eigenvalues --   -0.36328  -0.36216  -0.36012  -0.35890  -0.35640
 Alpha  occ. eigenvalues --   -0.35386  -0.34977  -0.34967  -0.34608  -0.34563
 Alpha  occ. eigenvalues --   -0.34352  -0.34277  -0.34157  -0.33965  -0.33739
 Alpha  occ. eigenvalues --   -0.33558  -0.33467  -0.33361  -0.33357  -0.33140
 Alpha  occ. eigenvalues --   -0.32932  -0.32765  -0.32453  -0.32275  -0.32228
 Alpha  occ. eigenvalues --   -0.31948  -0.31812  -0.31786  -0.31749  -0.31611
 Alpha  occ. eigenvalues --   -0.31261  -0.31252  -0.31051  -0.30882  -0.30829
 Alpha  occ. eigenvalues --   -0.30714  -0.30629  -0.30134  -0.29856  -0.29649
 Alpha  occ. eigenvalues --   -0.29455  -0.29375  -0.29116  -0.29018  -0.28841
 Alpha  occ. eigenvalues --   -0.28587  -0.28493  -0.28466  -0.28285  -0.27947
 Alpha  occ. eigenvalues --   -0.27467  -0.27170  -0.27062  -0.26701  -0.26589
 Alpha  occ. eigenvalues --   -0.26266  -0.26018  -0.25495  -0.25154  -0.24991
 Alpha  occ. eigenvalues --   -0.24511  -0.23919  -0.23821  -0.23506  -0.23235
 Alpha  occ. eigenvalues --   -0.22470  -0.22293  -0.22069  -0.21186  -0.20769
 Alpha  occ. eigenvalues --   -0.20448  -0.19562  -0.18893  -0.17780  -0.17017
 Alpha  occ. eigenvalues --   -0.15873
 Alpha virt. eigenvalues --   -0.11623  -0.06720  -0.06033  -0.04347  -0.03438
 Alpha virt. eigenvalues --   -0.01921  -0.01730  -0.01264  -0.00642   0.00570
 Alpha virt. eigenvalues --    0.01369   0.01669   0.01835   0.02554   0.02676

 Mulliken charges:
               1
     1  Mg   0.695185
     2  C   -0.066481
     3  C   -0.064494
     4  C   -0.027892
     5  C   -0.073668
     6  N   -0.226997
     7  C   -0.056036
     8  C   -0.005615
     9  C   -0.026167
    10  C    0.032970
    11  C    0.112220
    12  C    0.135483
    13  C    0.106068
    14  C    0.118404
    15  O   -0.185425
    16  O   -0.298067
    17  N   -0.358537
    18  C    0.180883
    19  C   -0.143392
    20  C    0.036423
    21  C    0.107710
    22  C    0.169758
    23  C   -0.134558
    24  O   -0.198780
    25  C    0.180540
    26  N   -0.203126
    27  C    0.034720
    28  C   -0.001359
    29  C    0.094989
    30  C   -0.047638
    31  C    0.114222
    32  C    0.075887
    33  C    0.068971
    34  N   -0.216462
    35  C    0.136838
    36  C   -0.193937
    37  C    0.029307
    38  C    0.150697
    39  C    0.176838
    40  C   -0.070489
    41  O   -0.078228
    42  C    0.123888
    43  C    0.079072
    44  O   -0.151030
    45  O   -0.283948
    46  C    0.219005
    47  C    0.321611
    48  C   -0.140506
    49  C   -0.148364
    50  C    0.164720
    51  C    0.102777
    52  C    0.043592
    53  C    0.107174
    54  C   -0.065726
    55  C    0.124658
    56  C    0.099260
    57  C    0.073237
    58  C    0.088508
    59  C   -0.079232
    60  C    0.108721
    61  C    0.114040
    62  C    0.094085
    63  C    0.118685
    64  C   -0.120755
    65  C    0.118219
    66  C    0.127860
    67  H   -0.069553
    68  H   -0.012671
    69  H   -0.070325
    70  H   -0.037765
    71  H   -0.028557
    72  H   -0.006639
    73  H   -0.003360
    74  H    0.002195
    75  H   -0.029203
    76  H    0.015457
    77  H   -0.006296
    78  H    0.009575
    79  H   -0.021680
    80  H    0.020942
    81  H   -0.007525
    82  H    0.013961
    83  H    0.006939
    84  H   -0.004725
    85  H   -0.007511
    86  H   -0.013776
    87  H   -0.005805
    88  H   -0.020900
    89  H   -0.009358
    90  H   -0.019395
    91  H   -0.037859
    92  H   -0.014382
    93  H   -0.016149
    94  H    0.007968
    95  H   -0.014224
    96  H   -0.001399
    97  H   -0.004897
    98  H    0.003312
    99  H    0.016632
   100  H    0.008688
   101  H    0.029177
   102  H    0.028352
   103  H    0.008647
   104  H   -0.029039
   105  H   -0.009188
   106  H   -0.003546
   107  H    0.001097
   108  H   -0.017988
   109  H   -0.017187
   110  H   -0.024694
   111  H   -0.036652
   112  H   -0.034688
   113  H   -0.020183
   114  H   -0.043279
   115  H   -0.028183
   116  H   -0.022386
   117  H   -0.012780
   118  H   -0.055506
   119  H   -0.042826
   120  H   -0.033881
   121  H   -0.045432
   122  H   -0.031040
   123  H   -0.026385
   124  H   -0.028318
   125  H   -0.019367
   126  H   -0.012511
   127  H   -0.025491
   128  H   -0.046728
   129  H   -0.055441
   130  H   -0.056786
   131  H   -0.042991
   132  H   -0.039165
   133  H   -0.040925
   134  H   -0.044221
   135  H   -0.016085
   136  H   -0.014055
   137  H    0.003818
   138  H   -0.014300
   139  H   -0.012430
   140  H   -0.029448
 Sum of Mulliken charges =  -0.00000

 Dipole moment (field-independent basis, Debye):
    X=              3.7739    Y=              1.5510    Z=              1.5235  Tot=              4.3553
 Quadrupole moment (field-independent basis, Debye-Ang):
   XX=           -390.6837   YY=           -421.5815   ZZ=           -396.9568
   XY=             11.4425   XZ=              9.1309   YZ=              3.7974

 Normal termination of Gaussian 16 at Thu May  5 11:01:45 2022.
