 Gaussian 16, Revision A.03,
 Gaussian 16:  ES64L-G16RevA.03 25-Dec-2016

 -----------------------------------
 #p cam-b3lyp/Def2SVP td=(nstates=5)
 -----------------------------------

 -------------------------------------------------------
 step_801_chromophore_22 TDDFT with cam-b3lyp functional
 -------------------------------------------------------
 Symbolic Z-matrix:
 Charge =  0 Multiplicity = 1

                         Standard orientation:
 ---------------------------------------------------------------------
 Center     Atomic      Atomic             Coordinates (Angstroms)
 Number     Number       Type             X           Y           Z
 ---------------------------------------------------------------------
      1         12           0       -6.199180    0.499165    0.135744
      2          6           0       -3.921188   -2.083255    0.523347
      3          6           0       -4.086282    2.620863    1.639273
      4          6           0       -8.563881    2.959675   -0.474628
      5          6           0       -8.585936   -1.916362   -0.757096
      6          7           0       -4.181922    0.281105    0.963415
      7          6           0       -3.393985   -0.866219    1.002248
      8          6           0       -2.048750   -0.492634    1.603186
      9          6           0       -2.384885    0.849272    2.407124
     10          6           0       -3.663237    1.307167    1.662374
     11          6           0       -2.573227    0.545356    3.994092
     12          6           0       -0.831968   -0.263773    0.567520
     13          6           0        0.606946   -0.547050    1.148073
     14          6           0        1.610415   -1.370814    0.427945
     15          8           0        1.571318   -1.706194   -0.751213
     16          8           0        2.736596   -1.567274    1.224161
     17          7           0       -6.291816    2.425272    0.522674
     18          6           0       -5.283314    3.184748    1.104740
     19          6           0       -5.550083    4.594903    0.994352
     20          6           0       -6.872281    4.671485    0.454719
     21          6           0       -7.335104    3.314321    0.172438
     22          6           0       -4.619910    5.651306    1.611404
     23          6           0       -7.739439    5.874137    0.282520
     24          8           0       -8.913290    5.819418   -0.142789
     25          6           0       -7.193759    7.221200    0.530572
     26          7           0       -8.372145    0.506091   -0.402715
     27          6           0       -8.957952    1.687548   -0.768873
     28          6           0      -10.001900    1.348673   -1.827433
     29          6           0      -10.278852   -0.182156   -1.685768
     30          6           0       -9.044989   -0.588929   -0.881116
     31          6           0      -11.336306    2.145862   -1.635675
     32          6           0      -10.359220   -0.955251   -2.984390
     33          6           0      -11.502725   -1.960752   -3.198219
     34          7           0       -6.306628   -1.554588    0.008070
     35          6           0       -7.309793   -2.362790   -0.382710
     36          6           0       -6.802100   -3.660175   -0.521639
     37          6           0       -5.432643   -3.628002   -0.174008
     38          6           0       -5.207859   -2.282366    0.083738
     39          6           0       -7.495353   -4.858378   -0.970993
     40          6           0       -4.194571   -4.454558    0.082507
     41          8           0       -4.004158   -5.615348   -0.101120
     42          6           0       -3.167501   -3.431121    0.494543
     43          6           0       -2.144706   -3.558837   -0.497807
     44          8           0       -2.047088   -3.017912   -1.544622
     45          8           0       -1.228165   -4.488877   -0.123555
     46          6           0       -0.256710   -4.894443   -1.161809
     47          6           0        3.887148   -2.236126    0.556888
     48          6           0        5.050779   -1.413078    1.147411
     49          6           0        6.395296   -1.411754    0.756128
     50          6           0        6.984901   -2.312617   -0.287208
     51          6           0        7.327485   -0.349673    1.433152
     52          6           0        8.005657   -0.963511    2.704708
     53          6           0        9.435929   -0.381238    2.780582
     54          6           0       10.482060   -1.409493    2.187412
     55          6           0       10.920806   -2.395821    3.246233
     56          6           0       11.732378   -0.565578    1.653515
     57          6           0       11.683474   -0.170127    0.196019
     58          6           0       11.624405    1.398129    0.079102
     59          6           0       11.679441    1.933261   -1.379321
     60          6           0       10.258508    2.201500   -1.896894
     61          6           0       12.612548    3.148394   -1.544698
     62          6           0       13.612443    2.870949   -2.584932
     63          6           0       14.973821    2.578029   -2.009696
     64          6           0       15.751996    1.508026   -2.797398
     65          6           0       15.325550    0.125000   -2.270400
     66          6           0       17.195380    1.884742   -2.853640
     67          1           0       -3.313003    3.262084    2.067566
     68          1           0       -9.013998    3.688856   -1.151592
     69          1           0       -9.239436   -2.657138   -1.222078
     70          1           0       -1.750322   -1.282450    2.292942
     71          1           0       -1.601842    1.597738    2.290157
     72          1           0       -1.812110    1.104246    4.537287
     73          1           0       -2.410558   -0.493244    4.281185
     74          1           0       -3.573170    0.838230    4.315104
     75          1           0       -0.959142    0.797399    0.352881
     76          1           0       -1.035015   -0.759623   -0.381553
     77          1           0        0.497636   -0.976308    2.144641
     78          1           0        1.048160    0.413412    1.415829
     79          1           0       -3.608949    5.308446    1.830115
     80          1           0       -5.071828    6.040911    2.523529
     81          1           0       -4.365873    6.423524    0.885759
     82          1           0       -6.383932    7.277762   -0.196485
     83          1           0       -6.975770    7.083544    1.589157
     84          1           0       -8.014449    7.895647    0.286060
     85          1           0       -9.658607    1.597469   -2.831476
     86          1           0      -11.027260   -0.549235   -0.982585
     87          1           0      -11.339019    2.849409   -0.803226
     88          1           0      -12.168919    1.527360   -1.298806
     89          1           0      -11.530936    2.750824   -2.521301
     90          1           0       -9.431597   -1.454845   -3.264092
     91          1           0      -10.419830   -0.204537   -3.772368
     92          1           0      -11.989164   -1.762651   -4.152901
     93          1           0      -12.337016   -1.783779   -2.518959
     94          1           0      -11.127754   -2.982222   -3.121980
     95          1           0       -8.001916   -4.701861   -1.923730
     96          1           0       -8.218881   -5.218129   -0.239344
     97          1           0       -6.822927   -5.680211   -1.220194
     98          1           0       -2.843047   -3.644994    1.513109
     99          1           0       -0.876905   -5.093150   -2.035576
    100          1           0        0.172570   -5.803692   -0.741957
    101          1           0        0.457182   -4.079961   -1.278965
    102          1           0        3.893824   -2.174207   -0.531079
    103          1           0        3.999541   -3.264210    0.901302
    104          1           0        4.813021   -0.712463    1.947440
    105          1           0        6.243656   -2.836082   -0.891035
    106          1           0        7.403629   -3.067468    0.378901
    107          1           0        7.839187   -1.923700   -0.841414
    108          1           0        6.969650    0.577698    1.879531
    109          1           0        8.078719   -0.050511    0.703039
    110          1           0        7.946288   -2.052376    2.704706
    111          1           0        7.438705   -0.723159    3.603751
    112          1           0        9.595265   -0.231668    3.848213
    113          1           0        9.482045    0.532114    2.186832
    114          1           0       10.125450   -2.009460    1.350905
    115          1           0       10.126757   -2.442106    3.991246
    116          1           0       11.767237   -2.038216    3.833461
    117          1           0       11.181594   -3.356796    2.802230
    118          1           0       12.636232   -1.148689    1.829024
    119          1           0       11.974266    0.287940    2.287475
    120          1           0       11.069891   -0.750913   -0.492363
    121          1           0       12.654319   -0.538256   -0.135766
    122          1           0       12.531302    1.800899    0.531145
    123          1           0       10.724414    1.723138    0.599923
    124          1           0       11.940999    1.102093   -2.033863
    125          1           0        9.597340    1.572073   -1.299484
    126          1           0       10.204617    2.054285   -2.975330
    127          1           0        9.987778    3.226077   -1.641629
    128          1           0       13.128052    3.455096   -0.633897
    129          1           0       12.046092    4.062913   -1.723210
    130          1           0       13.544871    3.771355   -3.194726
    131          1           0       13.178828    2.211496   -3.337316
    132          1           0       14.871121    2.167079   -1.005246
    133          1           0       15.538052    3.505422   -1.909756
    134          1           0       15.424480    1.596612   -3.833730
    135          1           0       15.990874   -0.188261   -1.465702
    136          1           0       15.380924   -0.556459   -3.120167
    137          1           0       14.316689    0.299291   -1.895224
    138          1           0       17.623598    1.929259   -1.852003
    139          1           0       17.231346    2.813315   -3.422344
    140          1           0       17.681269    1.116385   -3.455008
 ---------------------------------------------------------------------

 SCF Done:  E(RCAM-B3LYP) =  -3007.15252583     A.U. after   19 cycles

 Excitation energies and oscillator strengths:

 Excited State   1:      Singlet-A      1.6833 eV  736.57 nm  f=0.3533  <S**2>=0.000
     245 -> 248       -0.18240
     246 -> 247        0.68543
     245 <- 248       -0.11098
 This state for optimization and/or second-order correction.
 Total Energy, E(TD-HF/TD-DFT) =  -3007.09066667
 Copying the excited state density for this state as the 1-particle RhoCI density.

 Excited State   2:      Singlet-A      2.2313 eV  555.67 nm  f=0.1441  <S**2>=0.000
     245 -> 247        0.64520
     246 -> 248        0.27965

 Excited State   3:      Singlet-A      3.3590 eV  369.11 nm  f=0.0062  <S**2>=0.000
     241 -> 247       -0.11397
     242 -> 247       -0.43242
     243 -> 247        0.47912
     243 -> 249        0.13448
     243 -> 250       -0.11546
     246 -> 248       -0.10009

 Excited State   4:      Singlet-A      3.4111 eV  363.48 nm  f=0.0183  <S**2>=0.000
     241 -> 247        0.14324
     242 -> 247        0.49224
     243 -> 247        0.30728
     243 -> 249        0.17916
     243 -> 250       -0.18263
     246 -> 248       -0.16941

 Excited State   5:      Singlet-A      3.5185 eV  352.38 nm  f=0.0134  <S**2>=0.000
     241 -> 247        0.62541
     242 -> 247       -0.18196
     246 -> 248       -0.21532

 The electronic state is 1-A.
 Alpha  occ. eigenvalues --  -46.87507 -19.25026 -19.22658 -19.20240 -19.20097
 Alpha  occ. eigenvalues --  -19.18713 -19.17413 -14.41969 -14.40882 -14.39632
 Alpha  occ. eigenvalues --  -14.38775 -10.39964 -10.37747 -10.35821 -10.33716
 Alpha  occ. eigenvalues --  -10.32457 -10.31430 -10.30693 -10.30498 -10.30433
 Alpha  occ. eigenvalues --  -10.30152 -10.29790 -10.29686 -10.29254 -10.28905
 Alpha  occ. eigenvalues --  -10.28786 -10.28374 -10.28374 -10.28165 -10.28063
 Alpha  occ. eigenvalues --  -10.28034 -10.27731 -10.27543 -10.27511 -10.27311
 Alpha  occ. eigenvalues --  -10.27254 -10.27013 -10.27000 -10.26777 -10.26647
 Alpha  occ. eigenvalues --  -10.26588 -10.26459 -10.26064 -10.25940 -10.25902
 Alpha  occ. eigenvalues --  -10.25664 -10.25623 -10.25487 -10.25326 -10.25263
 Alpha  occ. eigenvalues --  -10.25236 -10.25097 -10.24982 -10.24950 -10.24892
 Alpha  occ. eigenvalues --  -10.24843 -10.24830 -10.24687 -10.24554 -10.24517
 Alpha  occ. eigenvalues --  -10.24328 -10.24296 -10.24265 -10.24156 -10.23838
 Alpha  occ. eigenvalues --  -10.23813  -3.16234  -1.91131  -1.90662  -1.90575
 Alpha  occ. eigenvalues --   -1.16792  -1.15740  -1.12499  -1.07758  -1.07481
 Alpha  occ. eigenvalues --   -1.07213  -1.05623  -1.03279  -1.02707  -1.01180
 Alpha  occ. eigenvalues --   -0.93851  -0.90806  -0.89936  -0.89213  -0.88883
 Alpha  occ. eigenvalues --   -0.88490  -0.88074  -0.87652  -0.87260  -0.86875
 Alpha  occ. eigenvalues --   -0.86612  -0.85393  -0.84657  -0.84303  -0.83253
 Alpha  occ. eigenvalues --   -0.82773  -0.82177  -0.81408  -0.80998  -0.80597
 Alpha  occ. eigenvalues --   -0.80302  -0.78285  -0.77942  -0.77240  -0.76300
 Alpha  occ. eigenvalues --   -0.76099  -0.75458  -0.75027  -0.74461  -0.74103
 Alpha  occ. eigenvalues --   -0.73209  -0.72249  -0.71650  -0.70334  -0.69039
 Alpha  occ. eigenvalues --   -0.68750  -0.68415  -0.67033  -0.66709  -0.65792
 Alpha  occ. eigenvalues --   -0.65512  -0.65111  -0.64592  -0.64449  -0.64167
 Alpha  occ. eigenvalues --   -0.63298  -0.63252  -0.62351  -0.61248  -0.60306
 Alpha  occ. eigenvalues --   -0.60138  -0.59456  -0.59251  -0.59198  -0.58389
 Alpha  occ. eigenvalues --   -0.57313  -0.56946  -0.56349  -0.55796  -0.55538
 Alpha  occ. eigenvalues --   -0.54414  -0.54200  -0.54020  -0.53919  -0.53724
 Alpha  occ. eigenvalues --   -0.53605  -0.53349  -0.53175  -0.52874  -0.52727
 Alpha  occ. eigenvalues --   -0.52566  -0.52421  -0.52239  -0.52049  -0.51816
 Alpha  occ. eigenvalues --   -0.51671  -0.51553  -0.51252  -0.51088  -0.50593
 Alpha  occ. eigenvalues --   -0.50538  -0.50496  -0.50239  -0.49954  -0.49762
 Alpha  occ. eigenvalues --   -0.49593  -0.49403  -0.49114  -0.49052  -0.48896
 Alpha  occ. eigenvalues --   -0.48442  -0.48381  -0.48303  -0.47924  -0.47575
 Alpha  occ. eigenvalues --   -0.47462  -0.47086  -0.46802  -0.46714  -0.46388
 Alpha  occ. eigenvalues --   -0.46325  -0.46308  -0.45990  -0.45700  -0.45616
 Alpha  occ. eigenvalues --   -0.45419  -0.45392  -0.45212  -0.45062  -0.44907
 Alpha  occ. eigenvalues --   -0.44737  -0.44529  -0.44312  -0.44015  -0.43696
 Alpha  occ. eigenvalues --   -0.43622  -0.43405  -0.43327  -0.43184  -0.43177
 Alpha  occ. eigenvalues --   -0.42881  -0.42657  -0.42571  -0.42406  -0.42130
 Alpha  occ. eigenvalues --   -0.42078  -0.42044  -0.41317  -0.41208  -0.40914
 Alpha  occ. eigenvalues --   -0.40868  -0.40587  -0.40531  -0.40503  -0.40083
 Alpha  occ. eigenvalues --   -0.39995  -0.39574  -0.39488  -0.39349  -0.38876
 Alpha  occ. eigenvalues --   -0.38304  -0.38085  -0.37965  -0.37733  -0.37486
 Alpha  occ. eigenvalues --   -0.37253  -0.36791  -0.36324  -0.36144  -0.36133
 Alpha  occ. eigenvalues --   -0.35627  -0.35066  -0.34592  -0.34280  -0.33814
 Alpha  occ. eigenvalues --   -0.33608  -0.33330  -0.32963  -0.31719  -0.31256
 Alpha  occ. eigenvalues --   -0.30152  -0.29860  -0.29577  -0.28369  -0.23978
 Alpha  occ. eigenvalues --   -0.21273
 Alpha virt. eigenvalues --   -0.08803  -0.01539   0.00550   0.02661   0.03208
 Alpha virt. eigenvalues --    0.04353   0.05689   0.05836   0.06494   0.06917
 Alpha virt. eigenvalues --    0.07680   0.08226   0.08624   0.08856   0.09008

 Mulliken charges:
               1
     1  Mg   0.831059
     2  C   -0.094068
     3  C   -0.073995
     4  C   -0.037402
     5  C   -0.084168
     6  N   -0.295513
     7  C   -0.013330
     8  C   -0.046334
     9  C   -0.078934
    10  C    0.043087
    11  C    0.058378
    12  C    0.081998
    13  C    0.032031
    14  C    0.201408
    15  O   -0.228364
    16  O   -0.364109
    17  N   -0.447522
    18  C    0.185009
    19  C   -0.146867
    20  C   -0.041098
    21  C    0.130640
    22  C    0.114330
    23  C   -0.051701
    24  O   -0.241854
    25  C    0.095994
    26  N   -0.275764
    27  C    0.058573
    28  C   -0.063724
    29  C    0.031965
    30  C   -0.011538
    31  C    0.055427
    32  C    0.013704
    33  C    0.009577
    34  N   -0.310783
    35  C    0.147898
    36  C   -0.194682
    37  C   -0.043138
    38  C    0.186483
    39  C    0.118060
    40  C    0.032955
    41  O   -0.113920
    42  C    0.041471
    43  C    0.165928
    44  O   -0.185897
    45  O   -0.346773
    46  C    0.181485
    47  C    0.291490
    48  C   -0.156287
    49  C   -0.178188
    50  C    0.102069
    51  C    0.052535
    52  C   -0.003433
    53  C    0.051275
    54  C   -0.118769
    55  C    0.065072
    56  C    0.043991
    57  C    0.017588
    58  C    0.040179
    59  C   -0.139286
    60  C    0.059791
    61  C    0.056466
    62  C    0.032783
    63  C    0.058279
    64  C   -0.176937
    65  C    0.066119
    66  C    0.068031
    67  H   -0.034235
    68  H    0.022615
    69  H   -0.035250
    70  H   -0.005064
    71  H    0.004699
    72  H    0.016830
    73  H    0.019583
    74  H    0.027622
    75  H    0.001868
    76  H    0.047993
    77  H    0.026319
    78  H    0.041745
    79  H    0.006220
    80  H    0.045318
    81  H    0.018811
    82  H    0.039750
    83  H    0.031371
    84  H    0.031299
    85  H    0.026405
    86  H    0.021335
    87  H    0.021504
    88  H    0.004491
    89  H    0.015363
    90  H    0.012387
    91  H   -0.006803
    92  H    0.011240
    93  H    0.007534
    94  H    0.028027
    95  H    0.011011
    96  H    0.025896
    97  H    0.024742
    98  H    0.048264
    99  H    0.040419
   100  H    0.032753
   101  H    0.050797
   102  H    0.057729
   103  H    0.034609
   104  H    0.004606
   105  H    0.015922
   106  H    0.019359
   107  H    0.025153
   108  H    0.013135
   109  H    0.005452
   110  H    0.001335
   111  H   -0.006974
   112  H   -0.004377
   113  H    0.003884
   114  H   -0.013584
   115  H   -0.004181
   116  H    0.002083
   117  H    0.012301
   118  H   -0.022890
   119  H   -0.012121
   120  H   -0.006983
   121  H   -0.015329
   122  H   -0.003930
   123  H   -0.001994
   124  H    0.001521
   125  H    0.001268
   126  H    0.011162
   127  H   -0.002209
   128  H   -0.015367
   129  H   -0.022539
   130  H   -0.023870
   131  H   -0.013161
   132  H   -0.011633
   133  H   -0.008765
   134  H   -0.012605
   135  H    0.007460
   136  H    0.010419
   137  H    0.017545
   138  H    0.008247
   139  H    0.011470
   140  H   -0.003759
 Sum of Mulliken charges =  -0.00000

 Dipole moment (field-independent basis, Debye):
    X=              3.9822    Y=              1.5830    Z=              1.6192  Tot=              4.5810
 Quadrupole moment (field-independent basis, Debye-Ang):
   XX=           -390.9269   YY=           -417.7945   ZZ=           -396.2354
   XY=             12.3127   XZ=             10.4497   YZ=              4.5774

 Normal termination of Gaussian 16 at Thu May  5 09:38:12 2022.
