 Gaussian 16, Revision A.03,
 Gaussian 16:  ES64L-G16RevA.03 25-Dec-2016

 ---------------------------------
 #p PBE1PBE/Def2SVP td=(nstates=5)
 ---------------------------------

 -----------------------------------------------------
 step_801_chromophore_22 TDDFT with PBE1PBE functional
 -----------------------------------------------------
 Symbolic Z-matrix:
 Charge =  0 Multiplicity = 1

                         Standard orientation:
 ---------------------------------------------------------------------
 Center     Atomic      Atomic             Coordinates (Angstroms)
 Number     Number       Type             X           Y           Z
 ---------------------------------------------------------------------
      1         12           0       -6.199180    0.499165    0.135744
      2          6           0       -3.921188   -2.083255    0.523347
      3          6           0       -4.086282    2.620863    1.639273
      4          6           0       -8.563881    2.959675   -0.474628
      5          6           0       -8.585936   -1.916362   -0.757096
      6          7           0       -4.181922    0.281105    0.963415
      7          6           0       -3.393985   -0.866219    1.002248
      8          6           0       -2.048750   -0.492634    1.603186
      9          6           0       -2.384885    0.849272    2.407124
     10          6           0       -3.663237    1.307167    1.662374
     11          6           0       -2.573227    0.545356    3.994092
     12          6           0       -0.831968   -0.263773    0.567520
     13          6           0        0.606946   -0.547050    1.148073
     14          6           0        1.610415   -1.370814    0.427945
     15          8           0        1.571318   -1.706194   -0.751213
     16          8           0        2.736596   -1.567274    1.224161
     17          7           0       -6.291816    2.425272    0.522674
     18          6           0       -5.283314    3.184748    1.104740
     19          6           0       -5.550083    4.594903    0.994352
     20          6           0       -6.872281    4.671485    0.454719
     21          6           0       -7.335104    3.314321    0.172438
     22          6           0       -4.619910    5.651306    1.611404
     23          6           0       -7.739439    5.874137    0.282520
     24          8           0       -8.913290    5.819418   -0.142789
     25          6           0       -7.193759    7.221200    0.530572
     26          7           0       -8.372145    0.506091   -0.402715
     27          6           0       -8.957952    1.687548   -0.768873
     28          6           0      -10.001900    1.348673   -1.827433
     29          6           0      -10.278852   -0.182156   -1.685768
     30          6           0       -9.044989   -0.588929   -0.881116
     31          6           0      -11.336306    2.145862   -1.635675
     32          6           0      -10.359220   -0.955251   -2.984390
     33          6           0      -11.502725   -1.960752   -3.198219
     34          7           0       -6.306628   -1.554588    0.008070
     35          6           0       -7.309793   -2.362790   -0.382710
     36          6           0       -6.802100   -3.660175   -0.521639
     37          6           0       -5.432643   -3.628002   -0.174008
     38          6           0       -5.207859   -2.282366    0.083738
     39          6           0       -7.495353   -4.858378   -0.970993
     40          6           0       -4.194571   -4.454558    0.082507
     41          8           0       -4.004158   -5.615348   -0.101120
     42          6           0       -3.167501   -3.431121    0.494543
     43          6           0       -2.144706   -3.558837   -0.497807
     44          8           0       -2.047088   -3.017912   -1.544622
     45          8           0       -1.228165   -4.488877   -0.123555
     46          6           0       -0.256710   -4.894443   -1.161809
     47          6           0        3.887148   -2.236126    0.556888
     48          6           0        5.050779   -1.413078    1.147411
     49          6           0        6.395296   -1.411754    0.756128
     50          6           0        6.984901   -2.312617   -0.287208
     51          6           0        7.327485   -0.349673    1.433152
     52          6           0        8.005657   -0.963511    2.704708
     53          6           0        9.435929   -0.381238    2.780582
     54          6           0       10.482060   -1.409493    2.187412
     55          6           0       10.920806   -2.395821    3.246233
     56          6           0       11.732378   -0.565578    1.653515
     57          6           0       11.683474   -0.170127    0.196019
     58          6           0       11.624405    1.398129    0.079102
     59          6           0       11.679441    1.933261   -1.379321
     60          6           0       10.258508    2.201500   -1.896894
     61          6           0       12.612548    3.148394   -1.544698
     62          6           0       13.612443    2.870949   -2.584932
     63          6           0       14.973821    2.578029   -2.009696
     64          6           0       15.751996    1.508026   -2.797398
     65          6           0       15.325550    0.125000   -2.270400
     66          6           0       17.195380    1.884742   -2.853640
     67          1           0       -3.313003    3.262084    2.067566
     68          1           0       -9.013998    3.688856   -1.151592
     69          1           0       -9.239436   -2.657138   -1.222078
     70          1           0       -1.750322   -1.282450    2.292942
     71          1           0       -1.601842    1.597738    2.290157
     72          1           0       -1.812110    1.104246    4.537287
     73          1           0       -2.410558   -0.493244    4.281185
     74          1           0       -3.573170    0.838230    4.315104
     75          1           0       -0.959142    0.797399    0.352881
     76          1           0       -1.035015   -0.759623   -0.381553
     77          1           0        0.497636   -0.976308    2.144641
     78          1           0        1.048160    0.413412    1.415829
     79          1           0       -3.608949    5.308446    1.830115
     80          1           0       -5.071828    6.040911    2.523529
     81          1           0       -4.365873    6.423524    0.885759
     82          1           0       -6.383932    7.277762   -0.196485
     83          1           0       -6.975770    7.083544    1.589157
     84          1           0       -8.014449    7.895647    0.286060
     85          1           0       -9.658607    1.597469   -2.831476
     86          1           0      -11.027260   -0.549235   -0.982585
     87          1           0      -11.339019    2.849409   -0.803226
     88          1           0      -12.168919    1.527360   -1.298806
     89          1           0      -11.530936    2.750824   -2.521301
     90          1           0       -9.431597   -1.454845   -3.264092
     91          1           0      -10.419830   -0.204537   -3.772368
     92          1           0      -11.989164   -1.762651   -4.152901
     93          1           0      -12.337016   -1.783779   -2.518959
     94          1           0      -11.127754   -2.982222   -3.121980
     95          1           0       -8.001916   -4.701861   -1.923730
     96          1           0       -8.218881   -5.218129   -0.239344
     97          1           0       -6.822927   -5.680211   -1.220194
     98          1           0       -2.843047   -3.644994    1.513109
     99          1           0       -0.876905   -5.093150   -2.035576
    100          1           0        0.172570   -5.803692   -0.741957
    101          1           0        0.457182   -4.079961   -1.278965
    102          1           0        3.893824   -2.174207   -0.531079
    103          1           0        3.999541   -3.264210    0.901302
    104          1           0        4.813021   -0.712463    1.947440
    105          1           0        6.243656   -2.836082   -0.891035
    106          1           0        7.403629   -3.067468    0.378901
    107          1           0        7.839187   -1.923700   -0.841414
    108          1           0        6.969650    0.577698    1.879531
    109          1           0        8.078719   -0.050511    0.703039
    110          1           0        7.946288   -2.052376    2.704706
    111          1           0        7.438705   -0.723159    3.603751
    112          1           0        9.595265   -0.231668    3.848213
    113          1           0        9.482045    0.532114    2.186832
    114          1           0       10.125450   -2.009460    1.350905
    115          1           0       10.126757   -2.442106    3.991246
    116          1           0       11.767237   -2.038216    3.833461
    117          1           0       11.181594   -3.356796    2.802230
    118          1           0       12.636232   -1.148689    1.829024
    119          1           0       11.974266    0.287940    2.287475
    120          1           0       11.069891   -0.750913   -0.492363
    121          1           0       12.654319   -0.538256   -0.135766
    122          1           0       12.531302    1.800899    0.531145
    123          1           0       10.724414    1.723138    0.599923
    124          1           0       11.940999    1.102093   -2.033863
    125          1           0        9.597340    1.572073   -1.299484
    126          1           0       10.204617    2.054285   -2.975330
    127          1           0        9.987778    3.226077   -1.641629
    128          1           0       13.128052    3.455096   -0.633897
    129          1           0       12.046092    4.062913   -1.723210
    130          1           0       13.544871    3.771355   -3.194726
    131          1           0       13.178828    2.211496   -3.337316
    132          1           0       14.871121    2.167079   -1.005246
    133          1           0       15.538052    3.505422   -1.909756
    134          1           0       15.424480    1.596612   -3.833730
    135          1           0       15.990874   -0.188261   -1.465702
    136          1           0       15.380924   -0.556459   -3.120167
    137          1           0       14.316689    0.299291   -1.895224
    138          1           0       17.623598    1.929259   -1.852003
    139          1           0       17.231346    2.813315   -3.422344
    140          1           0       17.681269    1.116385   -3.455008
 ---------------------------------------------------------------------

 SCF Done:  E(RPBE1PBE) =  -3005.34137070     A.U. after   15 cycles

 Excitation energies and oscillator strengths:

 Excited State   1:      Singlet-A      1.8409 eV  673.50 nm  f=0.3386  <S**2>=0.000
     245 -> 248       -0.17605
     246 -> 247        0.69254
     246 <- 247       -0.10690
 This state for optimization and/or second-order correction.
 Total Energy, E(TD-HF/TD-DFT) =  -3005.27371900
 Copying the excited state density for this state as the 1-particle RhoCI density.

 Excited State   2:      Singlet-A      2.2395 eV  553.63 nm  f=0.1350  <S**2>=0.000
     245 -> 247        0.65358
     246 -> 248        0.25465

 Excited State   3:      Singlet-A      2.7835 eV  445.42 nm  f=0.0017  <S**2>=0.000
     243 -> 247        0.67461
     243 -> 249        0.11910

 Excited State   4:      Singlet-A      3.0645 eV  404.58 nm  f=0.0003  <S**2>=0.000
     242 -> 247        0.69918

 Excited State   5:      Singlet-A      3.0880 eV  401.51 nm  f=0.0000  <S**2>=0.000
     244 -> 247        0.70588

 The electronic state is 1-A.
 Alpha  occ. eigenvalues --  -46.90906 -19.25717 -19.23254 -19.20465 -19.20158
 Alpha  occ. eigenvalues --  -19.18816 -19.17772 -14.41441 -14.40450 -14.39391
 Alpha  occ. eigenvalues --  -14.38354 -10.36926 -10.34618 -10.32859 -10.30939
 Alpha  occ. eigenvalues --  -10.29864 -10.29090 -10.28358 -10.28266 -10.28252
 Alpha  occ. eigenvalues --  -10.27636 -10.27448 -10.27329 -10.26789 -10.26753
 Alpha  occ. eigenvalues --  -10.26603 -10.26179 -10.25856 -10.25765 -10.25674
 Alpha  occ. eigenvalues --  -10.25585 -10.25417 -10.25365 -10.25171 -10.25084
 Alpha  occ. eigenvalues --  -10.24811 -10.24623 -10.24565 -10.24496 -10.24275
 Alpha  occ. eigenvalues --  -10.24239 -10.23833 -10.23648 -10.23639 -10.23535
 Alpha  occ. eigenvalues --  -10.23415 -10.23206 -10.22920 -10.22854 -10.22662
 Alpha  occ. eigenvalues --  -10.22662 -10.22599 -10.22584 -10.22568 -10.22563
 Alpha  occ. eigenvalues --  -10.22392 -10.22357 -10.22311 -10.22099 -10.21914
 Alpha  occ. eigenvalues --  -10.21809 -10.21702 -10.21685 -10.21501 -10.21390
 Alpha  occ. eigenvalues --  -10.21336  -3.13208  -1.86047  -1.85554  -1.85475
 Alpha  occ. eigenvalues --   -1.11465  -1.10499  -1.07147  -1.02564  -1.02311
 Alpha  occ. eigenvalues --   -1.01975  -1.00250  -0.97853  -0.97325  -0.95914
 Alpha  occ. eigenvalues --   -0.88126  -0.84894  -0.84016  -0.83520  -0.83026
 Alpha  occ. eigenvalues --   -0.82626  -0.82401  -0.81777  -0.81559  -0.81212
 Alpha  occ. eigenvalues --   -0.80939  -0.79611  -0.78870  -0.78553  -0.77534
 Alpha  occ. eigenvalues --   -0.76938  -0.76445  -0.75670  -0.75257  -0.74894
 Alpha  occ. eigenvalues --   -0.74541  -0.72614  -0.72176  -0.71560  -0.70373
 Alpha  occ. eigenvalues --   -0.70367  -0.69644  -0.69362  -0.68603  -0.68268
 Alpha  occ. eigenvalues --   -0.67615  -0.66596  -0.66088  -0.64629  -0.63386
 Alpha  occ. eigenvalues --   -0.63144  -0.62617  -0.61504  -0.60880  -0.60207
 Alpha  occ. eigenvalues --   -0.59984  -0.59301  -0.59137  -0.59066  -0.58278
 Alpha  occ. eigenvalues --   -0.57779  -0.57425  -0.56519  -0.55710  -0.54789
 Alpha  occ. eigenvalues --   -0.54583  -0.53992  -0.53823  -0.53576  -0.52926
 Alpha  occ. eigenvalues --   -0.51777  -0.51561  -0.50843  -0.50356  -0.49953
 Alpha  occ. eigenvalues --   -0.49001  -0.48753  -0.48574  -0.48344  -0.48120
 Alpha  occ. eigenvalues --   -0.47977  -0.47861  -0.47699  -0.47434  -0.47228
 Alpha  occ. eigenvalues --   -0.47036  -0.46887  -0.46800  -0.46540  -0.46337
 Alpha  occ. eigenvalues --   -0.46236  -0.46049  -0.45737  -0.45650  -0.45243
 Alpha  occ. eigenvalues --   -0.45138  -0.45065  -0.44853  -0.44622  -0.44300
 Alpha  occ. eigenvalues --   -0.44133  -0.43950  -0.43735  -0.43663  -0.43516
 Alpha  occ. eigenvalues --   -0.43095  -0.43020  -0.42911  -0.42588  -0.42137
 Alpha  occ. eigenvalues --   -0.42092  -0.41722  -0.41470  -0.41412  -0.41079
 Alpha  occ. eigenvalues --   -0.40908  -0.40875  -0.40596  -0.40429  -0.40279
 Alpha  occ. eigenvalues --   -0.40155  -0.40073  -0.39905  -0.39894  -0.39639
 Alpha  occ. eigenvalues --   -0.39476  -0.39279  -0.39040  -0.38802  -0.38540
 Alpha  occ. eigenvalues --   -0.38374  -0.38232  -0.38064  -0.37971  -0.37834
 Alpha  occ. eigenvalues --   -0.37669  -0.37458  -0.37315  -0.37219  -0.36952
 Alpha  occ. eigenvalues --   -0.36872  -0.36759  -0.36098  -0.36050  -0.35740
 Alpha  occ. eigenvalues --   -0.35642  -0.35481  -0.35344  -0.35300  -0.34929
 Alpha  occ. eigenvalues --   -0.34813  -0.34451  -0.34336  -0.34293  -0.33681
 Alpha  occ. eigenvalues --   -0.33074  -0.33042  -0.32761  -0.32730  -0.32267
 Alpha  occ. eigenvalues --   -0.32091  -0.31876  -0.31269  -0.31149  -0.31012
 Alpha  occ. eigenvalues --   -0.30453  -0.29947  -0.29328  -0.29181  -0.28710
 Alpha  occ. eigenvalues --   -0.28551  -0.28476  -0.28335  -0.27053  -0.26400
 Alpha  occ. eigenvalues --   -0.25752  -0.25452  -0.24471  -0.23677  -0.20945
 Alpha  occ. eigenvalues --   -0.18865
 Alpha virt. eigenvalues --   -0.11245  -0.05063  -0.03705  -0.01769  -0.00156
 Alpha virt. eigenvalues --    0.00455   0.01297   0.01403   0.02402   0.03372
 Alpha virt. eigenvalues --    0.04198   0.04451   0.04784   0.05474   0.05635

 Mulliken charges:
               1
     1  Mg   0.984321
     2  C   -0.110301
     3  C   -0.068012
     4  C   -0.021879
     5  C   -0.072386
     6  N   -0.397790
     7  C    0.071923
     8  C   -0.111535
     9  C   -0.158335
    10  C    0.082455
    11  C    0.003882
    12  C    0.033828
    13  C   -0.042728
    14  C    0.266875
    15  O   -0.263170
    16  O   -0.394193
    17  N   -0.563287
    18  C    0.203057
    19  C   -0.162041
    20  C   -0.101761
    21  C    0.166027
    22  C    0.055572
    23  C    0.000242
    24  O   -0.276605
    25  C    0.017404
    26  N   -0.376446
    27  C    0.094505
    28  C   -0.156154
    29  C   -0.047853
    30  C    0.035914
    31  C    0.004564
    32  C   -0.044099
    33  C   -0.060798
    34  N   -0.448610
    35  C    0.171663
    36  C   -0.229792
    37  C   -0.075465
    38  C    0.225623
    39  C    0.064928
    40  C    0.129456
    41  O   -0.162355
    42  C   -0.067047
    43  C    0.263032
    44  O   -0.224246
    45  O   -0.380007
    46  C    0.124457
    47  C    0.251064
    48  C   -0.158177
    49  C   -0.234386
    50  C    0.039024
    51  C   -0.013539
    52  C   -0.054913
    53  C   -0.017592
    54  C   -0.204169
    55  C    0.006678
    56  C   -0.007370
    57  C   -0.044491
    58  C   -0.023060
    59  C   -0.222293
    60  C   -0.002427
    61  C    0.006200
    62  C   -0.029995
    63  C   -0.005826
    64  C   -0.261860
    65  C   -0.006545
    66  C    0.002386
    67  H   -0.001969
    68  H    0.052150
    69  H    0.000067
    70  H    0.033391
    71  H    0.039446
    72  H    0.043984
    73  H    0.046053
    74  H    0.054947
    75  H    0.035642
    76  H    0.080774
    77  H    0.056903
    78  H    0.072239
    79  H    0.033406
    80  H    0.072363
    81  H    0.046763
    82  H    0.067216
    83  H    0.059413
    84  H    0.059125
    85  H    0.062152
    86  H    0.058083
    87  H    0.048122
    88  H    0.032048
    89  H    0.042496
    90  H    0.045321
    91  H    0.027174
    92  H    0.039317
    93  H    0.035009
    94  H    0.054003
    95  H    0.037751
    96  H    0.053797
    97  H    0.052295
    98  H    0.083695
    99  H    0.062216
   100  H    0.054709
   101  H    0.075820
   102  H    0.082472
   103  H    0.061543
   104  H    0.034384
   105  H    0.043340
   106  H    0.048256
   107  H    0.050829
   108  H    0.044613
   109  H    0.042915
   110  H    0.033485
   111  H    0.025475
   112  H    0.028460
   113  H    0.040813
   114  H    0.024691
   115  H    0.023995
   116  H    0.029681
   117  H    0.040005
   118  H    0.010311
   119  H    0.019652
   120  H    0.022854
   121  H    0.020923
   122  H    0.029383
   123  H    0.032641
   124  H    0.037692
   125  H    0.032788
   126  H    0.038832
   127  H    0.025903
   128  H    0.016113
   129  H    0.009396
   130  H    0.010400
   131  H    0.018652
   132  H    0.023282
   133  H    0.023878
   134  H    0.026404
   135  H    0.035416
   136  H    0.038464
   137  H    0.053134
   138  H    0.035947
   139  H    0.039868
   140  H    0.025648
 Sum of Mulliken charges =  -0.00000

 Dipole moment (field-independent basis, Debye):
    X=              3.9042    Y=              1.7659    Z=              1.6001  Tot=              4.5740
 Quadrupole moment (field-independent basis, Debye-Ang):
   XX=           -384.7549   YY=           -414.7898   ZZ=           -393.0238
   XY=             11.6845   XZ=             11.9101   YZ=              4.8876

 Normal termination of Gaussian 16 at Thu May  5 10:06:32 2022.
