 Gaussian 16, Revision A.03,
 Gaussian 16:  ES64L-G16RevA.03 25-Dec-2016

 --------------------------------
 #p wB97XD/Def2SVP td=(nstates=5)
 --------------------------------

 ----------------------------------------------------
 step_801_chromophore_22 TDDFT with wB97XD functional
 ----------------------------------------------------
 Symbolic Z-matrix:
 Charge =  0 Multiplicity = 1

                         Standard orientation:
 ---------------------------------------------------------------------
 Center     Atomic      Atomic             Coordinates (Angstroms)
 Number     Number       Type             X           Y           Z
 ---------------------------------------------------------------------
      1         12           0       -6.199180    0.499165    0.135744
      2          6           0       -3.921188   -2.083255    0.523347
      3          6           0       -4.086282    2.620863    1.639273
      4          6           0       -8.563881    2.959675   -0.474628
      5          6           0       -8.585936   -1.916362   -0.757096
      6          7           0       -4.181922    0.281105    0.963415
      7          6           0       -3.393985   -0.866219    1.002248
      8          6           0       -2.048750   -0.492634    1.603186
      9          6           0       -2.384885    0.849272    2.407124
     10          6           0       -3.663237    1.307167    1.662374
     11          6           0       -2.573227    0.545356    3.994092
     12          6           0       -0.831968   -0.263773    0.567520
     13          6           0        0.606946   -0.547050    1.148073
     14          6           0        1.610415   -1.370814    0.427945
     15          8           0        1.571318   -1.706194   -0.751213
     16          8           0        2.736596   -1.567274    1.224161
     17          7           0       -6.291816    2.425272    0.522674
     18          6           0       -5.283314    3.184748    1.104740
     19          6           0       -5.550083    4.594903    0.994352
     20          6           0       -6.872281    4.671485    0.454719
     21          6           0       -7.335104    3.314321    0.172438
     22          6           0       -4.619910    5.651306    1.611404
     23          6           0       -7.739439    5.874137    0.282520
     24          8           0       -8.913290    5.819418   -0.142789
     25          6           0       -7.193759    7.221200    0.530572
     26          7           0       -8.372145    0.506091   -0.402715
     27          6           0       -8.957952    1.687548   -0.768873
     28          6           0      -10.001900    1.348673   -1.827433
     29          6           0      -10.278852   -0.182156   -1.685768
     30          6           0       -9.044989   -0.588929   -0.881116
     31          6           0      -11.336306    2.145862   -1.635675
     32          6           0      -10.359220   -0.955251   -2.984390
     33          6           0      -11.502725   -1.960752   -3.198219
     34          7           0       -6.306628   -1.554588    0.008070
     35          6           0       -7.309793   -2.362790   -0.382710
     36          6           0       -6.802100   -3.660175   -0.521639
     37          6           0       -5.432643   -3.628002   -0.174008
     38          6           0       -5.207859   -2.282366    0.083738
     39          6           0       -7.495353   -4.858378   -0.970993
     40          6           0       -4.194571   -4.454558    0.082507
     41          8           0       -4.004158   -5.615348   -0.101120
     42          6           0       -3.167501   -3.431121    0.494543
     43          6           0       -2.144706   -3.558837   -0.497807
     44          8           0       -2.047088   -3.017912   -1.544622
     45          8           0       -1.228165   -4.488877   -0.123555
     46          6           0       -0.256710   -4.894443   -1.161809
     47          6           0        3.887148   -2.236126    0.556888
     48          6           0        5.050779   -1.413078    1.147411
     49          6           0        6.395296   -1.411754    0.756128
     50          6           0        6.984901   -2.312617   -0.287208
     51          6           0        7.327485   -0.349673    1.433152
     52          6           0        8.005657   -0.963511    2.704708
     53          6           0        9.435929   -0.381238    2.780582
     54          6           0       10.482060   -1.409493    2.187412
     55          6           0       10.920806   -2.395821    3.246233
     56          6           0       11.732378   -0.565578    1.653515
     57          6           0       11.683474   -0.170127    0.196019
     58          6           0       11.624405    1.398129    0.079102
     59          6           0       11.679441    1.933261   -1.379321
     60          6           0       10.258508    2.201500   -1.896894
     61          6           0       12.612548    3.148394   -1.544698
     62          6           0       13.612443    2.870949   -2.584932
     63          6           0       14.973821    2.578029   -2.009696
     64          6           0       15.751996    1.508026   -2.797398
     65          6           0       15.325550    0.125000   -2.270400
     66          6           0       17.195380    1.884742   -2.853640
     67          1           0       -3.313003    3.262084    2.067566
     68          1           0       -9.013998    3.688856   -1.151592
     69          1           0       -9.239436   -2.657138   -1.222078
     70          1           0       -1.750322   -1.282450    2.292942
     71          1           0       -1.601842    1.597738    2.290157
     72          1           0       -1.812110    1.104246    4.537287
     73          1           0       -2.410558   -0.493244    4.281185
     74          1           0       -3.573170    0.838230    4.315104
     75          1           0       -0.959142    0.797399    0.352881
     76          1           0       -1.035015   -0.759623   -0.381553
     77          1           0        0.497636   -0.976308    2.144641
     78          1           0        1.048160    0.413412    1.415829
     79          1           0       -3.608949    5.308446    1.830115
     80          1           0       -5.071828    6.040911    2.523529
     81          1           0       -4.365873    6.423524    0.885759
     82          1           0       -6.383932    7.277762   -0.196485
     83          1           0       -6.975770    7.083544    1.589157
     84          1           0       -8.014449    7.895647    0.286060
     85          1           0       -9.658607    1.597469   -2.831476
     86          1           0      -11.027260   -0.549235   -0.982585
     87          1           0      -11.339019    2.849409   -0.803226
     88          1           0      -12.168919    1.527360   -1.298806
     89          1           0      -11.530936    2.750824   -2.521301
     90          1           0       -9.431597   -1.454845   -3.264092
     91          1           0      -10.419830   -0.204537   -3.772368
     92          1           0      -11.989164   -1.762651   -4.152901
     93          1           0      -12.337016   -1.783779   -2.518959
     94          1           0      -11.127754   -2.982222   -3.121980
     95          1           0       -8.001916   -4.701861   -1.923730
     96          1           0       -8.218881   -5.218129   -0.239344
     97          1           0       -6.822927   -5.680211   -1.220194
     98          1           0       -2.843047   -3.644994    1.513109
     99          1           0       -0.876905   -5.093150   -2.035576
    100          1           0        0.172570   -5.803692   -0.741957
    101          1           0        0.457182   -4.079961   -1.278965
    102          1           0        3.893824   -2.174207   -0.531079
    103          1           0        3.999541   -3.264210    0.901302
    104          1           0        4.813021   -0.712463    1.947440
    105          1           0        6.243656   -2.836082   -0.891035
    106          1           0        7.403629   -3.067468    0.378901
    107          1           0        7.839187   -1.923700   -0.841414
    108          1           0        6.969650    0.577698    1.879531
    109          1           0        8.078719   -0.050511    0.703039
    110          1           0        7.946288   -2.052376    2.704706
    111          1           0        7.438705   -0.723159    3.603751
    112          1           0        9.595265   -0.231668    3.848213
    113          1           0        9.482045    0.532114    2.186832
    114          1           0       10.125450   -2.009460    1.350905
    115          1           0       10.126757   -2.442106    3.991246
    116          1           0       11.767237   -2.038216    3.833461
    117          1           0       11.181594   -3.356796    2.802230
    118          1           0       12.636232   -1.148689    1.829024
    119          1           0       11.974266    0.287940    2.287475
    120          1           0       11.069891   -0.750913   -0.492363
    121          1           0       12.654319   -0.538256   -0.135766
    122          1           0       12.531302    1.800899    0.531145
    123          1           0       10.724414    1.723138    0.599923
    124          1           0       11.940999    1.102093   -2.033863
    125          1           0        9.597340    1.572073   -1.299484
    126          1           0       10.204617    2.054285   -2.975330
    127          1           0        9.987778    3.226077   -1.641629
    128          1           0       13.128052    3.455096   -0.633897
    129          1           0       12.046092    4.062913   -1.723210
    130          1           0       13.544871    3.771355   -3.194726
    131          1           0       13.178828    2.211496   -3.337316
    132          1           0       14.871121    2.167079   -1.005246
    133          1           0       15.538052    3.505422   -1.909756
    134          1           0       15.424480    1.596612   -3.833730
    135          1           0       15.990874   -0.188261   -1.465702
    136          1           0       15.380924   -0.556459   -3.120167
    137          1           0       14.316689    0.299291   -1.895224
    138          1           0       17.623598    1.929259   -1.852003
    139          1           0       17.231346    2.813315   -3.422344
    140          1           0       17.681269    1.116385   -3.455008
 ---------------------------------------------------------------------

 SCF Done:  E(RwB97XD) =  -3007.84985479     A.U. after   19 cycles

 Excitation energies and oscillator strengths:

 Excited State   1:      Singlet-A      1.6269 eV  762.07 nm  f=0.3525  <S**2>=0.000
     245 -> 248       -0.18789
     246 -> 247        0.68339
     245 <- 248       -0.12026
 This state for optimization and/or second-order correction.
 Total Energy, E(TD-HF/TD-DFT) =  -3007.79006592
 Copying the excited state density for this state as the 1-particle RhoCI density.

 Excited State   2:      Singlet-A      2.1762 eV  569.72 nm  f=0.1405  <S**2>=0.000
     245 -> 247        0.64325
     246 -> 248        0.28224

 Excited State   3:      Singlet-A      3.3781 eV  367.03 nm  f=0.0037  <S**2>=0.000
     241 -> 247       -0.18292
     242 -> 247        0.53010
     243 -> 247        0.35344
     243 -> 249       -0.12379
     243 -> 250       -0.10960

 Excited State   4:      Singlet-A      3.4365 eV  360.78 nm  f=0.0299  <S**2>=0.000
     241 -> 247        0.21441
     242 -> 247       -0.33371
     243 -> 247        0.39564
     243 -> 248       -0.11215
     243 -> 249       -0.21803
     243 -> 250       -0.21828
     246 -> 248       -0.20551

 Excited State   5:      Singlet-A      3.5403 eV  350.21 nm  f=0.0363  <S**2>=0.000
     241 -> 247        0.55330
     242 -> 247        0.26582
     246 -> 248       -0.26352

 The electronic state is 1-A.
 Alpha  occ. eigenvalues --  -46.93857 -19.30282 -19.27910 -19.25151 -19.25146
 Alpha  occ. eigenvalues --  -19.23641 -19.22414 -14.46594 -14.45478 -14.44249
 Alpha  occ. eigenvalues --  -14.43381 -10.43742 -10.41561 -10.39853 -10.37627
 Alpha  occ. eigenvalues --  -10.36362 -10.35510 -10.34732 -10.34490 -10.34463
 Alpha  occ. eigenvalues --  -10.33903 -10.33793 -10.33676 -10.33303 -10.32977
 Alpha  occ. eigenvalues --  -10.32879 -10.32487 -10.32285 -10.32207 -10.32149
 Alpha  occ. eigenvalues --  -10.32110 -10.31771 -10.31551 -10.31550 -10.31304
 Alpha  occ. eigenvalues --  -10.31236 -10.31153 -10.31057 -10.30690 -10.30639
 Alpha  occ. eigenvalues --  -10.30628 -10.30285 -10.30022 -10.29935 -10.29854
 Alpha  occ. eigenvalues --  -10.29685 -10.29590 -10.29319 -10.29219 -10.29156
 Alpha  occ. eigenvalues --  -10.29132 -10.29052 -10.29030 -10.28935 -10.28871
 Alpha  occ. eigenvalues --  -10.28771 -10.28693 -10.28599 -10.28455 -10.28358
 Alpha  occ. eigenvalues --  -10.28170 -10.28151 -10.28115 -10.27949 -10.27739
 Alpha  occ. eigenvalues --  -10.27697  -3.19997  -1.93589  -1.93098  -1.93011
 Alpha  occ. eigenvalues --   -1.18954  -1.17900  -1.14763  -1.09923  -1.09672
 Alpha  occ. eigenvalues --   -1.09428  -1.07702  -1.05290  -1.04699  -1.03199
 Alpha  occ. eigenvalues --   -0.95864  -0.92545  -0.91710  -0.91098  -0.90706
 Alpha  occ. eigenvalues --   -0.90294  -0.89986  -0.89444  -0.89208  -0.88813
 Alpha  occ. eigenvalues --   -0.88545  -0.87267  -0.86530  -0.86213  -0.85146
 Alpha  occ. eigenvalues --   -0.84599  -0.84069  -0.83317  -0.82897  -0.82514
 Alpha  occ. eigenvalues --   -0.82203  -0.80241  -0.79841  -0.79163  -0.78076
 Alpha  occ. eigenvalues --   -0.78053  -0.77319  -0.76951  -0.76275  -0.75931
 Alpha  occ. eigenvalues --   -0.75182  -0.74201  -0.73618  -0.72254  -0.70951
 Alpha  occ. eigenvalues --   -0.70749  -0.70277  -0.69012  -0.68544  -0.67733
 Alpha  occ. eigenvalues --   -0.67476  -0.66946  -0.66602  -0.66451  -0.65965
 Alpha  occ. eigenvalues --   -0.65264  -0.65083  -0.64169  -0.63275  -0.62280
 Alpha  occ. eigenvalues --   -0.62095  -0.61444  -0.61205  -0.61164  -0.60350
 Alpha  occ. eigenvalues --   -0.59225  -0.58927  -0.58298  -0.57764  -0.57434
 Alpha  occ. eigenvalues --   -0.56386  -0.56164  -0.55945  -0.55798  -0.55570
 Alpha  occ. eigenvalues --   -0.55487  -0.55276  -0.55099  -0.54825  -0.54642
 Alpha  occ. eigenvalues --   -0.54468  -0.54293  -0.54157  -0.53995  -0.53718
 Alpha  occ. eigenvalues --   -0.53578  -0.53480  -0.53127  -0.53042  -0.52521
 Alpha  occ. eigenvalues --   -0.52433  -0.52429  -0.52158  -0.51886  -0.51641
 Alpha  occ. eigenvalues --   -0.51460  -0.51321  -0.51012  -0.50948  -0.50800
 Alpha  occ. eigenvalues --   -0.50355  -0.50289  -0.50202  -0.49818  -0.49425
 Alpha  occ. eigenvalues --   -0.49419  -0.49043  -0.48658  -0.48644  -0.48326
 Alpha  occ. eigenvalues --   -0.48238  -0.48167  -0.47842  -0.47637  -0.47497
 Alpha  occ. eigenvalues --   -0.47386  -0.47328  -0.47159  -0.46982  -0.46797
 Alpha  occ. eigenvalues --   -0.46650  -0.46452  -0.46230  -0.45961  -0.45548
 Alpha  occ. eigenvalues --   -0.45527  -0.45352  -0.45222  -0.45102  -0.45016
 Alpha  occ. eigenvalues --   -0.44785  -0.44563  -0.44455  -0.44308  -0.43995
 Alpha  occ. eigenvalues --   -0.43975  -0.43929  -0.43166  -0.43133  -0.42871
 Alpha  occ. eigenvalues --   -0.42843  -0.42487  -0.42428  -0.42394  -0.41974
 Alpha  occ. eigenvalues --   -0.41898  -0.41405  -0.41377  -0.41279  -0.40718
 Alpha  occ. eigenvalues --   -0.40143  -0.40002  -0.39811  -0.39681  -0.39336
 Alpha  occ. eigenvalues --   -0.39151  -0.38909  -0.38254  -0.38088  -0.37974
 Alpha  occ. eigenvalues --   -0.37640  -0.36875  -0.36479  -0.36129  -0.35765
 Alpha  occ. eigenvalues --   -0.35445  -0.35303  -0.35210  -0.33785  -0.33410
 Alpha  occ. eigenvalues --   -0.32334  -0.32020  -0.31491  -0.30408  -0.25892
 Alpha  occ. eigenvalues --   -0.23092
 Alpha virt. eigenvalues --   -0.07155   0.00375   0.02601   0.04766   0.06310
 Alpha virt. eigenvalues --    0.06696   0.07984   0.08105   0.09130   0.09556
 Alpha virt. eigenvalues --    0.10833   0.11060   0.11569   0.12147   0.12355

 Mulliken charges:
               1
     1  Mg   0.973350
     2  C   -0.107597
     3  C   -0.080884
     4  C   -0.044341
     5  C   -0.090296
     6  N   -0.363840
     7  C    0.029515
     8  C   -0.083000
     9  C   -0.129030
    10  C    0.062534
    11  C    0.012983
    12  C    0.044728
    13  C   -0.027237
    14  C    0.256965
    15  O   -0.260158
    16  O   -0.393666
    17  N   -0.533862
    18  C    0.196975
    19  C   -0.158943
    20  C   -0.092397
    21  C    0.155201
    22  C    0.067679
    23  C   -0.002926
    24  O   -0.272404
    25  C    0.032395
    26  N   -0.344989
    27  C    0.085089
    28  C   -0.125396
    29  C   -0.022560
    30  C    0.024238
    31  C    0.011857
    32  C   -0.031085
    33  C   -0.044832
    34  N   -0.406292
    35  C    0.165445
    36  C   -0.217528
    37  C   -0.077428
    38  C    0.212413
    39  C    0.072011
    40  C    0.111787
    41  O   -0.151581
    42  C   -0.029723
    43  C    0.235841
    44  O   -0.215655
    45  O   -0.378920
    46  C    0.141899
    47  C    0.263282
    48  C   -0.171518
    49  C   -0.212541
    50  C    0.051664
    51  C    0.009702
    52  C   -0.045064
    53  C    0.010632
    54  C   -0.175970
    55  C    0.016445
    56  C    0.008661
    57  C   -0.031090
    58  C    0.003516
    59  C   -0.195797
    60  C    0.013203
    61  C    0.019881
    62  C   -0.014892
    63  C    0.016658
    64  C   -0.236847
    65  C    0.020350
    66  C    0.015843
    67  H   -0.009529
    68  H    0.047322
    69  H   -0.010450
    70  H    0.017819
    71  H    0.029513
    72  H    0.038672
    73  H    0.040092
    74  H    0.049415
    75  H    0.026693
    76  H    0.072518
    77  H    0.050292
    78  H    0.067453
    79  H    0.028973
    80  H    0.067410
    81  H    0.040950
    82  H    0.060933
    83  H    0.051501
    84  H    0.057745
    85  H    0.052669
    86  H    0.046834
    87  H    0.042410
    88  H    0.026152
    89  H    0.037877
    90  H    0.036238
    91  H    0.018417
    92  H    0.034205
    93  H    0.028393
    94  H    0.048366
    95  H    0.032505
    96  H    0.049851
    97  H    0.049542
    98  H    0.079690
    99  H    0.057830
   100  H    0.051908
   101  H    0.070234
   102  H    0.077686
   103  H    0.057292
   104  H    0.030833
   105  H    0.038926
   106  H    0.040065
   107  H    0.046898
   108  H    0.038610
   109  H    0.026223
   110  H    0.021700
   111  H    0.019076
   112  H    0.020825
   113  H    0.022931
   114  H    0.010858
   115  H    0.016630
   116  H    0.023374
   117  H    0.035727
   118  H    0.002137
   119  H    0.010087
   120  H    0.015271
   121  H    0.011334
   122  H    0.017236
   123  H    0.019101
   124  H    0.023047
   125  H    0.023311
   126  H    0.033978
   127  H    0.018606
   128  H    0.006599
   129  H    0.002148
   130  H    0.003353
   131  H    0.008045
   132  H    0.008528
   133  H    0.016901
   134  H    0.014280
   135  H    0.029480
   136  H    0.033602
   137  H    0.029639
   138  H    0.029572
   139  H    0.033447
   140  H    0.019747
 Sum of Mulliken charges =  -0.00000

 Dipole moment (field-independent basis, Debye):
    X=              4.0566    Y=              1.5267    Z=              1.5888  Tot=              4.6164
 Quadrupole moment (field-independent basis, Debye-Ang):
   XX=           -386.1372   YY=           -413.3248   ZZ=           -392.9093
   XY=             12.6251   XZ=             11.6125   YZ=              4.9375

 Normal termination of Gaussian 16 at Thu May  5 10:43:19 2022.
