 Gaussian 16, Revision A.03,
 Gaussian 16:  ES64L-G16RevA.03 25-Dec-2016

 --------------------
 #p ZINDO=(nstates=5)
 --------------------

 -----------------------------
 step_801_chromophore_22 ZINDO
 -----------------------------
 Symbolic Z-matrix:
 Charge =  0 Multiplicity = 1

                         Standard orientation:
 ---------------------------------------------------------------------
 Center     Atomic      Atomic             Coordinates (Angstroms)
 Number     Number       Type             X           Y           Z
 ---------------------------------------------------------------------
      1         12           0       -6.199180    0.499165    0.135744
      2          6           0       -3.921188   -2.083255    0.523347
      3          6           0       -4.086282    2.620863    1.639273
      4          6           0       -8.563881    2.959675   -0.474628
      5          6           0       -8.585936   -1.916362   -0.757096
      6          7           0       -4.181922    0.281105    0.963415
      7          6           0       -3.393985   -0.866219    1.002248
      8          6           0       -2.048750   -0.492634    1.603186
      9          6           0       -2.384885    0.849272    2.407124
     10          6           0       -3.663237    1.307167    1.662374
     11          6           0       -2.573227    0.545356    3.994092
     12          6           0       -0.831968   -0.263773    0.567520
     13          6           0        0.606946   -0.547050    1.148073
     14          6           0        1.610415   -1.370814    0.427945
     15          8           0        1.571318   -1.706194   -0.751213
     16          8           0        2.736596   -1.567274    1.224161
     17          7           0       -6.291816    2.425272    0.522674
     18          6           0       -5.283314    3.184748    1.104740
     19          6           0       -5.550083    4.594903    0.994352
     20          6           0       -6.872281    4.671485    0.454719
     21          6           0       -7.335104    3.314321    0.172438
     22          6           0       -4.619910    5.651306    1.611404
     23          6           0       -7.739439    5.874137    0.282520
     24          8           0       -8.913290    5.819418   -0.142789
     25          6           0       -7.193759    7.221200    0.530572
     26          7           0       -8.372145    0.506091   -0.402715
     27          6           0       -8.957952    1.687548   -0.768873
     28          6           0      -10.001900    1.348673   -1.827433
     29          6           0      -10.278852   -0.182156   -1.685768
     30          6           0       -9.044989   -0.588929   -0.881116
     31          6           0      -11.336306    2.145862   -1.635675
     32          6           0      -10.359220   -0.955251   -2.984390
     33          6           0      -11.502725   -1.960752   -3.198219
     34          7           0       -6.306628   -1.554588    0.008070
     35          6           0       -7.309793   -2.362790   -0.382710
     36          6           0       -6.802100   -3.660175   -0.521639
     37          6           0       -5.432643   -3.628002   -0.174008
     38          6           0       -5.207859   -2.282366    0.083738
     39          6           0       -7.495353   -4.858378   -0.970993
     40          6           0       -4.194571   -4.454558    0.082507
     41          8           0       -4.004158   -5.615348   -0.101120
     42          6           0       -3.167501   -3.431121    0.494543
     43          6           0       -2.144706   -3.558837   -0.497807
     44          8           0       -2.047088   -3.017912   -1.544622
     45          8           0       -1.228165   -4.488877   -0.123555
     46          6           0       -0.256710   -4.894443   -1.161809
     47          6           0        3.887148   -2.236126    0.556888
     48          6           0        5.050779   -1.413078    1.147411
     49          6           0        6.395296   -1.411754    0.756128
     50          6           0        6.984901   -2.312617   -0.287208
     51          6           0        7.327485   -0.349673    1.433152
     52          6           0        8.005657   -0.963511    2.704708
     53          6           0        9.435929   -0.381238    2.780582
     54          6           0       10.482060   -1.409493    2.187412
     55          6           0       10.920806   -2.395821    3.246233
     56          6           0       11.732378   -0.565578    1.653515
     57          6           0       11.683474   -0.170127    0.196019
     58          6           0       11.624405    1.398129    0.079102
     59          6           0       11.679441    1.933261   -1.379321
     60          6           0       10.258508    2.201500   -1.896894
     61          6           0       12.612548    3.148394   -1.544698
     62          6           0       13.612443    2.870949   -2.584932
     63          6           0       14.973821    2.578029   -2.009696
     64          6           0       15.751996    1.508026   -2.797398
     65          6           0       15.325550    0.125000   -2.270400
     66          6           0       17.195380    1.884742   -2.853640
     67          1           0       -3.313003    3.262084    2.067566
     68          1           0       -9.013998    3.688856   -1.151592
     69          1           0       -9.239436   -2.657138   -1.222078
     70          1           0       -1.750322   -1.282450    2.292942
     71          1           0       -1.601842    1.597738    2.290157
     72          1           0       -1.812110    1.104246    4.537287
     73          1           0       -2.410558   -0.493244    4.281185
     74          1           0       -3.573170    0.838230    4.315104
     75          1           0       -0.959142    0.797399    0.352881
     76          1           0       -1.035015   -0.759623   -0.381553
     77          1           0        0.497636   -0.976308    2.144641
     78          1           0        1.048160    0.413412    1.415829
     79          1           0       -3.608949    5.308446    1.830115
     80          1           0       -5.071828    6.040911    2.523529
     81          1           0       -4.365873    6.423524    0.885759
     82          1           0       -6.383932    7.277762   -0.196485
     83          1           0       -6.975770    7.083544    1.589157
     84          1           0       -8.014449    7.895647    0.286060
     85          1           0       -9.658607    1.597469   -2.831476
     86          1           0      -11.027260   -0.549235   -0.982585
     87          1           0      -11.339019    2.849409   -0.803226
     88          1           0      -12.168919    1.527360   -1.298806
     89          1           0      -11.530936    2.750824   -2.521301
     90          1           0       -9.431597   -1.454845   -3.264092
     91          1           0      -10.419830   -0.204537   -3.772368
     92          1           0      -11.989164   -1.762651   -4.152901
     93          1           0      -12.337016   -1.783779   -2.518959
     94          1           0      -11.127754   -2.982222   -3.121980
     95          1           0       -8.001916   -4.701861   -1.923730
     96          1           0       -8.218881   -5.218129   -0.239344
     97          1           0       -6.822927   -5.680211   -1.220194
     98          1           0       -2.843047   -3.644994    1.513109
     99          1           0       -0.876905   -5.093150   -2.035576
    100          1           0        0.172570   -5.803692   -0.741957
    101          1           0        0.457182   -4.079961   -1.278965
    102          1           0        3.893824   -2.174207   -0.531079
    103          1           0        3.999541   -3.264210    0.901302
    104          1           0        4.813021   -0.712463    1.947440
    105          1           0        6.243656   -2.836082   -0.891035
    106          1           0        7.403629   -3.067468    0.378901
    107          1           0        7.839187   -1.923700   -0.841414
    108          1           0        6.969650    0.577698    1.879531
    109          1           0        8.078719   -0.050511    0.703039
    110          1           0        7.946288   -2.052376    2.704706
    111          1           0        7.438705   -0.723159    3.603751
    112          1           0        9.595265   -0.231668    3.848213
    113          1           0        9.482045    0.532114    2.186832
    114          1           0       10.125450   -2.009460    1.350905
    115          1           0       10.126757   -2.442106    3.991246
    116          1           0       11.767237   -2.038216    3.833461
    117          1           0       11.181594   -3.356796    2.802230
    118          1           0       12.636232   -1.148689    1.829024
    119          1           0       11.974266    0.287940    2.287475
    120          1           0       11.069891   -0.750913   -0.492363
    121          1           0       12.654319   -0.538256   -0.135766
    122          1           0       12.531302    1.800899    0.531145
    123          1           0       10.724414    1.723138    0.599923
    124          1           0       11.940999    1.102093   -2.033863
    125          1           0        9.597340    1.572073   -1.299484
    126          1           0       10.204617    2.054285   -2.975330
    127          1           0        9.987778    3.226077   -1.641629
    128          1           0       13.128052    3.455096   -0.633897
    129          1           0       12.046092    4.062913   -1.723210
    130          1           0       13.544871    3.771355   -3.194726
    131          1           0       13.178828    2.211496   -3.337316
    132          1           0       14.871121    2.167079   -1.005246
    133          1           0       15.538052    3.505422   -1.909756
    134          1           0       15.424480    1.596612   -3.833730
    135          1           0       15.990874   -0.188261   -1.465702
    136          1           0       15.380924   -0.556459   -3.120167
    137          1           0       14.316689    0.299291   -1.895224
    138          1           0       17.623598    1.929259   -1.852003
    139          1           0       17.231346    2.813315   -3.422344
    140          1           0       17.681269    1.116385   -3.455008
 ---------------------------------------------------------------------

 SCF Done:  E(RZINDO/S) =  -474.572368394     A.U. after   20 cycles

 Excitation energies and oscillator strengths:

 Excited State   1:      Singlet-A      1.2487 eV  992.90 nm  f=0.5810  <S**2>=0.000
     175 ->178         0.18895
     176 ->177         0.66300
 This state for optimization and/or second-order correction.
 Total Energy, E(CIS/TDA) =  -474.526479388
 Copying the excited state density for this state as the 1-particle RhoCI density.

 Excited State   2:      Singlet-A      1.9260 eV  643.74 nm  f=0.0808  <S**2>=0.000
     175 ->177         0.56472
     176 ->178        -0.39399

 Excited State   3:      Singlet-A      2.8944 eV  428.35 nm  f=0.0207  <S**2>=0.000
     169 ->180         0.14065
     170 ->177         0.24616
     170 ->179         0.24856
     170 ->180         0.34553
     170 ->184         0.16657
     170 ->186         0.14245
     170 ->187         0.13578
     172 ->177        -0.10009
     173 ->177        -0.10683
     173 ->180        -0.11575

 Excited State   4:      Singlet-A      3.0145 eV  411.29 nm  f=0.1647  <S**2>=0.000
     167 ->179         0.13680
     168 ->177         0.29991
     168 ->178        -0.17998
     168 ->179        -0.36428
     168 ->180         0.19481
     168 ->186        -0.15012
     175 ->177         0.14079
     176 ->178         0.21828

 Excited State   5:      Singlet-A      3.0632 eV  404.76 nm  f=0.8861  <S**2>=0.000
     168 ->179         0.13947
     171 ->177        -0.12401
     175 ->177         0.31191
     176 ->178         0.49222
     176 ->179         0.20785

 The electronic state is 1-A.
 Alpha  occ. eigenvalues --   -1.88559  -1.80262  -1.79322  -1.76756  -1.71508
 Alpha  occ. eigenvalues --   -1.70118  -1.67945  -1.62636  -1.61201  -1.58398
 Alpha  occ. eigenvalues --   -1.55638  -1.50845  -1.50373  -1.48064  -1.46937
 Alpha  occ. eigenvalues --   -1.44067  -1.42008  -1.40137  -1.39948  -1.37695
 Alpha  occ. eigenvalues --   -1.36577  -1.33903  -1.33424  -1.31373  -1.28912
 Alpha  occ. eigenvalues --   -1.27771  -1.25974  -1.22007  -1.20882  -1.18066
 Alpha  occ. eigenvalues --   -1.17829  -1.17807  -1.14629  -1.13031  -1.12137
 Alpha  occ. eigenvalues --   -1.11342  -1.10737  -1.10337  -1.04942  -1.03293
 Alpha  occ. eigenvalues --   -1.01962  -1.00686  -1.00050  -0.98607  -0.96722
 Alpha  occ. eigenvalues --   -0.96151  -0.94769  -0.93497  -0.92780  -0.91739
 Alpha  occ. eigenvalues --   -0.91177  -0.90652  -0.88636  -0.87976  -0.86279
 Alpha  occ. eigenvalues --   -0.85504  -0.84810  -0.83526  -0.82112  -0.80684
 Alpha  occ. eigenvalues --   -0.79983  -0.78137  -0.76887  -0.76644  -0.76377
 Alpha  occ. eigenvalues --   -0.76191  -0.75234  -0.74200  -0.72876  -0.72620
 Alpha  occ. eigenvalues --   -0.72428  -0.71827  -0.71605  -0.70520  -0.70373
 Alpha  occ. eigenvalues --   -0.70051  -0.69070  -0.68287  -0.68158  -0.67766
 Alpha  occ. eigenvalues --   -0.67555  -0.67198  -0.66917  -0.66219  -0.65971
 Alpha  occ. eigenvalues --   -0.65254  -0.65046  -0.64618  -0.64528  -0.64212
 Alpha  occ. eigenvalues --   -0.63086  -0.62674  -0.62421  -0.62275  -0.62051
 Alpha  occ. eigenvalues --   -0.61564  -0.61281  -0.60505  -0.60189  -0.59877
 Alpha  occ. eigenvalues --   -0.59586  -0.59243  -0.58922  -0.58318  -0.58105
 Alpha  occ. eigenvalues --   -0.57444  -0.57282  -0.56685  -0.56572  -0.56138
 Alpha  occ. eigenvalues --   -0.55836  -0.55693  -0.55112  -0.55001  -0.54641
 Alpha  occ. eigenvalues --   -0.54177  -0.53500  -0.53044  -0.52969  -0.52547
 Alpha  occ. eigenvalues --   -0.52478  -0.52324  -0.52053  -0.51593  -0.51220
 Alpha  occ. eigenvalues --   -0.51188  -0.51081  -0.50784  -0.50570  -0.50370
 Alpha  occ. eigenvalues --   -0.50238  -0.49676  -0.49587  -0.49429  -0.49093
 Alpha  occ. eigenvalues --   -0.49000  -0.48416  -0.48291  -0.48104  -0.47643
 Alpha  occ. eigenvalues --   -0.47436  -0.47249  -0.46890  -0.46305  -0.46260
 Alpha  occ. eigenvalues --   -0.46107  -0.45900  -0.45648  -0.45379  -0.45093
 Alpha  occ. eigenvalues --   -0.44751  -0.44260  -0.43947  -0.43706  -0.43039
 Alpha  occ. eigenvalues --   -0.42753  -0.41986  -0.41951  -0.41722  -0.41597
 Alpha  occ. eigenvalues --   -0.41360  -0.41047  -0.40572  -0.38899  -0.38854
 Alpha  occ. eigenvalues --   -0.37821  -0.36550  -0.35665  -0.34624  -0.33695
 Alpha  occ. eigenvalues --   -0.33244  -0.32492  -0.32161  -0.30801  -0.26454
 Alpha  occ. eigenvalues --   -0.21844
 Alpha virt. eigenvalues --   -0.08582  -0.01818  -0.00309   0.01625   0.01721
 Alpha virt. eigenvalues --    0.03089   0.03293   0.03845   0.04452   0.05606
 Alpha virt. eigenvalues --    0.06549   0.07069   0.07676   0.07935   0.08452

 Mulliken charges:
               1
     1  Mg   0.424714
     2  C   -0.042014
     3  C   -0.070946
     4  C   -0.063252
     5  C   -0.079173
     6  N   -0.283556
     7  C    0.124585
     8  C    0.003344
     9  C   -0.008664
    10  C    0.117574
    11  C   -0.056005
    12  C   -0.027380
    13  C    0.010133
    14  C    0.471745
    15  O   -0.510671
    16  O   -0.278606
    17  N   -0.326861
    18  C    0.091241
    19  C   -0.013036
    20  C   -0.051818
    21  C    0.128913
    22  C   -0.043211
    23  C    0.320465
    24  O   -0.561744
    25  C   -0.041012
    26  N   -0.294080
    27  C    0.131759
    28  C    0.012957
    29  C    0.007218
    30  C    0.148517
    31  C   -0.065468
    32  C   -0.028387
    33  C   -0.058063
    34  N   -0.319970
    35  C    0.129582
    36  C    0.044156
    37  C   -0.070114
    38  C    0.138114
    39  C   -0.038681
    40  C    0.352427
    41  O   -0.490431
    42  C    0.062759
    43  C    0.507437
    44  O   -0.520553
    45  O   -0.291929
    46  C    0.072849
    47  C    0.106950
    48  C   -0.117685
    49  C   -0.009872
    50  C   -0.040078
    51  C   -0.029136
    52  C   -0.039110
    53  C   -0.034091
    54  C   -0.015245
    55  C   -0.055700
    56  C   -0.040086
    57  C   -0.043274
    58  C   -0.035885
    59  C   -0.020230
    60  C   -0.061007
    61  C   -0.027230
    62  C   -0.031558
    63  C   -0.025383
    64  C   -0.017273
    65  C   -0.058016
    66  C   -0.051359
    67  H    0.024113
    68  H    0.053702
    69  H    0.023780
    70  H    0.019670
    71  H    0.028640
    72  H    0.018043
    73  H    0.023164
    74  H    0.028099
    75  H    0.022742
    76  H    0.048939
    77  H    0.033939
    78  H    0.045776
    79  H    0.021231
    80  H    0.034124
    81  H    0.024032
    82  H    0.047983
    83  H    0.051723
    84  H    0.044913
    85  H    0.043362
    86  H    0.047802
    87  H    0.022613
    88  H    0.019347
    89  H    0.023160
    90  H    0.022277
    91  H    0.010458
    92  H    0.018978
    93  H    0.017064
    94  H    0.026185
    95  H    0.023387
    96  H    0.031704
    97  H    0.027655
    98  H    0.056300
    99  H    0.052808
   100  H    0.031282
   101  H    0.057038
   102  H    0.066744
   103  H    0.049012
   104  H    0.034460
   105  H    0.031467
   106  H    0.026676
   107  H    0.033046
   108  H    0.032067
   109  H    0.019404
   110  H    0.020663
   111  H    0.013019
   112  H    0.022764
   113  H    0.026563
   114  H    0.027395
   115  H    0.015236
   116  H    0.015758
   117  H    0.020553
   118  H    0.005339
   119  H    0.019530
   120  H    0.030993
   121  H    0.005633
   122  H    0.019770
   123  H    0.025522
   124  H    0.020605
   125  H    0.017295
   126  H    0.022681
   127  H    0.014022
   128  H    0.013070
   129  H    0.010614
   130  H    0.004674
   131  H    0.021632
   132  H    0.016565
   133  H    0.016715
   134  H    0.010131
   135  H    0.022981
   136  H    0.019817
   137  H    0.027167
   138  H    0.024480
   139  H    0.020800
   140  H    0.009508
 Sum of Mulliken charges =  -0.00000

 Dipole moment (field-independent basis, Debye):
    X=              4.5396    Y=              0.8890    Z=              3.7741  Tot=              5.9701
 N-N= 4.221180955102D+03 E-N= 0.000000000000D+00  KE=-9.117498591627D+03
 Leave Link  601 at Thu May  5 11:01:51 2022, MaxMem=  6710886400 cpu:               1.0 elap:               0.1
 (Enter /sw/apps/gaussian-16.0/g16/l9999.exe)
 1\1\GINC-BP1-COMPUTE164\SP\RZINDO CIS\STO-3G\C55H74Mg1N4O6\OF15641\05-
 May-2022\0\\#p ZINDO=(nstates=5)\\step_801_chromophore_22 ZINDO\\0,1\M
 g,0,8.985,47.757,24.565\C,0,6.919,47.969,27.339\C,0,11.615,48.683,26.4
 23\C,0,10.89,47.352,21.697\C,0,6.091,47.503,22.593\N,0,9.233,48.24,26.
 688\C,0,8.259,48.242,27.683\C,0,8.937,48.567,29.004\C,0,10.282,49.297,
 28.537\C,0,10.411,48.747,27.095\C,0,10.139,50.913,28.657\C,0,9.257,47.
 321,29.979\C,0,9.308,47.667,31.517\C,0,8.599,46.859,32.541\O,0,8.125,4

 Normal termination of Gaussian 16 at Thu May  5 11:01:51 2022.
