 Gaussian 16, Revision A.03,
 Gaussian 16:  ES64L-G16RevA.03 25-Dec-2016

 ------------------------------
 #p blyp/Def2SVP td=(nstates=5)
 ------------------------------

 --------------------------------------------------
 step_1851_chromophore_3 TDDFT with blyp functional
 --------------------------------------------------
 Symbolic Z-matrix:
 Charge =  0 Multiplicity = 1

                         Standard orientation:
 ---------------------------------------------------------------------
 Center     Atomic      Atomic             Coordinates (Angstroms)
 Number     Number       Type             X           Y           Z
 ---------------------------------------------------------------------
      1         12           0        5.802071    0.961790    0.120063
      2          6           0        4.509561   -2.322086   -0.185215
      3          6           0        2.544115    2.079464   -0.167459
      4          6           0        6.970805    4.107512    0.225196
      5          6           0        8.968024   -0.323892   -0.180361
      6          7           0        3.728901   -0.030929   -0.306747
      7          6           0        3.469754   -1.348205   -0.177953
      8          6           0        1.898292   -1.535747   -0.034454
      9          6           0        1.330522   -0.127212   -0.161929
     10          6           0        2.604837    0.702274   -0.274487
     11          6           0        0.293878    0.069252   -1.270551
     12          6           0        1.447300   -2.293967    1.244343
     13          6           0        0.863749   -3.693959    1.035862
     14          6           0       -0.314118   -3.817127    0.105402
     15          8           0       -0.346207   -4.142991   -1.081748
     16          8           0       -1.524954   -3.512845    0.717708
     17          7           0        4.866498    2.904676    0.151445
     18          6           0        3.506793    3.148903    0.061291
     19          6           0        3.303151    4.609512    0.197885
     20          6           0        4.585745    5.270633    0.196604
     21          6           0        5.538626    4.100859    0.234142
     22          6           0        1.922783    5.157160    0.118080
     23          6           0        4.950284    6.762352    0.235767
     24          8           0        6.154284    7.122511    0.102475
     25          6           0        3.866408    7.780259    0.321034
     26          7           0        7.682218    1.713860    0.010465
     27          6           0        7.962135    3.028577    0.021765
     28          6           0        9.457239    3.384828    0.029635
     29          6           0       10.036130    1.939890    0.035961
     30          6           0        8.833879    1.064696   -0.086337
     31          6           0        9.975270    4.209637   -1.208118
     32          6           0       11.042362    1.592288    1.215113
     33          6           0       12.451810    2.114677    1.065404
     34          7           0        6.642914   -0.896678   -0.160728
     35          6           0        7.940861   -1.258849   -0.317404
     36          6           0        7.974503   -2.757273   -0.454469
     37          6           0        6.656341   -3.235580   -0.337360
     38          6           0        5.939250   -2.074803   -0.141056
     39          6           0        9.116008   -3.547464   -0.828930
     40          6           0        5.795750   -4.389952   -0.425901
     41          8           0        6.056699   -5.550527   -0.691741
     42          6           0        4.308258   -3.810130   -0.155887
     43          6           0        3.347222   -4.411011   -1.132218
     44          8           0        3.005743   -3.925616   -2.229069
     45          8           0        2.954689   -5.743663   -0.761249
     46          6           0        2.218801   -6.599181   -1.632878
     47          6           0       -2.753675   -3.540187   -0.058643
     48          6           0       -3.958225   -3.096954    0.742773
     49          6           0       -5.229183   -3.614865    0.850932
     50          6           0       -5.712820   -4.762693    0.047519
     51          6           0       -6.246142   -2.935478    1.717421
     52          6           0       -7.342048   -2.153418    1.083324
     53          6           0       -7.670574   -0.686499    1.591200
     54          6           0       -8.924773   -0.526902    2.496614
     55          6           0       -8.405063   -0.146702    3.949725
     56          6           0       -9.890162    0.608202    1.926509
     57          6           0      -10.506112    0.225483    0.632924
     58          6           0      -12.019648   -0.117986    0.857525
     59          6           0      -12.998433    1.054559    0.662157
     60          6           0      -13.923687    1.236455    1.791571
     61          6           0      -13.905167    0.760107   -0.694376
     62          6           0      -13.896193    2.009612   -1.583902
     63          6           0      -15.038699    1.828827   -2.598805
     64          6           0      -16.064884    2.946218   -2.567043
     65          6           0      -15.457693    4.290232   -2.977338
     66          6           0      -16.914033    3.037955   -1.268651
     67          1           0        1.522885    2.463461   -0.114796
     68          1           0        7.377938    5.115157    0.335029
     69          1           0        9.915769   -0.811429    0.057906
     70          1           0        1.629678   -2.189802   -0.864979
     71          1           0        0.927663    0.108561    0.822237
     72          1           0        0.438304   -0.776045   -1.943326
     73          1           0        0.529216    0.985700   -1.812094
     74          1           0       -0.690700    0.037854   -0.804708
     75          1           0        0.791107   -1.685797    1.868112
     76          1           0        2.338053   -2.418314    1.860111
     77          1           0        0.537601   -3.911804    2.053733
     78          1           0        1.541783   -4.541530    0.934729
     79          1           0        1.757553    5.925901    0.872973
     80          1           0        1.129255    4.478237    0.430044
     81          1           0        1.840307    5.657458   -0.846811
     82          1           0        4.363196    8.749758    0.278341
     83          1           0        3.290378    7.687914    1.241449
     84          1           0        3.216656    7.671491   -0.547354
     85          1           0        9.744128    3.994562    0.886307
     86          1           0       10.554131    1.961419   -0.922857
     87          1           0        9.263626    5.000791   -1.444891
     88          1           0       10.044390    3.634015   -2.131111
     89          1           0       10.964994    4.648316   -1.078588
     90          1           0       10.845084    0.586967    1.585756
     91          1           0       10.664872    2.173697    2.057328
     92          1           0       12.674487    2.436986    0.048907
     93          1           0       13.206188    1.404297    1.403761
     94          1           0       12.550437    2.943402    1.767427
     95          1           0        8.899262   -4.596191   -1.032582
     96          1           0        9.828321   -3.502233   -0.004499
     97          1           0        9.570045   -3.155450   -1.738975
     98          1           0        3.982191   -4.080904    0.848584
     99          1           0        1.925525   -6.153062   -2.583696
    100          1           0        1.331123   -6.866707   -1.058314
    101          1           0        2.796979   -7.484865   -1.893930
    102          1           0       -2.866399   -4.570144   -0.397381
    103          1           0       -2.707688   -2.943128   -0.969574
    104          1           0       -3.657536   -2.258268    1.370479
    105          1           0       -4.857373   -4.984767   -0.589715
    106          1           0       -6.481272   -4.388301   -0.628896
    107          1           0       -5.994851   -5.659495    0.599541
    108          1           0       -5.719321   -2.243055    2.373771
    109          1           0       -6.596483   -3.647491    2.464512
    110          1           0       -8.236260   -2.774010    1.043440
    111          1           0       -6.961730   -2.068894    0.064923
    112          1           0       -7.808461   -0.114240    0.674499
    113          1           0       -6.760779   -0.261799    2.014879
    114          1           0       -9.519278   -1.389641    2.794272
    115          1           0       -8.611994   -0.909592    4.699465
    116          1           0       -8.844113    0.788278    4.298179
    117          1           0       -7.334245    0.057341    3.912645
    118          1           0       -9.212766    1.459677    1.867960
    119          1           0      -10.762902    0.909746    2.507569
    120          1           0      -10.085590   -0.652890    0.142176
    121          1           0      -10.390566    1.003844   -0.120346
    122          1           0      -12.016529   -0.585821    1.841770
    123          1           0      -12.343464   -0.998510    0.301581
    124          1           0      -12.341520    1.912944    0.524769
    125          1           0      -14.008669    2.313711    1.933093
    126          1           0      -13.521586    0.799638    2.706380
    127          1           0      -14.974739    0.954297    1.734325
    128          1           0      -14.911038    0.391658   -0.493702
    129          1           0      -13.578722   -0.187537   -1.124616
    130          1           0      -12.934412    2.057811   -2.096167
    131          1           0      -13.963582    2.905701   -0.968446
    132          1           0      -15.672841    0.950812   -2.475459
    133          1           0      -14.575937    1.746601   -3.582908
    134          1           0      -16.714664    2.715963   -3.410492
    135          1           0      -15.048526    4.879089   -2.156193
    136          1           0      -16.385416    4.787684   -3.261593
    137          1           0      -14.607223    4.051422   -3.614911
    138          1           0      -16.592413    2.370969   -0.469519
    139          1           0      -17.929081    2.710219   -1.492076
    140          1           0      -16.997755    4.071630   -0.931986
 ---------------------------------------------------------------------

 SCF Done:  E(RB-LYP) =  -3007.34992020     A.U. after   23 cycles

 Excitation energies and oscillator strengths:

 Excited State   1:      Singlet-A      1.7774 eV  697.55 nm  f=0.2984  <S**2>=0.000
     245 -> 248       -0.17744
     245 -> 249        0.11431
     246 -> 247        0.67966
     246 <- 247       -0.14391
 This state for optimization and/or second-order correction.
 Total Energy, E(TD-HF/TD-DFT) =  -3007.28460108
 Copying the excited state density for this state as the 1-particle RhoCI density.

 Excited State   2:      Singlet-A      1.9154 eV  647.29 nm  f=0.0675  <S**2>=0.000
     245 -> 247        0.65277
     246 -> 248        0.18419
     246 -> 249       -0.13690

 Excited State   3:      Singlet-A      2.1395 eV  579.50 nm  f=0.0008  <S**2>=0.000
     244 -> 247        0.70379

 Excited State   4:      Singlet-A      2.3384 eV  530.22 nm  f=0.0015  <S**2>=0.000
     243 -> 247        0.70241

 Excited State   5:      Singlet-A      2.4748 eV  500.98 nm  f=0.0001  <S**2>=0.000
     241 -> 247        0.51587
     242 -> 247        0.48335

 The electronic state is 1-A.
 Alpha  occ. eigenvalues --  -46.27814 -18.81537 -18.80428 -18.76884 -18.76831
 Alpha  occ. eigenvalues --  -18.76412 -18.75817 -14.03628 -14.02855 -14.01212
 Alpha  occ. eigenvalues --  -14.01187 -10.04454 -10.03945 -10.00818 -10.00528
 Alpha  occ. eigenvalues --   -9.97862  -9.96935  -9.96534  -9.96196  -9.96009
 Alpha  occ. eigenvalues --   -9.95996  -9.95962  -9.95857  -9.95506  -9.94903
 Alpha  occ. eigenvalues --   -9.94673  -9.94459  -9.93986  -9.93982  -9.93944
 Alpha  occ. eigenvalues --   -9.93798  -9.93759  -9.93556  -9.93331  -9.93297
 Alpha  occ. eigenvalues --   -9.93212  -9.93207  -9.93090  -9.92869  -9.92795
 Alpha  occ. eigenvalues --   -9.92684  -9.92527  -9.92335  -9.92303  -9.92255
 Alpha  occ. eigenvalues --   -9.92173  -9.92143  -9.92114  -9.92100  -9.91980
 Alpha  occ. eigenvalues --   -9.91810  -9.91735  -9.91702  -9.91386  -9.91305
 Alpha  occ. eigenvalues --   -9.91288  -9.91212  -9.91193  -9.91137  -9.91002
 Alpha  occ. eigenvalues --   -9.90787  -9.90713  -9.90551  -9.90520  -9.90453
 Alpha  occ. eigenvalues --   -9.90268  -2.92410  -1.72833  -1.72294  -1.72125
 Alpha  occ. eigenvalues --   -0.97353  -0.94893  -0.92220  -0.89703  -0.88959
 Alpha  occ. eigenvalues --   -0.88087  -0.88036  -0.86459  -0.85805  -0.84101
 Alpha  occ. eigenvalues --   -0.75695  -0.73999  -0.73352  -0.73124  -0.72468
 Alpha  occ. eigenvalues --   -0.72325  -0.71386  -0.70968  -0.70781  -0.70379
 Alpha  occ. eigenvalues --   -0.70166  -0.69238  -0.68257  -0.67683  -0.66950
 Alpha  occ. eigenvalues --   -0.66486  -0.66200  -0.65595  -0.65211  -0.64613
 Alpha  occ. eigenvalues --   -0.63781  -0.62616  -0.62243  -0.61810  -0.60611
 Alpha  occ. eigenvalues --   -0.60284  -0.60252  -0.59780  -0.59457  -0.58634
 Alpha  occ. eigenvalues --   -0.58189  -0.57108  -0.56547  -0.55893  -0.54850
 Alpha  occ. eigenvalues --   -0.54150  -0.53854  -0.52800  -0.52519  -0.51927
 Alpha  occ. eigenvalues --   -0.51789  -0.51421  -0.50531  -0.50482  -0.50010
 Alpha  occ. eigenvalues --   -0.49644  -0.49137  -0.47585  -0.47054  -0.46888
 Alpha  occ. eigenvalues --   -0.46663  -0.46032  -0.45577  -0.45156  -0.44817
 Alpha  occ. eigenvalues --   -0.44066  -0.43348  -0.43107  -0.42709  -0.42588
 Alpha  occ. eigenvalues --   -0.42119  -0.41742  -0.41683  -0.41560  -0.41038
 Alpha  occ. eigenvalues --   -0.40694  -0.40360  -0.40275  -0.40047  -0.39909
 Alpha  occ. eigenvalues --   -0.39799  -0.39680  -0.39440  -0.39339  -0.39123
 Alpha  occ. eigenvalues --   -0.38889  -0.38814  -0.38629  -0.38409  -0.38267
 Alpha  occ. eigenvalues --   -0.38193  -0.37743  -0.37543  -0.37457  -0.37380
 Alpha  occ. eigenvalues --   -0.37188  -0.37111  -0.36843  -0.36770  -0.36674
 Alpha  occ. eigenvalues --   -0.36250  -0.36015  -0.35812  -0.35679  -0.35520
 Alpha  occ. eigenvalues --   -0.35465  -0.35375  -0.34940  -0.34896  -0.34780
 Alpha  occ. eigenvalues --   -0.34422  -0.34392  -0.33920  -0.33916  -0.33762
 Alpha  occ. eigenvalues --   -0.33589  -0.33548  -0.33379  -0.33189  -0.32970
 Alpha  occ. eigenvalues --   -0.32844  -0.32754  -0.32719  -0.32549  -0.32452
 Alpha  occ. eigenvalues --   -0.32214  -0.32065  -0.31903  -0.31708  -0.31553
 Alpha  occ. eigenvalues --   -0.31359  -0.31073  -0.30793  -0.30730  -0.30556
 Alpha  occ. eigenvalues --   -0.30280  -0.30205  -0.30142  -0.30055  -0.29856
 Alpha  occ. eigenvalues --   -0.29703  -0.29520  -0.29143  -0.28728  -0.28686
 Alpha  occ. eigenvalues --   -0.28485  -0.27976  -0.27910  -0.27755  -0.27610
 Alpha  occ. eigenvalues --   -0.27326  -0.27045  -0.26511  -0.26410  -0.26239
 Alpha  occ. eigenvalues --   -0.26043  -0.25948  -0.25699  -0.25664  -0.25125
 Alpha  occ. eigenvalues --   -0.24914  -0.24793  -0.23896  -0.23554  -0.23155
 Alpha  occ. eigenvalues --   -0.22437  -0.21776  -0.21538  -0.21122  -0.20881
 Alpha  occ. eigenvalues --   -0.20398  -0.20343  -0.19758  -0.19040  -0.16738
 Alpha  occ. eigenvalues --   -0.15529
 Alpha virt. eigenvalues --   -0.11280  -0.07325  -0.06380  -0.05315  -0.03621
 Alpha virt. eigenvalues --   -0.03390  -0.02802  -0.02368  -0.01165  -0.00575
 Alpha virt. eigenvalues --    0.01005   0.01427   0.02545   0.02605   0.03010

 Mulliken charges:
               1
     1  Mg   0.708683
     2  C    0.006266
     3  C   -0.019361
     4  C   -0.047168
     5  C   -0.120541
     6  N   -0.159671
     7  C   -0.086011
     8  C   -0.001744
     9  C    0.003079
    10  C   -0.020394
    11  C    0.162575
    12  C    0.120824
    13  C    0.134722
    14  C    0.090715
    15  O   -0.196887
    16  O   -0.289910
    17  N   -0.276386
    18  C    0.085953
    19  C   -0.138403
    20  C    0.034921
    21  C    0.066424
    22  C    0.170832
    23  C   -0.060986
    24  O   -0.196642
    25  C    0.136507
    26  N   -0.215032
    27  C    0.048235
    28  C   -0.030622
    29  C    0.093977
    30  C    0.041938
    31  C    0.097365
    32  C    0.089948
    33  C    0.087977
    34  N   -0.266801
    35  C    0.108277
    36  C   -0.192470
    37  C    0.107053
    38  C    0.078390
    39  C    0.167106
    40  C   -0.038730
    41  O   -0.107642
    42  C    0.043842
    43  C    0.139962
    44  O   -0.184526
    45  O   -0.307991
    46  C    0.220403
    47  C    0.311051
    48  C   -0.097026
    49  C   -0.170348
    50  C    0.177471
    51  C    0.157145
    52  C    0.072736
    53  C    0.126721
    54  C   -0.060982
    55  C    0.090853
    56  C    0.099035
    57  C    0.073615
    58  C    0.072867
    59  C   -0.028637
    60  C    0.127933
    61  C    0.064700
    62  C    0.095232
    63  C    0.095068
    64  C   -0.098095
    65  C    0.108733
    66  C    0.106116
    67  H   -0.074919
    68  H   -0.041017
    69  H   -0.051675
    70  H    0.013909
    71  H   -0.030427
    72  H    0.003506
    73  H   -0.005592
    74  H   -0.004383
    75  H   -0.016084
    76  H   -0.027827
    77  H   -0.023542
    78  H    0.012478
    79  H   -0.024218
    80  H   -0.004990
    81  H    0.017697
    82  H   -0.004141
    83  H    0.017746
    84  H    0.010879
    85  H   -0.013102
    86  H   -0.032677
    87  H    0.000543
    88  H   -0.016282
    89  H   -0.002869
    90  H   -0.024238
    91  H   -0.036448
    92  H   -0.000604
    93  H   -0.008158
    94  H   -0.008834
    95  H   -0.000094
    96  H   -0.003249
    97  H    0.003165
    98  H    0.007400
    99  H    0.018507
   100  H    0.005596
   101  H    0.009486
   102  H   -0.012402
   103  H    0.005473
   104  H   -0.040917
   105  H   -0.036017
   106  H   -0.002437
   107  H    0.008652
   108  H   -0.058563
   109  H   -0.036277
   110  H   -0.022884
   111  H   -0.035741
   112  H   -0.030588
   113  H   -0.031419
   114  H   -0.029722
   115  H   -0.011737
   116  H   -0.026361
   117  H   -0.027132
   118  H   -0.040637
   119  H   -0.025484
   120  H   -0.034736
   121  H   -0.036619
   122  H   -0.056726
   123  H   -0.053522
   124  H   -0.031809
   125  H   -0.031385
   126  H   -0.022955
   127  H   -0.014675
   128  H   -0.039754
   129  H   -0.042554
   130  H   -0.028346
   131  H   -0.017694
   132  H   -0.030436
   133  H   -0.040039
   134  H   -0.043388
   135  H   -0.023163
   136  H   -0.008075
   137  H   -0.017274
   138  H   -0.007874
   139  H   -0.022464
   140  H   -0.020106
 Sum of Mulliken charges =  -0.00000

 Dipole moment (field-independent basis, Debye):
    X=             -2.6473    Y=              2.0565    Z=              3.7518  Tot=              5.0312
 Quadrupole moment (field-independent basis, Debye-Ang):
   XX=           -363.1184   YY=           -430.4804   ZZ=           -411.0665
   XY=              9.7531   XZ=             14.8976   YZ=             -7.7453

 Normal termination of Gaussian 16 at Wed May  4 15:53:05 2022.
