 Gaussian 16, Revision A.03,
 Gaussian 16:  ES64L-G16RevA.03 25-Dec-2016

 -----------------------------------
 #p cam-b3lyp/Def2SVP td=(nstates=5)
 -----------------------------------

 -------------------------------------------------------
 step_1851_chromophore_3 TDDFT with cam-b3lyp functional
 -------------------------------------------------------
 Symbolic Z-matrix:
 Charge =  0 Multiplicity = 1

                         Standard orientation:
 ---------------------------------------------------------------------
 Center     Atomic      Atomic             Coordinates (Angstroms)
 Number     Number       Type             X           Y           Z
 ---------------------------------------------------------------------
      1         12           0        5.802071    0.961790    0.120063
      2          6           0        4.509561   -2.322086   -0.185215
      3          6           0        2.544115    2.079464   -0.167459
      4          6           0        6.970805    4.107512    0.225196
      5          6           0        8.968024   -0.323892   -0.180361
      6          7           0        3.728901   -0.030929   -0.306747
      7          6           0        3.469754   -1.348205   -0.177953
      8          6           0        1.898292   -1.535747   -0.034454
      9          6           0        1.330522   -0.127212   -0.161929
     10          6           0        2.604837    0.702274   -0.274487
     11          6           0        0.293878    0.069252   -1.270551
     12          6           0        1.447300   -2.293967    1.244343
     13          6           0        0.863749   -3.693959    1.035862
     14          6           0       -0.314118   -3.817127    0.105402
     15          8           0       -0.346207   -4.142991   -1.081748
     16          8           0       -1.524954   -3.512845    0.717708
     17          7           0        4.866498    2.904676    0.151445
     18          6           0        3.506793    3.148903    0.061291
     19          6           0        3.303151    4.609512    0.197885
     20          6           0        4.585745    5.270633    0.196604
     21          6           0        5.538626    4.100859    0.234142
     22          6           0        1.922783    5.157160    0.118080
     23          6           0        4.950284    6.762352    0.235767
     24          8           0        6.154284    7.122511    0.102475
     25          6           0        3.866408    7.780259    0.321034
     26          7           0        7.682218    1.713860    0.010465
     27          6           0        7.962135    3.028577    0.021765
     28          6           0        9.457239    3.384828    0.029635
     29          6           0       10.036130    1.939890    0.035961
     30          6           0        8.833879    1.064696   -0.086337
     31          6           0        9.975270    4.209637   -1.208118
     32          6           0       11.042362    1.592288    1.215113
     33          6           0       12.451810    2.114677    1.065404
     34          7           0        6.642914   -0.896678   -0.160728
     35          6           0        7.940861   -1.258849   -0.317404
     36          6           0        7.974503   -2.757273   -0.454469
     37          6           0        6.656341   -3.235580   -0.337360
     38          6           0        5.939250   -2.074803   -0.141056
     39          6           0        9.116008   -3.547464   -0.828930
     40          6           0        5.795750   -4.389952   -0.425901
     41          8           0        6.056699   -5.550527   -0.691741
     42          6           0        4.308258   -3.810130   -0.155887
     43          6           0        3.347222   -4.411011   -1.132218
     44          8           0        3.005743   -3.925616   -2.229069
     45          8           0        2.954689   -5.743663   -0.761249
     46          6           0        2.218801   -6.599181   -1.632878
     47          6           0       -2.753675   -3.540187   -0.058643
     48          6           0       -3.958225   -3.096954    0.742773
     49          6           0       -5.229183   -3.614865    0.850932
     50          6           0       -5.712820   -4.762693    0.047519
     51          6           0       -6.246142   -2.935478    1.717421
     52          6           0       -7.342048   -2.153418    1.083324
     53          6           0       -7.670574   -0.686499    1.591200
     54          6           0       -8.924773   -0.526902    2.496614
     55          6           0       -8.405063   -0.146702    3.949725
     56          6           0       -9.890162    0.608202    1.926509
     57          6           0      -10.506112    0.225483    0.632924
     58          6           0      -12.019648   -0.117986    0.857525
     59          6           0      -12.998433    1.054559    0.662157
     60          6           0      -13.923687    1.236455    1.791571
     61          6           0      -13.905167    0.760107   -0.694376
     62          6           0      -13.896193    2.009612   -1.583902
     63          6           0      -15.038699    1.828827   -2.598805
     64          6           0      -16.064884    2.946218   -2.567043
     65          6           0      -15.457693    4.290232   -2.977338
     66          6           0      -16.914033    3.037955   -1.268651
     67          1           0        1.522885    2.463461   -0.114796
     68          1           0        7.377938    5.115157    0.335029
     69          1           0        9.915769   -0.811429    0.057906
     70          1           0        1.629678   -2.189802   -0.864979
     71          1           0        0.927663    0.108561    0.822237
     72          1           0        0.438304   -0.776045   -1.943326
     73          1           0        0.529216    0.985700   -1.812094
     74          1           0       -0.690700    0.037854   -0.804708
     75          1           0        0.791107   -1.685797    1.868112
     76          1           0        2.338053   -2.418314    1.860111
     77          1           0        0.537601   -3.911804    2.053733
     78          1           0        1.541783   -4.541530    0.934729
     79          1           0        1.757553    5.925901    0.872973
     80          1           0        1.129255    4.478237    0.430044
     81          1           0        1.840307    5.657458   -0.846811
     82          1           0        4.363196    8.749758    0.278341
     83          1           0        3.290378    7.687914    1.241449
     84          1           0        3.216656    7.671491   -0.547354
     85          1           0        9.744128    3.994562    0.886307
     86          1           0       10.554131    1.961419   -0.922857
     87          1           0        9.263626    5.000791   -1.444891
     88          1           0       10.044390    3.634015   -2.131111
     89          1           0       10.964994    4.648316   -1.078588
     90          1           0       10.845084    0.586967    1.585756
     91          1           0       10.664872    2.173697    2.057328
     92          1           0       12.674487    2.436986    0.048907
     93          1           0       13.206188    1.404297    1.403761
     94          1           0       12.550437    2.943402    1.767427
     95          1           0        8.899262   -4.596191   -1.032582
     96          1           0        9.828321   -3.502233   -0.004499
     97          1           0        9.570045   -3.155450   -1.738975
     98          1           0        3.982191   -4.080904    0.848584
     99          1           0        1.925525   -6.153062   -2.583696
    100          1           0        1.331123   -6.866707   -1.058314
    101          1           0        2.796979   -7.484865   -1.893930
    102          1           0       -2.866399   -4.570144   -0.397381
    103          1           0       -2.707688   -2.943128   -0.969574
    104          1           0       -3.657536   -2.258268    1.370479
    105          1           0       -4.857373   -4.984767   -0.589715
    106          1           0       -6.481272   -4.388301   -0.628896
    107          1           0       -5.994851   -5.659495    0.599541
    108          1           0       -5.719321   -2.243055    2.373771
    109          1           0       -6.596483   -3.647491    2.464512
    110          1           0       -8.236260   -2.774010    1.043440
    111          1           0       -6.961730   -2.068894    0.064923
    112          1           0       -7.808461   -0.114240    0.674499
    113          1           0       -6.760779   -0.261799    2.014879
    114          1           0       -9.519278   -1.389641    2.794272
    115          1           0       -8.611994   -0.909592    4.699465
    116          1           0       -8.844113    0.788278    4.298179
    117          1           0       -7.334245    0.057341    3.912645
    118          1           0       -9.212766    1.459677    1.867960
    119          1           0      -10.762902    0.909746    2.507569
    120          1           0      -10.085590   -0.652890    0.142176
    121          1           0      -10.390566    1.003844   -0.120346
    122          1           0      -12.016529   -0.585821    1.841770
    123          1           0      -12.343464   -0.998510    0.301581
    124          1           0      -12.341520    1.912944    0.524769
    125          1           0      -14.008669    2.313711    1.933093
    126          1           0      -13.521586    0.799638    2.706380
    127          1           0      -14.974739    0.954297    1.734325
    128          1           0      -14.911038    0.391658   -0.493702
    129          1           0      -13.578722   -0.187537   -1.124616
    130          1           0      -12.934412    2.057811   -2.096167
    131          1           0      -13.963582    2.905701   -0.968446
    132          1           0      -15.672841    0.950812   -2.475459
    133          1           0      -14.575937    1.746601   -3.582908
    134          1           0      -16.714664    2.715963   -3.410492
    135          1           0      -15.048526    4.879089   -2.156193
    136          1           0      -16.385416    4.787684   -3.261593
    137          1           0      -14.607223    4.051422   -3.614911
    138          1           0      -16.592413    2.370969   -0.469519
    139          1           0      -17.929081    2.710219   -1.492076
    140          1           0      -16.997755    4.071630   -0.931986
 ---------------------------------------------------------------------

 SCF Done:  E(RCAM-B3LYP) =  -3007.13492267     A.U. after   17 cycles

 Excitation energies and oscillator strengths:

 Excited State   1:      Singlet-A      1.6994 eV  729.56 nm  f=0.3835  <S**2>=0.000
     245 -> 248       -0.19090
     246 -> 247        0.67985
     245 <- 248       -0.10568
 This state for optimization and/or second-order correction.
 Total Energy, E(TD-HF/TD-DFT) =  -3007.07246989
 Copying the excited state density for this state as the 1-particle RhoCI density.

 Excited State   2:      Singlet-A      2.1516 eV  576.23 nm  f=0.0996  <S**2>=0.000
     245 -> 247        0.63746
     246 -> 248        0.28775

 Excited State   3:      Singlet-A      3.3709 eV  367.81 nm  f=0.5373  <S**2>=0.000
     244 -> 247       -0.16700
     245 -> 247       -0.26722
     246 -> 248        0.61498
     245 <- 247        0.10583

 Excited State   4:      Singlet-A      3.5256 eV  351.67 nm  f=0.0549  <S**2>=0.000
     242 -> 247       -0.10333
     244 -> 247        0.66503
     246 -> 248        0.13213

 Excited State   5:      Singlet-A      3.6798 eV  336.93 nm  f=0.0129  <S**2>=0.000
     239 -> 247        0.16903
     239 -> 250       -0.10531
     240 -> 247        0.42967
     240 -> 248        0.22979
     240 -> 249        0.27235
     240 -> 250       -0.26977
     240 -> 257        0.11492
     241 -> 247        0.12134

 The electronic state is 1-A.
 Alpha  occ. eigenvalues --  -46.89370 -19.24363 -19.23309 -19.20054 -19.19925
 Alpha  occ. eigenvalues --  -19.19673 -19.19178 -14.42489 -14.41678 -14.39722
 Alpha  occ. eigenvalues --  -14.39585 -10.39833 -10.39730 -10.36272 -10.35955
 Alpha  occ. eigenvalues --  -10.31877 -10.31488 -10.31053 -10.30499 -10.30494
 Alpha  occ. eigenvalues --  -10.30412 -10.30240 -10.29786 -10.29714 -10.29229
 Alpha  occ. eigenvalues --  -10.29220 -10.29155 -10.28270 -10.28090 -10.28056
 Alpha  occ. eigenvalues --  -10.27989 -10.27963 -10.27898 -10.27484 -10.27290
 Alpha  occ. eigenvalues --  -10.27138 -10.27120 -10.27047 -10.26816 -10.26690
 Alpha  occ. eigenvalues --  -10.26595 -10.26550 -10.26495 -10.26317 -10.26291
 Alpha  occ. eigenvalues --  -10.25905 -10.25778 -10.25729 -10.25710 -10.25645
 Alpha  occ. eigenvalues --  -10.25555 -10.25391 -10.25350 -10.25317 -10.25059
 Alpha  occ. eigenvalues --  -10.24939 -10.24892 -10.24880 -10.24832 -10.24598
 Alpha  occ. eigenvalues --  -10.24415 -10.24355 -10.24181 -10.24131 -10.24089
 Alpha  occ. eigenvalues --  -10.23813  -3.17869  -1.92769  -1.92329  -1.92170
 Alpha  occ. eigenvalues --   -1.15793  -1.13396  -1.10646  -1.08151  -1.06775
 Alpha  occ. eigenvalues --   -1.05976  -1.05827  -1.04153  -1.03375  -1.01629
 Alpha  occ. eigenvalues --   -0.92872  -0.90903  -0.90200  -0.89949  -0.89092
 Alpha  occ. eigenvalues --   -0.89058  -0.88052  -0.87660  -0.87350  -0.86955
 Alpha  occ. eigenvalues --   -0.86744  -0.85667  -0.84529  -0.83832  -0.83178
 Alpha  occ. eigenvalues --   -0.82618  -0.82392  -0.81590  -0.81147  -0.80397
 Alpha  occ. eigenvalues --   -0.79508  -0.78342  -0.77910  -0.77321  -0.76004
 Alpha  occ. eigenvalues --   -0.75603  -0.75597  -0.75022  -0.74763  -0.73849
 Alpha  occ. eigenvalues --   -0.73230  -0.72068  -0.71443  -0.70744  -0.69393
 Alpha  occ. eigenvalues --   -0.68803  -0.68442  -0.67237  -0.67028  -0.66199
 Alpha  occ. eigenvalues --   -0.65869  -0.65627  -0.64619  -0.64570  -0.63956
 Alpha  occ. eigenvalues --   -0.63425  -0.63033  -0.61244  -0.60746  -0.60509
 Alpha  occ. eigenvalues --   -0.60268  -0.59581  -0.59045  -0.58528  -0.58244
 Alpha  occ. eigenvalues --   -0.57648  -0.56589  -0.56284  -0.55950  -0.55647
 Alpha  occ. eigenvalues --   -0.54996  -0.54831  -0.54523  -0.54438  -0.54024
 Alpha  occ. eigenvalues --   -0.53627  -0.53244  -0.53071  -0.52940  -0.52645
 Alpha  occ. eigenvalues --   -0.52418  -0.52250  -0.52250  -0.52089  -0.51924
 Alpha  occ. eigenvalues --   -0.51688  -0.51333  -0.51226  -0.51005  -0.50692
 Alpha  occ. eigenvalues --   -0.50511  -0.50218  -0.49993  -0.49855  -0.49646
 Alpha  occ. eigenvalues --   -0.49589  -0.49265  -0.49250  -0.49130  -0.48903
 Alpha  occ. eigenvalues --   -0.48720  -0.48246  -0.48116  -0.47815  -0.47600
 Alpha  occ. eigenvalues --   -0.47500  -0.47442  -0.47400  -0.46870  -0.46734
 Alpha  occ. eigenvalues --   -0.46435  -0.46198  -0.45942  -0.45571  -0.45543
 Alpha  occ. eigenvalues --   -0.45397  -0.45224  -0.45183  -0.44854  -0.44777
 Alpha  occ. eigenvalues --   -0.44617  -0.44506  -0.44219  -0.44198  -0.44059
 Alpha  occ. eigenvalues --   -0.43965  -0.43651  -0.43564  -0.43464  -0.43140
 Alpha  occ. eigenvalues --   -0.42957  -0.42503  -0.42223  -0.41971  -0.41930
 Alpha  occ. eigenvalues --   -0.41659  -0.41642  -0.41452  -0.41370  -0.41148
 Alpha  occ. eigenvalues --   -0.41114  -0.40768  -0.40085  -0.39996  -0.39889
 Alpha  occ. eigenvalues --   -0.39787  -0.39515  -0.38985  -0.38926  -0.38577
 Alpha  occ. eigenvalues --   -0.38184  -0.38107  -0.37758  -0.37129  -0.36988
 Alpha  occ. eigenvalues --   -0.36801  -0.36777  -0.36385  -0.36267  -0.36096
 Alpha  occ. eigenvalues --   -0.35719  -0.35353  -0.34810  -0.34489  -0.34124
 Alpha  occ. eigenvalues --   -0.33534  -0.33090  -0.32667  -0.31678  -0.31587
 Alpha  occ. eigenvalues --   -0.30583  -0.30080  -0.30014  -0.29632  -0.23387
 Alpha  occ. eigenvalues --   -0.20804
 Alpha virt. eigenvalues --   -0.08337  -0.02008  -0.00113   0.01449   0.02249
 Alpha virt. eigenvalues --    0.04104   0.04149   0.05163   0.05917   0.06444
 Alpha virt. eigenvalues --    0.07185   0.08407   0.08733   0.08989   0.09326

 Mulliken charges:
               1
     1  Mg   0.840814
     2  C   -0.023137
     3  C   -0.037405
     4  C   -0.061735
     5  C   -0.120940
     6  N   -0.229015
     7  C   -0.039345
     8  C   -0.054102
     9  C   -0.049973
    10  C    0.004412
    11  C    0.103084
    12  C    0.069885
    13  C    0.053222
    14  C    0.171821
    15  O   -0.235471
    16  O   -0.355206
    17  N   -0.360701
    18  C    0.097294
    19  C   -0.144282
    20  C   -0.028181
    21  C    0.089693
    22  C    0.108221
    23  C    0.018770
    24  O   -0.237270
    25  C    0.053978
    26  N   -0.291713
    27  C    0.065930
    28  C   -0.082501
    29  C    0.033460
    30  C    0.058461
    31  C    0.043883
    32  C    0.031409
    33  C    0.024515
    34  N   -0.355314
    35  C    0.112131
    36  C   -0.179633
    37  C    0.023182
    38  C    0.117605
    39  C    0.103287
    40  C    0.064336
    41  O   -0.145641
    42  C   -0.031016
    43  C    0.224208
    44  O   -0.218126
    45  O   -0.372384
    46  C    0.184805
    47  C    0.279891
    48  C   -0.117353
    49  C   -0.194286
    50  C    0.115325
    51  C    0.101115
    52  C    0.013972
    53  C    0.070862
    54  C   -0.118986
    55  C    0.037647
    56  C    0.047534
    57  C    0.015077
    58  C    0.021637
    59  C   -0.090522
    60  C    0.068906
    61  C    0.018829
    62  C    0.038783
    63  C    0.039341
    64  C   -0.155165
    65  C    0.047020
    66  C    0.045256
    67  H   -0.042681
    68  H   -0.002122
    69  H   -0.017052
    70  H    0.046310
    71  H    0.004754
    72  H    0.028844
    73  H    0.020263
    74  H    0.018896
    75  H    0.015803
    76  H    0.005078
    77  H    0.016371
    78  H    0.044244
    79  H    0.003123
    80  H    0.023715
    81  H    0.043889
    82  H    0.032070
    83  H    0.045046
    84  H    0.038031
    85  H    0.020641
    86  H    0.003514
    87  H    0.025248
    88  H    0.008303
    89  H    0.021086
    90  H    0.005561
    91  H   -0.006946
    92  H    0.020979
    93  H    0.016886
    94  H    0.014174
    95  H    0.029664
    96  H    0.021029
    97  H    0.029737
    98  H    0.047058
    99  H    0.044154
   100  H    0.024578
   101  H    0.030232
   102  H    0.015474
   103  H    0.032788
   104  H   -0.006626
   105  H   -0.011646
   106  H    0.021497
   107  H    0.033879
   108  H   -0.026781
   109  H   -0.005832
   110  H    0.003789
   111  H   -0.005462
   112  H   -0.000669
   113  H   -0.003003
   114  H    0.000756
   115  H    0.011987
   116  H   -0.001337
   117  H   -0.004330
   118  H   -0.011057
   119  H    0.001074
   120  H   -0.005710
   121  H   -0.007724
   122  H   -0.026464
   123  H   -0.022681
   124  H   -0.000562
   125  H   -0.006257
   126  H    0.001311
   127  H    0.009260
   128  H   -0.013109
   129  H   -0.013076
   130  H    0.000034
   131  H    0.007976
   132  H   -0.002508
   133  H   -0.009381
   134  H   -0.009977
   135  H   -0.000213
   136  H    0.015875
   137  H    0.007349
   138  H    0.012478
   139  H    0.002977
   140  H    0.005219
 Sum of Mulliken charges =  -0.00000

 Dipole moment (field-independent basis, Debye):
    X=             -2.8868    Y=              2.5668    Z=              4.0495  Tot=              5.5965
 Quadrupole moment (field-independent basis, Debye-Ang):
   XX=           -363.9793   YY=           -426.0715   ZZ=           -411.3220
   XY=             11.5594   XZ=             15.3194   YZ=             -7.6042

 Normal termination of Gaussian 16 at Wed May  4 14:48:19 2022.
