 Gaussian 16, Revision A.03,
 Gaussian 16:  ES64L-G16RevA.03 25-Dec-2016

 ---------------------------------
 #p PBE1PBE/Def2SVP td=(nstates=5)
 ---------------------------------

 -----------------------------------------------------
 step_1851_chromophore_3 TDDFT with PBE1PBE functional
 -----------------------------------------------------
 Symbolic Z-matrix:
 Charge =  0 Multiplicity = 1

                         Standard orientation:
 ---------------------------------------------------------------------
 Center     Atomic      Atomic             Coordinates (Angstroms)
 Number     Number       Type             X           Y           Z
 ---------------------------------------------------------------------
      1         12           0        5.802071    0.961790    0.120063
      2          6           0        4.509561   -2.322086   -0.185215
      3          6           0        2.544115    2.079464   -0.167459
      4          6           0        6.970805    4.107512    0.225196
      5          6           0        8.968024   -0.323892   -0.180361
      6          7           0        3.728901   -0.030929   -0.306747
      7          6           0        3.469754   -1.348205   -0.177953
      8          6           0        1.898292   -1.535747   -0.034454
      9          6           0        1.330522   -0.127212   -0.161929
     10          6           0        2.604837    0.702274   -0.274487
     11          6           0        0.293878    0.069252   -1.270551
     12          6           0        1.447300   -2.293967    1.244343
     13          6           0        0.863749   -3.693959    1.035862
     14          6           0       -0.314118   -3.817127    0.105402
     15          8           0       -0.346207   -4.142991   -1.081748
     16          8           0       -1.524954   -3.512845    0.717708
     17          7           0        4.866498    2.904676    0.151445
     18          6           0        3.506793    3.148903    0.061291
     19          6           0        3.303151    4.609512    0.197885
     20          6           0        4.585745    5.270633    0.196604
     21          6           0        5.538626    4.100859    0.234142
     22          6           0        1.922783    5.157160    0.118080
     23          6           0        4.950284    6.762352    0.235767
     24          8           0        6.154284    7.122511    0.102475
     25          6           0        3.866408    7.780259    0.321034
     26          7           0        7.682218    1.713860    0.010465
     27          6           0        7.962135    3.028577    0.021765
     28          6           0        9.457239    3.384828    0.029635
     29          6           0       10.036130    1.939890    0.035961
     30          6           0        8.833879    1.064696   -0.086337
     31          6           0        9.975270    4.209637   -1.208118
     32          6           0       11.042362    1.592288    1.215113
     33          6           0       12.451810    2.114677    1.065404
     34          7           0        6.642914   -0.896678   -0.160728
     35          6           0        7.940861   -1.258849   -0.317404
     36          6           0        7.974503   -2.757273   -0.454469
     37          6           0        6.656341   -3.235580   -0.337360
     38          6           0        5.939250   -2.074803   -0.141056
     39          6           0        9.116008   -3.547464   -0.828930
     40          6           0        5.795750   -4.389952   -0.425901
     41          8           0        6.056699   -5.550527   -0.691741
     42          6           0        4.308258   -3.810130   -0.155887
     43          6           0        3.347222   -4.411011   -1.132218
     44          8           0        3.005743   -3.925616   -2.229069
     45          8           0        2.954689   -5.743663   -0.761249
     46          6           0        2.218801   -6.599181   -1.632878
     47          6           0       -2.753675   -3.540187   -0.058643
     48          6           0       -3.958225   -3.096954    0.742773
     49          6           0       -5.229183   -3.614865    0.850932
     50          6           0       -5.712820   -4.762693    0.047519
     51          6           0       -6.246142   -2.935478    1.717421
     52          6           0       -7.342048   -2.153418    1.083324
     53          6           0       -7.670574   -0.686499    1.591200
     54          6           0       -8.924773   -0.526902    2.496614
     55          6           0       -8.405063   -0.146702    3.949725
     56          6           0       -9.890162    0.608202    1.926509
     57          6           0      -10.506112    0.225483    0.632924
     58          6           0      -12.019648   -0.117986    0.857525
     59          6           0      -12.998433    1.054559    0.662157
     60          6           0      -13.923687    1.236455    1.791571
     61          6           0      -13.905167    0.760107   -0.694376
     62          6           0      -13.896193    2.009612   -1.583902
     63          6           0      -15.038699    1.828827   -2.598805
     64          6           0      -16.064884    2.946218   -2.567043
     65          6           0      -15.457693    4.290232   -2.977338
     66          6           0      -16.914033    3.037955   -1.268651
     67          1           0        1.522885    2.463461   -0.114796
     68          1           0        7.377938    5.115157    0.335029
     69          1           0        9.915769   -0.811429    0.057906
     70          1           0        1.629678   -2.189802   -0.864979
     71          1           0        0.927663    0.108561    0.822237
     72          1           0        0.438304   -0.776045   -1.943326
     73          1           0        0.529216    0.985700   -1.812094
     74          1           0       -0.690700    0.037854   -0.804708
     75          1           0        0.791107   -1.685797    1.868112
     76          1           0        2.338053   -2.418314    1.860111
     77          1           0        0.537601   -3.911804    2.053733
     78          1           0        1.541783   -4.541530    0.934729
     79          1           0        1.757553    5.925901    0.872973
     80          1           0        1.129255    4.478237    0.430044
     81          1           0        1.840307    5.657458   -0.846811
     82          1           0        4.363196    8.749758    0.278341
     83          1           0        3.290378    7.687914    1.241449
     84          1           0        3.216656    7.671491   -0.547354
     85          1           0        9.744128    3.994562    0.886307
     86          1           0       10.554131    1.961419   -0.922857
     87          1           0        9.263626    5.000791   -1.444891
     88          1           0       10.044390    3.634015   -2.131111
     89          1           0       10.964994    4.648316   -1.078588
     90          1           0       10.845084    0.586967    1.585756
     91          1           0       10.664872    2.173697    2.057328
     92          1           0       12.674487    2.436986    0.048907
     93          1           0       13.206188    1.404297    1.403761
     94          1           0       12.550437    2.943402    1.767427
     95          1           0        8.899262   -4.596191   -1.032582
     96          1           0        9.828321   -3.502233   -0.004499
     97          1           0        9.570045   -3.155450   -1.738975
     98          1           0        3.982191   -4.080904    0.848584
     99          1           0        1.925525   -6.153062   -2.583696
    100          1           0        1.331123   -6.866707   -1.058314
    101          1           0        2.796979   -7.484865   -1.893930
    102          1           0       -2.866399   -4.570144   -0.397381
    103          1           0       -2.707688   -2.943128   -0.969574
    104          1           0       -3.657536   -2.258268    1.370479
    105          1           0       -4.857373   -4.984767   -0.589715
    106          1           0       -6.481272   -4.388301   -0.628896
    107          1           0       -5.994851   -5.659495    0.599541
    108          1           0       -5.719321   -2.243055    2.373771
    109          1           0       -6.596483   -3.647491    2.464512
    110          1           0       -8.236260   -2.774010    1.043440
    111          1           0       -6.961730   -2.068894    0.064923
    112          1           0       -7.808461   -0.114240    0.674499
    113          1           0       -6.760779   -0.261799    2.014879
    114          1           0       -9.519278   -1.389641    2.794272
    115          1           0       -8.611994   -0.909592    4.699465
    116          1           0       -8.844113    0.788278    4.298179
    117          1           0       -7.334245    0.057341    3.912645
    118          1           0       -9.212766    1.459677    1.867960
    119          1           0      -10.762902    0.909746    2.507569
    120          1           0      -10.085590   -0.652890    0.142176
    121          1           0      -10.390566    1.003844   -0.120346
    122          1           0      -12.016529   -0.585821    1.841770
    123          1           0      -12.343464   -0.998510    0.301581
    124          1           0      -12.341520    1.912944    0.524769
    125          1           0      -14.008669    2.313711    1.933093
    126          1           0      -13.521586    0.799638    2.706380
    127          1           0      -14.974739    0.954297    1.734325
    128          1           0      -14.911038    0.391658   -0.493702
    129          1           0      -13.578722   -0.187537   -1.124616
    130          1           0      -12.934412    2.057811   -2.096167
    131          1           0      -13.963582    2.905701   -0.968446
    132          1           0      -15.672841    0.950812   -2.475459
    133          1           0      -14.575937    1.746601   -3.582908
    134          1           0      -16.714664    2.715963   -3.410492
    135          1           0      -15.048526    4.879089   -2.156193
    136          1           0      -16.385416    4.787684   -3.261593
    137          1           0      -14.607223    4.051422   -3.614911
    138          1           0      -16.592413    2.370969   -0.469519
    139          1           0      -17.929081    2.710219   -1.492076
    140          1           0      -16.997755    4.071630   -0.931986
 ---------------------------------------------------------------------

 SCF Done:  E(RPBE1PBE) =  -3005.32642975     A.U. after   15 cycles

 Excitation energies and oscillator strengths:

 Excited State   1:      Singlet-A      1.8474 eV  671.14 nm  f=0.3721  <S**2>=0.000
     245 -> 248       -0.17572
     246 -> 247        0.68687
     246 <- 247       -0.10218
 This state for optimization and/or second-order correction.
 Total Energy, E(TD-HF/TD-DFT) =  -3005.25854042
 Copying the excited state density for this state as the 1-particle RhoCI density.

 Excited State   2:      Singlet-A      2.1515 eV  576.27 nm  f=0.0973  <S**2>=0.000
     245 -> 247        0.65223
     246 -> 248        0.24350
     246 -> 249       -0.10233

 Excited State   3:      Singlet-A      3.1212 eV  397.24 nm  f=0.2136  <S**2>=0.000
     244 -> 247       -0.18372
     245 -> 247       -0.18327
     245 -> 250       -0.11204
     246 -> 248        0.60244
     246 -> 249        0.19515

 Excited State   4:      Singlet-A      3.1735 eV  390.69 nm  f=0.0226  <S**2>=0.000
     244 -> 247        0.66472
     246 -> 248        0.13650

 Excited State   5:      Singlet-A      3.2587 eV  380.47 nm  f=0.0021  <S**2>=0.000
     240 -> 247        0.44281
     240 -> 248        0.13772
     240 -> 249        0.10401
     240 -> 250        0.11648
     241 -> 247        0.45172
     241 -> 248        0.12022
     241 -> 250        0.10166

 The electronic state is 1-A.
 Alpha  occ. eigenvalues --  -46.92790 -19.25051 -19.23972 -19.20282 -19.20170
 Alpha  occ. eigenvalues --  -19.19853 -19.19364 -14.41975 -14.41155 -14.39365
 Alpha  occ. eigenvalues --  -14.39278 -10.36862 -10.36722 -10.33420 -10.33043
 Alpha  occ. eigenvalues --  -10.29281 -10.29236 -10.28824 -10.28237 -10.28180
 Alpha  occ. eigenvalues --  -10.28122 -10.27926 -10.27489 -10.27002 -10.26962
 Alpha  occ. eigenvalues --  -10.26836 -10.26759 -10.25974 -10.25890 -10.25800
 Alpha  occ. eigenvalues --  -10.25738 -10.25589 -10.25490 -10.25128 -10.25102
 Alpha  occ. eigenvalues --  -10.25009 -10.24906 -10.24468 -10.24429 -10.24335
 Alpha  occ. eigenvalues --  -10.24220 -10.24199 -10.23926 -10.23913 -10.23884
 Alpha  occ. eigenvalues --  -10.23509 -10.23304 -10.23260 -10.23144 -10.23102
 Alpha  occ. eigenvalues --  -10.23101 -10.23093 -10.22930 -10.22749 -10.22711
 Alpha  occ. eigenvalues --  -10.22501 -10.22450 -10.22435 -10.22351 -10.21971
 Alpha  occ. eigenvalues --  -10.21951 -10.21774 -10.21735 -10.21734 -10.21475
 Alpha  occ. eigenvalues --  -10.21177  -3.14869  -1.87710  -1.87248  -1.87093
 Alpha  occ. eigenvalues --   -1.10588  -1.08103  -1.05406  -1.02804  -1.01627
 Alpha  occ. eigenvalues --   -1.00759  -1.00485  -0.98800  -0.98070  -0.96276
 Alpha  occ. eigenvalues --   -0.87244  -0.85034  -0.84394  -0.84043  -0.83390
 Alpha  occ. eigenvalues --   -0.83151  -0.82367  -0.81941  -0.81476  -0.81248
 Alpha  occ. eigenvalues --   -0.81026  -0.79941  -0.78707  -0.78117  -0.77409
 Alpha  occ. eigenvalues --   -0.76788  -0.76623  -0.75842  -0.75385  -0.74604
 Alpha  occ. eigenvalues --   -0.73861  -0.72652  -0.72167  -0.71639  -0.70157
 Alpha  occ. eigenvalues --   -0.69960  -0.69669  -0.69408  -0.68897  -0.68023
 Alpha  occ. eigenvalues --   -0.67543  -0.66518  -0.65860  -0.65095  -0.63753
 Alpha  occ. eigenvalues --   -0.63312  -0.62624  -0.61594  -0.61312  -0.60453
 Alpha  occ. eigenvalues --   -0.60274  -0.60051  -0.59172  -0.58721  -0.58517
 Alpha  occ. eigenvalues --   -0.57918  -0.57214  -0.55808  -0.55013  -0.54895
 Alpha  occ. eigenvalues --   -0.54797  -0.54152  -0.53605  -0.53176  -0.52860
 Alpha  occ. eigenvalues --   -0.52011  -0.51043  -0.50860  -0.50392  -0.50207
 Alpha  occ. eigenvalues --   -0.49540  -0.49324  -0.49012  -0.48757  -0.48557
 Alpha  occ. eigenvalues --   -0.48187  -0.47812  -0.47511  -0.47320  -0.47171
 Alpha  occ. eigenvalues --   -0.46947  -0.46818  -0.46727  -0.46612  -0.46525
 Alpha  occ. eigenvalues --   -0.46240  -0.45903  -0.45735  -0.45565  -0.45220
 Alpha  occ. eigenvalues --   -0.45066  -0.44843  -0.44602  -0.44453  -0.44269
 Alpha  occ. eigenvalues --   -0.44132  -0.43872  -0.43841  -0.43716  -0.43553
 Alpha  occ. eigenvalues --   -0.43318  -0.42845  -0.42753  -0.42494  -0.42243
 Alpha  occ. eigenvalues --   -0.42172  -0.42030  -0.41984  -0.41527  -0.41307
 Alpha  occ. eigenvalues --   -0.41144  -0.40846  -0.40666  -0.40342  -0.40194
 Alpha  occ. eigenvalues --   -0.40140  -0.39961  -0.39837  -0.39588  -0.39564
 Alpha  occ. eigenvalues --   -0.39344  -0.39270  -0.38989  -0.38891  -0.38774
 Alpha  occ. eigenvalues --   -0.38741  -0.38411  -0.38216  -0.38202  -0.37971
 Alpha  occ. eigenvalues --   -0.37822  -0.37431  -0.36953  -0.36764  -0.36688
 Alpha  occ. eigenvalues --   -0.36510  -0.36437  -0.36232  -0.36145  -0.36032
 Alpha  occ. eigenvalues --   -0.35986  -0.35553  -0.35037  -0.34857  -0.34704
 Alpha  occ. eigenvalues --   -0.34563  -0.34489  -0.33816  -0.33660  -0.33391
 Alpha  occ. eigenvalues --   -0.33088  -0.32959  -0.32764  -0.31945  -0.31837
 Alpha  occ. eigenvalues --   -0.31792  -0.31634  -0.31331  -0.31233  -0.31151
 Alpha  occ. eigenvalues --   -0.30560  -0.30215  -0.29906  -0.29502  -0.28996
 Alpha  occ. eigenvalues --   -0.28606  -0.28234  -0.27672  -0.26672  -0.26340
 Alpha  occ. eigenvalues --   -0.26129  -0.25772  -0.25338  -0.25266  -0.20361
 Alpha  occ. eigenvalues --   -0.18438
 Alpha virt. eigenvalues --   -0.10824  -0.05555  -0.04243  -0.02880  -0.00686
 Alpha virt. eigenvalues --   -0.00453  -0.00282   0.00631   0.01616   0.02390
 Alpha virt. eigenvalues --    0.03796   0.04167   0.05517   0.05563   0.05996

 Mulliken charges:
               1
     1  Mg   0.989117
     2  C   -0.039620
     3  C   -0.040065
     4  C   -0.053353
     5  C   -0.108846
     6  N   -0.333360
     7  C    0.036834
     8  C   -0.117845
     9  C   -0.130287
    10  C    0.046694
    11  C    0.043893
    12  C    0.020108
    13  C   -0.026630
    14  C    0.238921
    15  O   -0.269009
    16  O   -0.386648
    17  N   -0.469314
    18  C    0.132743
    19  C   -0.181149
    20  C   -0.067118
    21  C    0.119424
    22  C    0.049985
    23  C    0.063022
    24  O   -0.273209
    25  C   -0.016731
    26  N   -0.405138
    27  C    0.099163
    28  C   -0.156383
    29  C   -0.037108
    30  C    0.090067
    31  C   -0.013001
    32  C   -0.033896
    33  C   -0.046269
    34  N   -0.478670
    35  C    0.143680
    36  C   -0.209069
    37  C   -0.012875
    38  C    0.160461
    39  C    0.047963
    40  C    0.159046
    41  O   -0.191295
    42  C   -0.131385
    43  C    0.302017
    44  O   -0.253022
    45  O   -0.403734
    46  C    0.134651
    47  C    0.241064
    48  C   -0.126955
    49  C   -0.247535
    50  C    0.052550
    51  C    0.046789
    52  C   -0.052596
    53  C    0.017301
    54  C   -0.203916
    55  C   -0.016825
    56  C   -0.015998
    57  C   -0.044814
    58  C   -0.030394
    59  C   -0.183006
    60  C    0.015576
    61  C   -0.025915
    62  C   -0.024712
    63  C   -0.020526
    64  C   -0.247670
    65  C   -0.015077
    66  C   -0.015428
    67  H   -0.009742
    68  H    0.029504
    69  H    0.014093
    70  H    0.087828
    71  H    0.043074
    72  H    0.056361
    73  H    0.047574
    74  H    0.046315
    75  H    0.046061
    76  H    0.038995
    77  H    0.050291
    78  H    0.076595
    79  H    0.031956
    80  H    0.048885
    81  H    0.071713
    82  H    0.059116
    83  H    0.070713
    84  H    0.064702
    85  H    0.055821
    86  H    0.043257
    87  H    0.053516
    88  H    0.035551
    89  H    0.048834
    90  H    0.036888
    91  H    0.028285
    92  H    0.047627
    93  H    0.045009
    94  H    0.041266
    95  H    0.057371
    96  H    0.049031
    97  H    0.057618
    98  H    0.083782
    99  H    0.064301
   100  H    0.046367
   101  H    0.052227
   102  H    0.041771
   103  H    0.059432
   104  H    0.022995
   105  H    0.017939
   106  H    0.049527
   107  H    0.060601
   108  H    0.006372
   109  H    0.027724
   110  H    0.035170
   111  H    0.029408
   112  H    0.031894
   113  H    0.027493
   114  H    0.036700
   115  H    0.038836
   116  H    0.025910
   117  H    0.022455
   118  H    0.022542
   119  H    0.035507
   120  H    0.028223
   121  H    0.024953
   122  H    0.007293
   123  H    0.009403
   124  H    0.035684
   125  H    0.021804
   126  H    0.027812
   127  H    0.035276
   128  H    0.016566
   129  H    0.017828
   130  H    0.033435
   131  H    0.039928
   132  H    0.030149
   133  H    0.023949
   134  H    0.029041
   135  H    0.027266
   136  H    0.043980
   137  H    0.035377
   138  H    0.041186
   139  H    0.030859
   140  H    0.032255
 Sum of Mulliken charges =  -0.00000

 Dipole moment (field-independent basis, Debye):
    X=             -2.7881    Y=              2.4998    Z=              4.0461  Tot=              5.5131
 Quadrupole moment (field-independent basis, Debye-Ang):
   XX=           -356.4631   YY=           -423.7237   ZZ=           -408.9569
   XY=             11.6613   XZ=             15.4027   YZ=             -7.4833

 Normal termination of Gaussian 16 at Wed May  4 15:05:23 2022.
