 Gaussian 16, Revision A.03,
 Gaussian 16:  ES64L-G16RevA.03 25-Dec-2016

 --------------------------------
 #p wB97XD/Def2SVP td=(nstates=5)
 --------------------------------

 ----------------------------------------------------
 step_1851_chromophore_3 TDDFT with wB97XD functional
 ----------------------------------------------------
 Symbolic Z-matrix:
 Charge =  0 Multiplicity = 1

                         Standard orientation:
 ---------------------------------------------------------------------
 Center     Atomic      Atomic             Coordinates (Angstroms)
 Number     Number       Type             X           Y           Z
 ---------------------------------------------------------------------
      1         12           0        5.802071    0.961790    0.120063
      2          6           0        4.509561   -2.322086   -0.185215
      3          6           0        2.544115    2.079464   -0.167459
      4          6           0        6.970805    4.107512    0.225196
      5          6           0        8.968024   -0.323892   -0.180361
      6          7           0        3.728901   -0.030929   -0.306747
      7          6           0        3.469754   -1.348205   -0.177953
      8          6           0        1.898292   -1.535747   -0.034454
      9          6           0        1.330522   -0.127212   -0.161929
     10          6           0        2.604837    0.702274   -0.274487
     11          6           0        0.293878    0.069252   -1.270551
     12          6           0        1.447300   -2.293967    1.244343
     13          6           0        0.863749   -3.693959    1.035862
     14          6           0       -0.314118   -3.817127    0.105402
     15          8           0       -0.346207   -4.142991   -1.081748
     16          8           0       -1.524954   -3.512845    0.717708
     17          7           0        4.866498    2.904676    0.151445
     18          6           0        3.506793    3.148903    0.061291
     19          6           0        3.303151    4.609512    0.197885
     20          6           0        4.585745    5.270633    0.196604
     21          6           0        5.538626    4.100859    0.234142
     22          6           0        1.922783    5.157160    0.118080
     23          6           0        4.950284    6.762352    0.235767
     24          8           0        6.154284    7.122511    0.102475
     25          6           0        3.866408    7.780259    0.321034
     26          7           0        7.682218    1.713860    0.010465
     27          6           0        7.962135    3.028577    0.021765
     28          6           0        9.457239    3.384828    0.029635
     29          6           0       10.036130    1.939890    0.035961
     30          6           0        8.833879    1.064696   -0.086337
     31          6           0        9.975270    4.209637   -1.208118
     32          6           0       11.042362    1.592288    1.215113
     33          6           0       12.451810    2.114677    1.065404
     34          7           0        6.642914   -0.896678   -0.160728
     35          6           0        7.940861   -1.258849   -0.317404
     36          6           0        7.974503   -2.757273   -0.454469
     37          6           0        6.656341   -3.235580   -0.337360
     38          6           0        5.939250   -2.074803   -0.141056
     39          6           0        9.116008   -3.547464   -0.828930
     40          6           0        5.795750   -4.389952   -0.425901
     41          8           0        6.056699   -5.550527   -0.691741
     42          6           0        4.308258   -3.810130   -0.155887
     43          6           0        3.347222   -4.411011   -1.132218
     44          8           0        3.005743   -3.925616   -2.229069
     45          8           0        2.954689   -5.743663   -0.761249
     46          6           0        2.218801   -6.599181   -1.632878
     47          6           0       -2.753675   -3.540187   -0.058643
     48          6           0       -3.958225   -3.096954    0.742773
     49          6           0       -5.229183   -3.614865    0.850932
     50          6           0       -5.712820   -4.762693    0.047519
     51          6           0       -6.246142   -2.935478    1.717421
     52          6           0       -7.342048   -2.153418    1.083324
     53          6           0       -7.670574   -0.686499    1.591200
     54          6           0       -8.924773   -0.526902    2.496614
     55          6           0       -8.405063   -0.146702    3.949725
     56          6           0       -9.890162    0.608202    1.926509
     57          6           0      -10.506112    0.225483    0.632924
     58          6           0      -12.019648   -0.117986    0.857525
     59          6           0      -12.998433    1.054559    0.662157
     60          6           0      -13.923687    1.236455    1.791571
     61          6           0      -13.905167    0.760107   -0.694376
     62          6           0      -13.896193    2.009612   -1.583902
     63          6           0      -15.038699    1.828827   -2.598805
     64          6           0      -16.064884    2.946218   -2.567043
     65          6           0      -15.457693    4.290232   -2.977338
     66          6           0      -16.914033    3.037955   -1.268651
     67          1           0        1.522885    2.463461   -0.114796
     68          1           0        7.377938    5.115157    0.335029
     69          1           0        9.915769   -0.811429    0.057906
     70          1           0        1.629678   -2.189802   -0.864979
     71          1           0        0.927663    0.108561    0.822237
     72          1           0        0.438304   -0.776045   -1.943326
     73          1           0        0.529216    0.985700   -1.812094
     74          1           0       -0.690700    0.037854   -0.804708
     75          1           0        0.791107   -1.685797    1.868112
     76          1           0        2.338053   -2.418314    1.860111
     77          1           0        0.537601   -3.911804    2.053733
     78          1           0        1.541783   -4.541530    0.934729
     79          1           0        1.757553    5.925901    0.872973
     80          1           0        1.129255    4.478237    0.430044
     81          1           0        1.840307    5.657458   -0.846811
     82          1           0        4.363196    8.749758    0.278341
     83          1           0        3.290378    7.687914    1.241449
     84          1           0        3.216656    7.671491   -0.547354
     85          1           0        9.744128    3.994562    0.886307
     86          1           0       10.554131    1.961419   -0.922857
     87          1           0        9.263626    5.000791   -1.444891
     88          1           0       10.044390    3.634015   -2.131111
     89          1           0       10.964994    4.648316   -1.078588
     90          1           0       10.845084    0.586967    1.585756
     91          1           0       10.664872    2.173697    2.057328
     92          1           0       12.674487    2.436986    0.048907
     93          1           0       13.206188    1.404297    1.403761
     94          1           0       12.550437    2.943402    1.767427
     95          1           0        8.899262   -4.596191   -1.032582
     96          1           0        9.828321   -3.502233   -0.004499
     97          1           0        9.570045   -3.155450   -1.738975
     98          1           0        3.982191   -4.080904    0.848584
     99          1           0        1.925525   -6.153062   -2.583696
    100          1           0        1.331123   -6.866707   -1.058314
    101          1           0        2.796979   -7.484865   -1.893930
    102          1           0       -2.866399   -4.570144   -0.397381
    103          1           0       -2.707688   -2.943128   -0.969574
    104          1           0       -3.657536   -2.258268    1.370479
    105          1           0       -4.857373   -4.984767   -0.589715
    106          1           0       -6.481272   -4.388301   -0.628896
    107          1           0       -5.994851   -5.659495    0.599541
    108          1           0       -5.719321   -2.243055    2.373771
    109          1           0       -6.596483   -3.647491    2.464512
    110          1           0       -8.236260   -2.774010    1.043440
    111          1           0       -6.961730   -2.068894    0.064923
    112          1           0       -7.808461   -0.114240    0.674499
    113          1           0       -6.760779   -0.261799    2.014879
    114          1           0       -9.519278   -1.389641    2.794272
    115          1           0       -8.611994   -0.909592    4.699465
    116          1           0       -8.844113    0.788278    4.298179
    117          1           0       -7.334245    0.057341    3.912645
    118          1           0       -9.212766    1.459677    1.867960
    119          1           0      -10.762902    0.909746    2.507569
    120          1           0      -10.085590   -0.652890    0.142176
    121          1           0      -10.390566    1.003844   -0.120346
    122          1           0      -12.016529   -0.585821    1.841770
    123          1           0      -12.343464   -0.998510    0.301581
    124          1           0      -12.341520    1.912944    0.524769
    125          1           0      -14.008669    2.313711    1.933093
    126          1           0      -13.521586    0.799638    2.706380
    127          1           0      -14.974739    0.954297    1.734325
    128          1           0      -14.911038    0.391658   -0.493702
    129          1           0      -13.578722   -0.187537   -1.124616
    130          1           0      -12.934412    2.057811   -2.096167
    131          1           0      -13.963582    2.905701   -0.968446
    132          1           0      -15.672841    0.950812   -2.475459
    133          1           0      -14.575937    1.746601   -3.582908
    134          1           0      -16.714664    2.715963   -3.410492
    135          1           0      -15.048526    4.879089   -2.156193
    136          1           0      -16.385416    4.787684   -3.261593
    137          1           0      -14.607223    4.051422   -3.614911
    138          1           0      -16.592413    2.370969   -0.469519
    139          1           0      -17.929081    2.710219   -1.492076
    140          1           0      -16.997755    4.071630   -0.931986
 ---------------------------------------------------------------------

 SCF Done:  E(RwB97XD) =  -3007.83359578     A.U. after   17 cycles

 Excitation energies and oscillator strengths:

 Excited State   1:      Singlet-A      1.6384 eV  756.74 nm  f=0.3805  <S**2>=0.000
     245 -> 248       -0.19753
     246 -> 247        0.67747
     245 <- 248       -0.11620
 This state for optimization and/or second-order correction.
 Total Energy, E(TD-HF/TD-DFT) =  -3007.77338573
 Copying the excited state density for this state as the 1-particle RhoCI density.

 Excited State   2:      Singlet-A      2.0952 eV  591.74 nm  f=0.0972  <S**2>=0.000
     245 -> 247        0.63540
     246 -> 248        0.29172

 Excited State   3:      Singlet-A      3.3928 eV  365.43 nm  f=0.5654  <S**2>=0.000
     242 -> 247       -0.12515
     244 -> 247       -0.16162
     245 -> 247       -0.26961
     246 -> 248        0.61046
     245 <- 247        0.11371

 Excited State   4:      Singlet-A      3.5489 eV  349.36 nm  f=0.0489  <S**2>=0.000
     242 -> 247       -0.10090
     244 -> 247        0.66057
     246 -> 248        0.12453

 Excited State   5:      Singlet-A      3.6902 eV  335.98 nm  f=0.0098  <S**2>=0.000
     239 -> 247        0.11413
     240 -> 247        0.42827
     240 -> 248        0.23440
     240 -> 249        0.29638
     240 -> 250       -0.28967
     241 -> 247        0.13311

 The electronic state is 1-A.
 Alpha  occ. eigenvalues --  -46.95709 -19.29602 -19.28532 -19.25100 -19.24828
 Alpha  occ. eigenvalues --  -19.24601 -19.24237 -14.47060 -14.46250 -14.44323
 Alpha  occ. eigenvalues --  -14.44183 -10.43641 -10.43608 -10.40298 -10.39952
 Alpha  occ. eigenvalues --  -10.35768 -10.35536 -10.35091 -10.34563 -10.34489
 Alpha  occ. eigenvalues --  -10.34470 -10.34255 -10.33730 -10.33486 -10.33397
 Alpha  occ. eigenvalues --  -10.33246 -10.33202 -10.32394 -10.32230 -10.32192
 Alpha  occ. eigenvalues --  -10.31952 -10.31936 -10.31933 -10.31488 -10.31354
 Alpha  occ. eigenvalues --  -10.31175 -10.31149 -10.30995 -10.30894 -10.30609
 Alpha  occ. eigenvalues --  -10.30588 -10.30561 -10.30482 -10.30313 -10.30277
 Alpha  occ. eigenvalues --  -10.29876 -10.29648 -10.29560 -10.29546 -10.29514
 Alpha  occ. eigenvalues --  -10.29491 -10.29390 -10.29319 -10.29165 -10.28988
 Alpha  occ. eigenvalues --  -10.28858 -10.28850 -10.28810 -10.28747 -10.28406
 Alpha  occ. eigenvalues --  -10.28327 -10.28190 -10.28092 -10.28074 -10.27908
 Alpha  occ. eigenvalues --  -10.27623  -3.21660  -1.95248  -1.94785  -1.94629
 Alpha  occ. eigenvalues --   -1.17953  -1.15538  -1.12891  -1.10377  -1.08963
 Alpha  occ. eigenvalues --   -1.08157  -1.07828  -1.06161  -1.05408  -1.03675
 Alpha  occ. eigenvalues --   -0.94857  -0.92712  -0.92033  -0.91714  -0.90929
 Alpha  occ. eigenvalues --   -0.90820  -0.89982  -0.89590  -0.89141  -0.88891
 Alpha  occ. eigenvalues --   -0.88669  -0.87583  -0.86371  -0.85710  -0.85102
 Alpha  occ. eigenvalues --   -0.84475  -0.84314  -0.83502  -0.83027  -0.82257
 Alpha  occ. eigenvalues --   -0.81470  -0.80299  -0.79825  -0.79231  -0.77842
 Alpha  occ. eigenvalues --   -0.77556  -0.77375  -0.76966  -0.76577  -0.75686
 Alpha  occ. eigenvalues --   -0.75151  -0.74059  -0.73406  -0.72690  -0.71286
 Alpha  occ. eigenvalues --   -0.70826  -0.70286  -0.69194  -0.68945  -0.68071
 Alpha  occ. eigenvalues --   -0.67768  -0.67568  -0.66621  -0.66396  -0.65955
 Alpha  occ. eigenvalues --   -0.65390  -0.64865  -0.63228  -0.62606  -0.62412
 Alpha  occ. eigenvalues --   -0.62237  -0.61566  -0.61038  -0.60528  -0.60239
 Alpha  occ. eigenvalues --   -0.59578  -0.58506  -0.58251  -0.57861  -0.57597
 Alpha  occ. eigenvalues --   -0.56932  -0.56760  -0.56433  -0.56279  -0.55950
 Alpha  occ. eigenvalues --   -0.55551  -0.55187  -0.54946  -0.54869  -0.54557
 Alpha  occ. eigenvalues --   -0.54334  -0.54165  -0.54125  -0.54004  -0.53845
 Alpha  occ. eigenvalues --   -0.53597  -0.53261  -0.53094  -0.52928  -0.52647
 Alpha  occ. eigenvalues --   -0.52403  -0.52150  -0.51913  -0.51763  -0.51560
 Alpha  occ. eigenvalues --   -0.51469  -0.51189  -0.51154  -0.51011  -0.50847
 Alpha  occ. eigenvalues --   -0.50610  -0.50148  -0.50056  -0.49738  -0.49491
 Alpha  occ. eigenvalues --   -0.49411  -0.49333  -0.49306  -0.48852  -0.48592
 Alpha  occ. eigenvalues --   -0.48390  -0.48076  -0.47865  -0.47490  -0.47391
 Alpha  occ. eigenvalues --   -0.47328  -0.47144  -0.47057  -0.46767  -0.46691
 Alpha  occ. eigenvalues --   -0.46539  -0.46421  -0.46168  -0.46058  -0.45957
 Alpha  occ. eigenvalues --   -0.45877  -0.45549  -0.45421  -0.45372  -0.45053
 Alpha  occ. eigenvalues --   -0.44913  -0.44423  -0.44108  -0.43840  -0.43820
 Alpha  occ. eigenvalues --   -0.43658  -0.43560  -0.43312  -0.43264  -0.43106
 Alpha  occ. eigenvalues --   -0.43001  -0.42633  -0.41989  -0.41914  -0.41788
 Alpha  occ. eigenvalues --   -0.41647  -0.41422  -0.40842  -0.40766  -0.40427
 Alpha  occ. eigenvalues --   -0.40046  -0.40012  -0.39684  -0.38969  -0.38813
 Alpha  occ. eigenvalues --   -0.38697  -0.38654  -0.38371  -0.38251  -0.38149
 Alpha  occ. eigenvalues --   -0.37567  -0.37201  -0.36787  -0.36470  -0.36044
 Alpha  occ. eigenvalues --   -0.35490  -0.35267  -0.34513  -0.33682  -0.33532
 Alpha  occ. eigenvalues --   -0.32786  -0.32288  -0.32053  -0.31832  -0.25303
 Alpha  occ. eigenvalues --   -0.22604
 Alpha virt. eigenvalues --   -0.06696  -0.00078   0.01916   0.03545   0.05343
 Alpha virt. eigenvalues --    0.06265   0.06455   0.07314   0.08315   0.09013
 Alpha virt. eigenvalues --    0.09952   0.11013   0.12276   0.12310   0.12821

 Mulliken charges:
               1
     1  Mg   0.979180
     2  C   -0.037442
     3  C   -0.051488
     4  C   -0.068575
     5  C   -0.125863
     6  N   -0.297445
     7  C    0.003052
     8  C   -0.090372
     9  C   -0.101323
    10  C    0.033450
    11  C    0.053938
    12  C    0.029529
    13  C   -0.005167
    14  C    0.224154
    15  O   -0.263575
    16  O   -0.385177
    17  N   -0.439343
    18  C    0.119285
    19  C   -0.165179
    20  C   -0.065824
    21  C    0.111831
    22  C    0.060326
    23  C    0.062026
    24  O   -0.267159
    25  C   -0.007946
    26  N   -0.370161
    27  C    0.085581
    28  C   -0.133917
    29  C   -0.012548
    30  C    0.080102
    31  C   -0.002226
    32  C   -0.015378
    33  C   -0.031972
    34  N   -0.443350
    35  C    0.129423
    36  C   -0.196561
    37  C   -0.014682
    38  C    0.146937
    39  C    0.054610
    40  C    0.141445
    41  O   -0.181502
    42  C   -0.097033
    43  C    0.280818
    44  O   -0.244968
    45  O   -0.401463
    46  C    0.148105
    47  C    0.254881
    48  C   -0.137125
    49  C   -0.229060
    50  C    0.066115
    51  C    0.061878
    52  C   -0.035724
    53  C    0.032697
    54  C   -0.179108
    55  C   -0.005443
    56  C    0.007782
    57  C   -0.033077
    58  C   -0.010022
    59  C   -0.153020
    60  C    0.024504
    61  C   -0.010966
    62  C   -0.009107
    63  C   -0.003350
    64  C   -0.216190
    65  C   -0.004306
    66  C   -0.005000
    67  H   -0.020169
    68  H    0.023776
    69  H    0.008407
    70  H    0.065933
    71  H    0.030853
    72  H    0.051796
    73  H    0.041526
    74  H    0.041578
    75  H    0.040083
    76  H    0.030224
    77  H    0.045451
    78  H    0.067054
    79  H    0.025536
    80  H    0.046369
    81  H    0.067161
    82  H    0.058299
    83  H    0.066513
    84  H    0.059660
    85  H    0.047261
    86  H    0.028340
    87  H    0.047329
    88  H    0.029387
    89  H    0.043448
    90  H    0.029037
    91  H    0.017855
    92  H    0.041227
    93  H    0.039829
    94  H    0.035384
    95  H    0.054603
    96  H    0.043430
    97  H    0.052597
    98  H    0.074962
    99  H    0.061187
   100  H    0.042193
   101  H    0.048247
   102  H    0.035074
   103  H    0.054963
   104  H    0.020092
   105  H    0.009817
   106  H    0.043431
   107  H    0.056912
   108  H   -0.004545
   109  H    0.020816
   110  H    0.027456
   111  H    0.018623
   112  H    0.022896
   113  H    0.018275
   114  H    0.026229
   115  H    0.034119
   116  H    0.020140
   117  H    0.015003
   118  H    0.013283
   119  H    0.022410
   120  H    0.018180
   121  H    0.016725
   122  H   -0.005642
   123  H    0.000930
   124  H    0.022715
   125  H    0.015877
   126  H    0.021596
   127  H    0.029845
   128  H    0.005043
   129  H    0.009060
   130  H    0.025739
   131  H    0.028212
   132  H    0.020308
   133  H    0.016304
   134  H    0.018628
   135  H    0.020432
   136  H    0.038076
   137  H    0.029298
   138  H    0.032080
   139  H    0.025761
   140  H    0.026966
 Sum of Mulliken charges =  -0.00000

 Dipole moment (field-independent basis, Debye):
    X=             -2.9624    Y=              2.6545    Z=              4.1127  Tot=              5.7216
 Quadrupole moment (field-independent basis, Debye-Ang):
   XX=           -358.6066   YY=           -421.4809   ZZ=           -408.6246
   XY=             11.7307   XZ=             15.4722   YZ=             -7.4756

 Normal termination of Gaussian 16 at Wed May  4 15:41:45 2022.
