 Gaussian 16, Revision A.03,
 Gaussian 16:  ES64L-G16RevA.03 25-Dec-2016

 --------------------
 #p ZINDO=(nstates=5)
 --------------------

 -----------------------------
 step_1851_chromophore_3 ZINDO
 -----------------------------
 Symbolic Z-matrix:
 Charge =  0 Multiplicity = 1

                         Standard orientation:
 ---------------------------------------------------------------------
 Center     Atomic      Atomic             Coordinates (Angstroms)
 Number     Number       Type             X           Y           Z
 ---------------------------------------------------------------------
      1         12           0        5.802071    0.961790    0.120063
      2          6           0        4.509561   -2.322086   -0.185215
      3          6           0        2.544115    2.079464   -0.167459
      4          6           0        6.970805    4.107512    0.225196
      5          6           0        8.968024   -0.323892   -0.180361
      6          7           0        3.728901   -0.030929   -0.306747
      7          6           0        3.469754   -1.348205   -0.177953
      8          6           0        1.898292   -1.535747   -0.034454
      9          6           0        1.330522   -0.127212   -0.161929
     10          6           0        2.604837    0.702274   -0.274487
     11          6           0        0.293878    0.069252   -1.270551
     12          6           0        1.447300   -2.293967    1.244343
     13          6           0        0.863749   -3.693959    1.035862
     14          6           0       -0.314118   -3.817127    0.105402
     15          8           0       -0.346207   -4.142991   -1.081748
     16          8           0       -1.524954   -3.512845    0.717708
     17          7           0        4.866498    2.904676    0.151445
     18          6           0        3.506793    3.148903    0.061291
     19          6           0        3.303151    4.609512    0.197885
     20          6           0        4.585745    5.270633    0.196604
     21          6           0        5.538626    4.100859    0.234142
     22          6           0        1.922783    5.157160    0.118080
     23          6           0        4.950284    6.762352    0.235767
     24          8           0        6.154284    7.122511    0.102475
     25          6           0        3.866408    7.780259    0.321034
     26          7           0        7.682218    1.713860    0.010465
     27          6           0        7.962135    3.028577    0.021765
     28          6           0        9.457239    3.384828    0.029635
     29          6           0       10.036130    1.939890    0.035961
     30          6           0        8.833879    1.064696   -0.086337
     31          6           0        9.975270    4.209637   -1.208118
     32          6           0       11.042362    1.592288    1.215113
     33          6           0       12.451810    2.114677    1.065404
     34          7           0        6.642914   -0.896678   -0.160728
     35          6           0        7.940861   -1.258849   -0.317404
     36          6           0        7.974503   -2.757273   -0.454469
     37          6           0        6.656341   -3.235580   -0.337360
     38          6           0        5.939250   -2.074803   -0.141056
     39          6           0        9.116008   -3.547464   -0.828930
     40          6           0        5.795750   -4.389952   -0.425901
     41          8           0        6.056699   -5.550527   -0.691741
     42          6           0        4.308258   -3.810130   -0.155887
     43          6           0        3.347222   -4.411011   -1.132218
     44          8           0        3.005743   -3.925616   -2.229069
     45          8           0        2.954689   -5.743663   -0.761249
     46          6           0        2.218801   -6.599181   -1.632878
     47          6           0       -2.753675   -3.540187   -0.058643
     48          6           0       -3.958225   -3.096954    0.742773
     49          6           0       -5.229183   -3.614865    0.850932
     50          6           0       -5.712820   -4.762693    0.047519
     51          6           0       -6.246142   -2.935478    1.717421
     52          6           0       -7.342048   -2.153418    1.083324
     53          6           0       -7.670574   -0.686499    1.591200
     54          6           0       -8.924773   -0.526902    2.496614
     55          6           0       -8.405063   -0.146702    3.949725
     56          6           0       -9.890162    0.608202    1.926509
     57          6           0      -10.506112    0.225483    0.632924
     58          6           0      -12.019648   -0.117986    0.857525
     59          6           0      -12.998433    1.054559    0.662157
     60          6           0      -13.923687    1.236455    1.791571
     61          6           0      -13.905167    0.760107   -0.694376
     62          6           0      -13.896193    2.009612   -1.583902
     63          6           0      -15.038699    1.828827   -2.598805
     64          6           0      -16.064884    2.946218   -2.567043
     65          6           0      -15.457693    4.290232   -2.977338
     66          6           0      -16.914033    3.037955   -1.268651
     67          1           0        1.522885    2.463461   -0.114796
     68          1           0        7.377938    5.115157    0.335029
     69          1           0        9.915769   -0.811429    0.057906
     70          1           0        1.629678   -2.189802   -0.864979
     71          1           0        0.927663    0.108561    0.822237
     72          1           0        0.438304   -0.776045   -1.943326
     73          1           0        0.529216    0.985700   -1.812094
     74          1           0       -0.690700    0.037854   -0.804708
     75          1           0        0.791107   -1.685797    1.868112
     76          1           0        2.338053   -2.418314    1.860111
     77          1           0        0.537601   -3.911804    2.053733
     78          1           0        1.541783   -4.541530    0.934729
     79          1           0        1.757553    5.925901    0.872973
     80          1           0        1.129255    4.478237    0.430044
     81          1           0        1.840307    5.657458   -0.846811
     82          1           0        4.363196    8.749758    0.278341
     83          1           0        3.290378    7.687914    1.241449
     84          1           0        3.216656    7.671491   -0.547354
     85          1           0        9.744128    3.994562    0.886307
     86          1           0       10.554131    1.961419   -0.922857
     87          1           0        9.263626    5.000791   -1.444891
     88          1           0       10.044390    3.634015   -2.131111
     89          1           0       10.964994    4.648316   -1.078588
     90          1           0       10.845084    0.586967    1.585756
     91          1           0       10.664872    2.173697    2.057328
     92          1           0       12.674487    2.436986    0.048907
     93          1           0       13.206188    1.404297    1.403761
     94          1           0       12.550437    2.943402    1.767427
     95          1           0        8.899262   -4.596191   -1.032582
     96          1           0        9.828321   -3.502233   -0.004499
     97          1           0        9.570045   -3.155450   -1.738975
     98          1           0        3.982191   -4.080904    0.848584
     99          1           0        1.925525   -6.153062   -2.583696
    100          1           0        1.331123   -6.866707   -1.058314
    101          1           0        2.796979   -7.484865   -1.893930
    102          1           0       -2.866399   -4.570144   -0.397381
    103          1           0       -2.707688   -2.943128   -0.969574
    104          1           0       -3.657536   -2.258268    1.370479
    105          1           0       -4.857373   -4.984767   -0.589715
    106          1           0       -6.481272   -4.388301   -0.628896
    107          1           0       -5.994851   -5.659495    0.599541
    108          1           0       -5.719321   -2.243055    2.373771
    109          1           0       -6.596483   -3.647491    2.464512
    110          1           0       -8.236260   -2.774010    1.043440
    111          1           0       -6.961730   -2.068894    0.064923
    112          1           0       -7.808461   -0.114240    0.674499
    113          1           0       -6.760779   -0.261799    2.014879
    114          1           0       -9.519278   -1.389641    2.794272
    115          1           0       -8.611994   -0.909592    4.699465
    116          1           0       -8.844113    0.788278    4.298179
    117          1           0       -7.334245    0.057341    3.912645
    118          1           0       -9.212766    1.459677    1.867960
    119          1           0      -10.762902    0.909746    2.507569
    120          1           0      -10.085590   -0.652890    0.142176
    121          1           0      -10.390566    1.003844   -0.120346
    122          1           0      -12.016529   -0.585821    1.841770
    123          1           0      -12.343464   -0.998510    0.301581
    124          1           0      -12.341520    1.912944    0.524769
    125          1           0      -14.008669    2.313711    1.933093
    126          1           0      -13.521586    0.799638    2.706380
    127          1           0      -14.974739    0.954297    1.734325
    128          1           0      -14.911038    0.391658   -0.493702
    129          1           0      -13.578722   -0.187537   -1.124616
    130          1           0      -12.934412    2.057811   -2.096167
    131          1           0      -13.963582    2.905701   -0.968446
    132          1           0      -15.672841    0.950812   -2.475459
    133          1           0      -14.575937    1.746601   -3.582908
    134          1           0      -16.714664    2.715963   -3.410492
    135          1           0      -15.048526    4.879089   -2.156193
    136          1           0      -16.385416    4.787684   -3.261593
    137          1           0      -14.607223    4.051422   -3.614911
    138          1           0      -16.592413    2.370969   -0.469519
    139          1           0      -17.929081    2.710219   -1.492076
    140          1           0      -16.997755    4.071630   -0.931986
 ---------------------------------------------------------------------

 SCF Done:  E(RZINDO/S) =  -474.202444843     A.U. after   19 cycles

 Excitation energies and oscillator strengths:

 Excited State   1:      Singlet-A      1.2491 eV  992.58 nm  f=0.5819  <S**2>=0.000
     175 ->178         0.21024
     176 ->177         0.65549
 This state for optimization and/or second-order correction.
 Total Energy, E(CIS/TDA) =  -474.156541037
 Copying the excited state density for this state as the 1-particle RhoCI density.

 Excited State   2:      Singlet-A      1.8362 eV  675.24 nm  f=0.0340  <S**2>=0.000
     175 ->177         0.54145
     176 ->178        -0.42786

 Excited State   3:      Singlet-A      2.8973 eV  427.93 nm  f=0.4359  <S**2>=0.000
     175 ->177         0.25821
     176 ->178         0.40083
     176 ->179         0.47852

 Excited State   4:      Singlet-A      2.9674 eV  417.83 nm  f=0.7108  <S**2>=0.000
     175 ->177        -0.30321
     176 ->178        -0.34431
     176 ->179         0.46215
     176 ->180        -0.11868

 Excited State   5:      Singlet-A      3.0151 eV  411.21 nm  f=0.0129  <S**2>=0.000
     168 ->177        -0.27497
     168 ->178         0.19606
     168 ->179         0.33098
     168 ->180         0.33591
     168 ->186         0.22422
     168 ->187         0.11429
     169 ->179        -0.10360

 The electronic state is 1-A.
 Alpha  occ. eigenvalues --   -1.84734  -1.81712  -1.78214  -1.72318  -1.70118
 Alpha  occ. eigenvalues --   -1.68248  -1.65716  -1.61669  -1.57641  -1.57111
 Alpha  occ. eigenvalues --   -1.56029  -1.51115  -1.48921  -1.48618  -1.46978
 Alpha  occ. eigenvalues --   -1.43505  -1.42502  -1.39950  -1.39085  -1.38366
 Alpha  occ. eigenvalues --   -1.36415  -1.34984  -1.32634  -1.31148  -1.29042
 Alpha  occ. eigenvalues --   -1.28695  -1.24166  -1.22424  -1.20165  -1.18030
 Alpha  occ. eigenvalues --   -1.16029  -1.15999  -1.15389  -1.14896  -1.13302
 Alpha  occ. eigenvalues --   -1.13119  -1.10487  -1.09767  -1.04582  -1.03246
 Alpha  occ. eigenvalues --   -1.02359  -1.01110  -0.99338  -0.97987  -0.97290
 Alpha  occ. eigenvalues --   -0.95946  -0.94226  -0.93811  -0.93701  -0.92994
 Alpha  occ. eigenvalues --   -0.91417  -0.91084  -0.89272  -0.88307  -0.86754
 Alpha  occ. eigenvalues --   -0.84409  -0.83394  -0.82307  -0.82170  -0.81221
 Alpha  occ. eigenvalues --   -0.80660  -0.79326  -0.78063  -0.77777  -0.76782
 Alpha  occ. eigenvalues --   -0.75831  -0.74417  -0.74060  -0.73695  -0.73467
 Alpha  occ. eigenvalues --   -0.72634  -0.72423  -0.71534  -0.70993  -0.70691
 Alpha  occ. eigenvalues --   -0.70523  -0.69735  -0.69106  -0.68091  -0.68046
 Alpha  occ. eigenvalues --   -0.67441  -0.66827  -0.66559  -0.66195  -0.65228
 Alpha  occ. eigenvalues --   -0.64988  -0.64795  -0.64295  -0.64040  -0.63304
 Alpha  occ. eigenvalues --   -0.63244  -0.62992  -0.62553  -0.62473  -0.62040
 Alpha  occ. eigenvalues --   -0.61304  -0.61080  -0.60836  -0.60477  -0.60110
 Alpha  occ. eigenvalues --   -0.59523  -0.59463  -0.59251  -0.58797  -0.58236
 Alpha  occ. eigenvalues --   -0.57910  -0.57434  -0.56980  -0.56733  -0.56287
 Alpha  occ. eigenvalues --   -0.56053  -0.55769  -0.55659  -0.55538  -0.54951
 Alpha  occ. eigenvalues --   -0.54133  -0.53709  -0.53406  -0.52699  -0.52473
 Alpha  occ. eigenvalues --   -0.52178  -0.52089  -0.51565  -0.51308  -0.50820
 Alpha  occ. eigenvalues --   -0.50815  -0.50480  -0.50159  -0.49912  -0.49677
 Alpha  occ. eigenvalues --   -0.49316  -0.49312  -0.48786  -0.48516  -0.48089
 Alpha  occ. eigenvalues --   -0.48063  -0.47864  -0.47793  -0.47460  -0.47249
 Alpha  occ. eigenvalues --   -0.47085  -0.46731  -0.46667  -0.46452  -0.46111
 Alpha  occ. eigenvalues --   -0.45630  -0.45552  -0.45432  -0.45344  -0.45068
 Alpha  occ. eigenvalues --   -0.44959  -0.44626  -0.44295  -0.44222  -0.43995
 Alpha  occ. eigenvalues --   -0.43127  -0.43027  -0.42924  -0.42767  -0.41892
 Alpha  occ. eigenvalues --   -0.41767  -0.40366  -0.40155  -0.38568  -0.38431
 Alpha  occ. eigenvalues --   -0.37817  -0.37410  -0.35946  -0.35653  -0.34710
 Alpha  occ. eigenvalues --   -0.33001  -0.32366  -0.32043  -0.31624  -0.25896
 Alpha  occ. eigenvalues --   -0.21428
 Alpha virt. eigenvalues --   -0.08107  -0.02227  -0.00713   0.00821   0.02011
 Alpha virt. eigenvalues --    0.02174   0.02283   0.03085   0.04348   0.04434
 Alpha virt. eigenvalues --    0.06167   0.06679   0.07043   0.07641   0.08207

 Mulliken charges:
               1
     1  Mg   0.433239
     2  C   -0.059662
     3  C   -0.086643
     4  C   -0.076798
     5  C   -0.076085
     6  N   -0.278796
     7  C    0.113720
     8  C    0.002230
     9  C    0.007745
    10  C    0.143533
    11  C   -0.049000
    12  C   -0.014065
    13  C    0.008548
    14  C    0.471218
    15  O   -0.510976
    16  O   -0.284769
    17  N   -0.323134
    18  C    0.096447
    19  C    0.017983
    20  C   -0.052757
    21  C    0.128158
    22  C   -0.044177
    23  C    0.334637
    24  O   -0.534744
    25  C   -0.024358
    26  N   -0.231768
    27  C    0.130208
    28  C    0.002603
    29  C   -0.004049
    30  C    0.130228
    31  C   -0.052996
    32  C   -0.033803
    33  C   -0.049010
    34  N   -0.321020
    35  C    0.088243
    36  C    0.037120
    37  C   -0.050677
    38  C    0.108312
    39  C   -0.032798
    40  C    0.343704
    41  O   -0.502818
    42  C    0.061595
    43  C    0.478766
    44  O   -0.510450
    45  O   -0.289312
    46  C    0.084234
    47  C    0.112483
    48  C   -0.095245
    49  C    0.003723
    50  C   -0.044565
    51  C   -0.013917
    52  C   -0.030555
    53  C   -0.025619
    54  C   -0.014777
    55  C   -0.071520
    56  C   -0.030338
    57  C   -0.032534
    58  C   -0.045172
    59  C   -0.008758
    60  C   -0.050414
    61  C   -0.050439
    62  C   -0.026986
    63  C   -0.030177
    64  C   -0.013310
    65  C   -0.068174
    66  C   -0.056277
    67  H    0.010967
    68  H    0.043389
    69  H    0.025832
    70  H    0.048472
    71  H    0.025836
    72  H    0.033479
    73  H    0.027909
    74  H    0.025285
    75  H    0.029378
    76  H    0.015118
    77  H    0.019969
    78  H    0.054624
    79  H    0.014228
    80  H    0.032446
    81  H    0.040437
    82  H    0.037366
    83  H    0.040625
    84  H    0.041067
    85  H    0.038140
    86  H    0.031492
    87  H    0.022997
    88  H    0.018184
    89  H    0.021844
    90  H    0.032472
    91  H    0.008636
    92  H    0.025409
    93  H    0.018837
    94  H    0.018787
    95  H    0.031842
    96  H    0.027519
    97  H    0.029797
    98  H    0.053653
    99  H    0.051723
   100  H    0.031803
   101  H    0.037185
   102  H    0.040665
   103  H    0.051682
   104  H    0.022881
   105  H    0.017587
   106  H    0.030991
   107  H    0.038140
   108  H    0.007062
   109  H    0.017776
   110  H    0.020166
   111  H    0.014451
   112  H    0.014200
   113  H    0.027465
   114  H    0.033013
   115  H    0.019399
   116  H    0.013553
   117  H    0.016422
   118  H    0.012490
   119  H    0.027076
   120  H    0.013576
   121  H    0.013743
   122  H    0.010702
   123  H    0.010510
   124  H    0.029394
   125  H    0.005247
   126  H    0.013713
   127  H    0.023203
   128  H    0.021662
   129  H    0.020031
   130  H    0.018055
   131  H    0.028373
   132  H    0.016447
   133  H    0.012208
   134  H    0.007664
   135  H    0.012040
   136  H    0.028693
   137  H    0.030882
   138  H    0.023714
   139  H    0.011963
   140  H    0.021178
 Sum of Mulliken charges =  -0.00000

 Dipole moment (field-independent basis, Debye):
    X=             -4.4947    Y=              3.4837    Z=              6.7985  Tot=              8.8633
 N-N= 4.208020067557D+03 E-N= 0.000000000000D+00  KE=-9.090758294082D+03
 Leave Link  601 at Wed May  4 15:53:13 2022, MaxMem=  6710886400 cpu:               0.8 elap:               0.1
 (Enter /sw/apps/gaussian-16.0/g16/l9999.exe)
 1\1\GINC-BP1-COMPUTE069\SP\RZINDO CIS\STO-3G\C55H74Mg1N4O6\OF15641\04-
 May-2022\0\\#p ZINDO=(nstates=5)\\step_1851_chromophore_3 ZINDO\\0,1\M
 g,0,0.959,8.427,25.2\C,0,1.816,10.184,28.154\C,0,1.438,5.518,27.004\C,
 0,0.33,6.694,22.394\C,0,1.091,11.389,23.475\N,0,1.723,7.901,27.346\C,0
 ,1.792,8.776,28.37\C,0,1.838,7.952,29.728\C,0,1.842,6.492,29.291\C,0,1
 .714,6.63,27.778\C,0,3.018,5.654,29.798\C,0,0.721,8.312,30.746\C,0,1.1
 67,9.038,32.018\C,0,2.223,8.369,32.858\O,0,3.439,8.561,32.89\O,0,1.706

 Normal termination of Gaussian 16 at Wed May  4 15:53:14 2022.
