 Gaussian 16, Revision A.03,
 Gaussian 16:  ES64L-G16RevA.03 25-Dec-2016

 ------------------------------
 #p blyp/Def2SVP td=(nstates=5)
 ------------------------------

 --------------------------------------------------
 step_201_chromophore_26 TDDFT with blyp functional
 --------------------------------------------------
 Symbolic Z-matrix:
 Charge =  0 Multiplicity = 1

                         Standard orientation:
 ---------------------------------------------------------------------
 Center     Atomic      Atomic             Coordinates (Angstroms)
 Number     Number       Type             X           Y           Z
 ---------------------------------------------------------------------
      1         12           0       -3.718019    1.412698    0.521868
      2          6           0       -4.496947   -1.983275   -0.225603
      3          6           0       -2.457541    0.346851    3.452888
      4          6           0       -2.464616    4.555092    0.899310
      5          6           0       -4.544468    2.212020   -2.828977
      6          7           0       -3.440688   -0.687956    1.437778
      7          6           0       -3.836822   -1.916347    0.960261
      8          6           0       -3.671891   -3.034342    2.014319
      9          6           0       -3.200732   -2.246692    3.208714
     10          6           0       -2.928320   -0.799508    2.659682
     11          6           0       -4.182956   -2.417594    4.422946
     12          6           0       -2.662654   -4.136150    1.613383
     13          6           0       -1.590821   -3.558411    0.716973
     14          6           0       -0.326244   -4.345542    0.210203
     15          8           0       -0.380444   -5.373172   -0.499638
     16          8           0        0.801185   -3.831230    0.717731
     17          7           0       -2.665703    2.334411    2.100421
     18          6           0       -2.223419    1.760367    3.194817
     19          6           0       -1.535131    2.741483    3.962136
     20          6           0       -1.503206    3.983234    3.260600
     21          6           0       -2.298680    3.675964    2.074487
     22          6           0       -0.877647    2.355302    5.254566
     23          6           0       -0.840061    5.239730    3.615149
     24          8           0       -0.174023    5.313798    4.630704
     25          6           0       -0.954480    6.511933    2.843540
     26          7           0       -3.285940    3.050461   -0.858808
     27          6           0       -2.941805    4.269730   -0.379580
     28          6           0       -3.247521    5.416472   -1.321660
     29          6           0       -3.774214    4.570318   -2.598664
     30          6           0       -3.801897    3.149032   -2.098280
     31          6           0       -4.168585    6.547279   -0.790763
     32          6           0       -3.023481    4.556428   -4.006909
     33          6           0       -2.988637    5.951964   -4.773549
     34          7           0       -4.455275    0.364305   -1.179384
     35          6           0       -4.794766    0.851174   -2.423453
     36          6           0       -5.426268   -0.240888   -3.210222
     37          6           0       -5.405254   -1.346218   -2.359538
     38          6           0       -4.786586   -0.889410   -1.149202
     39          6           0       -5.721707   -0.213984   -4.707513
     40          6           0       -5.694180   -2.770956   -2.267490
     41          8           0       -6.277075   -3.546457   -3.005055
     42          6           0       -5.201189   -3.241325   -0.813441
     43          6           0       -6.433214   -3.490030    0.021488
     44          8           0       -7.304120   -2.713987    0.359473
     45          8           0       -6.622298   -4.871580    0.245372
     46          6           0       -7.967231   -5.171315    0.769653
     47          6           0        2.017974   -4.602900    0.468187
     48          6           0        2.999356   -3.715461   -0.321402
     49          6           0        3.135020   -3.453381   -1.626359
     50          6           0        2.188103   -3.886388   -2.781406
     51          6           0        4.205664   -2.589606   -2.095313
     52          6           0        4.168292   -1.121783   -1.556769
     53          6           0        4.869659   -0.095302   -2.506525
     54          6           0        5.657871    1.059999   -1.839203
     55          6           0        5.820267    2.287489   -2.756832
     56          6           0        6.975926    0.651388   -1.152147
     57          6           0        6.797396    0.382184    0.386043
     58          6           0        7.375260   -0.917869    0.862789
     59          6           0        8.591184   -0.713224    1.879211
     60          6           0        8.288002   -1.350114    3.273683
     61          6           0        9.954584   -1.300394    1.304512
     62          6           0       11.009502   -0.293420    0.867414
     63          6           0       11.171643   -0.235502   -0.642460
     64          6           0       12.454790    0.587692   -0.913494
     65          6           0       12.357001    1.434360   -2.217559
     66          6           0       13.674305   -0.238173   -0.920278
     67          1           0       -2.027456    0.028869    4.404974
     68          1           0       -2.174254    5.607364    0.874469
     69          1           0       -4.751297    2.529296   -3.852627
     70          1           0       -4.648230   -3.503204    2.135660
     71          1           0       -2.307886   -2.636916    3.697314
     72          1           0       -3.729023   -3.148301    5.091657
     73          1           0       -5.170132   -2.567188    3.985563
     74          1           0       -4.264007   -1.434252    4.885647
     75          1           0       -3.092508   -4.937615    1.012642
     76          1           0       -2.168653   -4.558117    2.489497
     77          1           0       -1.291179   -2.584828    1.104548
     78          1           0       -2.059235   -3.383408   -0.251134
     79          1           0       -1.253313    2.937948    6.096079
     80          1           0        0.165144    2.550562    5.005547
     81          1           0       -0.855329    1.291730    5.492033
     82          1           0       -1.982269    6.869536    2.776048
     83          1           0       -0.509095    6.416079    1.853509
     84          1           0       -0.437091    7.255774    3.450758
     85          1           0       -2.259216    5.839420   -1.501231
     86          1           0       -4.798356    4.895914   -2.782657
     87          1           0       -4.324320    7.204455   -1.645836
     88          1           0       -3.716063    7.104173    0.028978
     89          1           0       -5.029460    6.022882   -0.375220
     90          1           0       -3.480970    3.900277   -4.747571
     91          1           0       -1.982376    4.256669   -3.885604
     92          1           0       -3.886302    6.101449   -5.374159
     93          1           0       -2.094611    5.987203   -5.396772
     94          1           0       -2.878372    6.737450   -4.026655
     95          1           0       -6.657488   -0.722588   -4.939477
     96          1           0       -4.873278   -0.608917   -5.264786
     97          1           0       -5.687568    0.841479   -4.977903
     98          1           0       -4.666438   -4.190521   -0.861047
     99          1           0       -8.143577   -4.781135    1.771682
    100          1           0       -8.143814   -6.245075    0.836190
    101          1           0       -8.731136   -4.876772    0.049557
    102          1           0        1.955760   -5.576195   -0.017863
    103          1           0        2.362840   -4.814885    1.480269
    104          1           0        3.739643   -3.183352    0.275247
    105          1           0        2.706634   -4.523097   -3.498659
    106          1           0        1.746642   -3.023123   -3.280172
    107          1           0        1.379777   -4.569194   -2.518723
    108          1           0        4.330204   -2.680525   -3.174452
    109          1           0        5.118356   -3.009286   -1.673193
    110          1           0        4.618883   -1.133475   -0.564749
    111          1           0        3.125756   -0.819442   -1.464691
    112          1           0        4.102029    0.264885   -3.190858
    113          1           0        5.441943   -0.732544   -3.180403
    114          1           0        5.052914    1.370956   -0.987289
    115          1           0        4.938521    2.477318   -3.369273
    116          1           0        6.714874    2.324481   -3.378793
    117          1           0        5.819543    3.152083   -2.093300
    118          1           0        7.715483    1.448811   -1.228576
    119          1           0        7.264237   -0.296874   -1.605930
    120          1           0        5.742734    0.300543    0.649166
    121          1           0        7.154157    1.239253    0.959039
    122          1           0        7.721193   -1.513574    0.018215
    123          1           0        6.537402   -1.466161    1.294587
    124          1           0        8.754245    0.354606    2.027587
    125          1           0        7.215972   -1.540720    3.333976
    126          1           0        8.451636   -0.626033    4.072578
    127          1           0        8.677130   -2.362208    3.382739
    128          1           0        9.821946   -1.977117    0.460478
    129          1           0       10.430506   -1.943658    2.044549
    130          1           0       11.965878   -0.565290    1.314611
    131          1           0       10.793972    0.723636    1.196180
    132          1           0       10.287386    0.322495   -0.952756
    133          1           0       11.266475   -1.285742   -0.915613
    134          1           0       12.622612    1.329329   -0.132184
    135          1           0       13.076656    1.072154   -2.952807
    136          1           0       12.633474    2.466336   -2.001825
    137          1           0       11.367628    1.312503   -2.659163
    138          1           0       14.470821    0.152414   -0.286902
    139          1           0       14.087915   -0.544996   -1.880905
    140          1           0       13.467270   -1.215779   -0.485153
 ---------------------------------------------------------------------

 SCF Done:  E(RB-LYP) =  -3007.36926986     A.U. after   21 cycles

 Excitation energies and oscillator strengths:

 Excited State   1:      Singlet-A      1.7523 eV  707.54 nm  f=0.0005  <S**2>=0.000
     244 -> 247        0.70416
 This state for optimization and/or second-order correction.
 Total Energy, E(TD-HF/TD-DFT) =  -3007.30487268
 Copying the excited state density for this state as the 1-particle RhoCI density.

 Excited State   2:      Singlet-A      1.7874 eV  693.68 nm  f=0.2760  <S**2>=0.000
     245 -> 248        0.16642
     246 -> 247        0.69213
     246 <- 247       -0.15594

 Excited State   3:      Singlet-A      1.9605 eV  632.42 nm  f=0.0695  <S**2>=0.000
     243 -> 247       -0.39652
     245 -> 247        0.55149
     246 -> 248       -0.16095

 Excited State   4:      Singlet-A      2.0661 eV  600.10 nm  f=0.0378  <S**2>=0.000
     243 -> 247        0.58171
     245 -> 247        0.35786
     246 -> 248       -0.14211

 Excited State   5:      Singlet-A      2.1733 eV  570.49 nm  f=0.0005  <S**2>=0.000
     242 -> 247        0.70657

 The electronic state is 1-A.
 Alpha  occ. eigenvalues --  -46.29499 -18.82633 -18.81338 -18.76782 -18.76410
 Alpha  occ. eigenvalues --  -18.76037 -18.75038 -14.03734 -14.03504 -14.01912
 Alpha  occ. eigenvalues --  -14.01678 -10.04026 -10.03737 -10.00462  -9.99376
 Alpha  occ. eigenvalues --   -9.97958  -9.97756  -9.96994  -9.96963  -9.96562
 Alpha  occ. eigenvalues --   -9.96510  -9.96506  -9.96482  -9.95810  -9.95374
 Alpha  occ. eigenvalues --   -9.94796  -9.94585  -9.94540  -9.94533  -9.94368
 Alpha  occ. eigenvalues --   -9.94195  -9.94078  -9.93956  -9.93842  -9.93757
 Alpha  occ. eigenvalues --   -9.93705  -9.93468  -9.93380  -9.93358  -9.92917
 Alpha  occ. eigenvalues --   -9.92904  -9.92806  -9.92763  -9.92654  -9.92502
 Alpha  occ. eigenvalues --   -9.92259  -9.91947  -9.91836  -9.91832  -9.91695
 Alpha  occ. eigenvalues --   -9.91674  -9.91544  -9.91466  -9.91342  -9.91268
 Alpha  occ. eigenvalues --   -9.91259  -9.91223  -9.90881  -9.90812  -9.90765
 Alpha  occ. eigenvalues --   -9.90759  -9.90703  -9.90518  -9.90302  -9.90273
 Alpha  occ. eigenvalues --   -9.90198  -2.93826  -1.74232  -1.73730  -1.73534
 Alpha  occ. eigenvalues --   -0.98286  -0.96885  -0.91961  -0.91931  -0.88937
 Alpha  occ. eigenvalues --   -0.88493  -0.87797  -0.86994  -0.86870  -0.86289
 Alpha  occ. eigenvalues --   -0.75089  -0.73902  -0.73698  -0.73086  -0.72424
 Alpha  occ. eigenvalues --   -0.72286  -0.71938  -0.70839  -0.70477  -0.70115
 Alpha  occ. eigenvalues --   -0.69999  -0.69327  -0.67970  -0.67624  -0.67387
 Alpha  occ. eigenvalues --   -0.66658  -0.65910  -0.65312  -0.64967  -0.64561
 Alpha  occ. eigenvalues --   -0.64319  -0.62569  -0.62264  -0.61888  -0.60648
 Alpha  occ. eigenvalues --   -0.60421  -0.60099  -0.60010  -0.59283  -0.58928
 Alpha  occ. eigenvalues --   -0.58443  -0.58045  -0.56658  -0.55866  -0.54949
 Alpha  occ. eigenvalues --   -0.54343  -0.53766  -0.53566  -0.52406  -0.51938
 Alpha  occ. eigenvalues --   -0.51788  -0.51070  -0.50660  -0.50459  -0.49938
 Alpha  occ. eigenvalues --   -0.49794  -0.49411  -0.49063  -0.47888  -0.46326
 Alpha  occ. eigenvalues --   -0.46107  -0.45852  -0.45581  -0.45326  -0.44716
 Alpha  occ. eigenvalues --   -0.44591  -0.43972  -0.43243  -0.42884  -0.42742
 Alpha  occ. eigenvalues --   -0.42510  -0.41916  -0.41750  -0.41645  -0.41281
 Alpha  occ. eigenvalues --   -0.40973  -0.40639  -0.40396  -0.40177  -0.39966
 Alpha  occ. eigenvalues --   -0.39879  -0.39710  -0.39650  -0.39354  -0.39243
 Alpha  occ. eigenvalues --   -0.39076  -0.38876  -0.38800  -0.38554  -0.38374
 Alpha  occ. eigenvalues --   -0.38227  -0.37979  -0.37699  -0.37372  -0.37112
 Alpha  occ. eigenvalues --   -0.37019  -0.36949  -0.36875  -0.36597  -0.36387
 Alpha  occ. eigenvalues --   -0.36150  -0.36025  -0.35987  -0.35797  -0.35690
 Alpha  occ. eigenvalues --   -0.35426  -0.35343  -0.35144  -0.34855  -0.34783
 Alpha  occ. eigenvalues --   -0.34533  -0.34324  -0.34259  -0.34056  -0.34026
 Alpha  occ. eigenvalues --   -0.33895  -0.33812  -0.33734  -0.33553  -0.33235
 Alpha  occ. eigenvalues --   -0.33122  -0.32868  -0.32562  -0.32417  -0.32215
 Alpha  occ. eigenvalues --   -0.32075  -0.31925  -0.31870  -0.31483  -0.31339
 Alpha  occ. eigenvalues --   -0.31206  -0.31030  -0.30879  -0.30756  -0.30719
 Alpha  occ. eigenvalues --   -0.30642  -0.30279  -0.29898  -0.29870  -0.29667
 Alpha  occ. eigenvalues --   -0.29640  -0.29356  -0.29191  -0.29183  -0.29146
 Alpha  occ. eigenvalues --   -0.28921  -0.28877  -0.28741  -0.28412  -0.28076
 Alpha  occ. eigenvalues --   -0.28004  -0.27485  -0.27385  -0.26711  -0.26585
 Alpha  occ. eigenvalues --   -0.26222  -0.26112  -0.25915  -0.25812  -0.25271
 Alpha  occ. eigenvalues --   -0.24897  -0.24757  -0.24220  -0.24215  -0.23892
 Alpha  occ. eigenvalues --   -0.23762  -0.22424  -0.21809  -0.21594  -0.21483
 Alpha  occ. eigenvalues --   -0.20717  -0.20049  -0.19406  -0.18443  -0.17547
 Alpha  occ. eigenvalues --   -0.16218
 Alpha virt. eigenvalues --   -0.12065  -0.07107  -0.06541  -0.05160  -0.04087
 Alpha virt. eigenvalues --   -0.02955  -0.02653  -0.02320  -0.01656  -0.00366
 Alpha virt. eigenvalues --    0.01068   0.01352   0.01793   0.02022   0.02714

 Mulliken charges:
               1
     1  Mg   0.697508
     2  C    0.031685
     3  C   -0.052443
     4  C   -0.015508
     5  C   -0.081170
     6  N   -0.176063
     7  C   -0.151226
     8  C    0.066800
     9  C   -0.021457
    10  C    0.025981
    11  C    0.133231
    12  C    0.132109
    13  C    0.083689
    14  C    0.095465
    15  O   -0.227587
    16  O   -0.228149
    17  N   -0.259398
    18  C    0.094057
    19  C   -0.136099
    20  C    0.085601
    21  C    0.113834
    22  C    0.179484
    23  C   -0.136492
    24  O   -0.160917
    25  C    0.151211
    26  N   -0.197690
    27  C   -0.088231
    28  C    0.037642
    29  C    0.022050
    30  C    0.033613
    31  C    0.138339
    32  C    0.050543
    33  C    0.055045
    34  N   -0.198021
    35  C    0.101219
    36  C   -0.200163
    37  C    0.097187
    38  C    0.066919
    39  C    0.173004
    40  C   -0.018884
    41  O   -0.117797
    42  C    0.043577
    43  C    0.108935
    44  O   -0.177617
    45  O   -0.296722
    46  C    0.228186
    47  C    0.345061
    48  C   -0.119731
    49  C   -0.124538
    50  C    0.112782
    51  C    0.131344
    52  C    0.047384
    53  C    0.104265
    54  C   -0.042591
    55  C    0.103861
    56  C    0.118500
    57  C    0.022377
    58  C    0.109406
    59  C   -0.065165
    60  C    0.117130
    61  C    0.144754
    62  C   -0.000539
    63  C    0.124280
    64  C   -0.091599
    65  C    0.122849
    66  C    0.115783
    67  H   -0.061269
    68  H   -0.082857
    69  H   -0.051019
    70  H   -0.008994
    71  H   -0.029892
    72  H    0.009480
    73  H   -0.002899
    74  H   -0.019038
    75  H   -0.006582
    76  H   -0.019626
    77  H   -0.010212
    78  H   -0.001475
    79  H    0.014550
    80  H    0.006910
    81  H   -0.028922
    82  H    0.004327
    83  H    0.016329
    84  H   -0.013661
    85  H   -0.025550
    86  H   -0.028275
    87  H    0.007157
    88  H   -0.004763
    89  H    0.000710
    90  H   -0.007748
    91  H   -0.019021
    92  H    0.000804
    93  H   -0.005131
    94  H   -0.013520
    95  H    0.024076
    96  H    0.010562
    97  H   -0.028114
    98  H   -0.004033
    99  H    0.009891
   100  H   -0.001920
   101  H    0.013754
   102  H    0.011684
   103  H   -0.025636
   104  H   -0.047867
   105  H   -0.008852
   106  H    0.004779
   107  H   -0.010101
   108  H   -0.034382
   109  H   -0.021534
   110  H   -0.015792
   111  H   -0.021362
   112  H   -0.042660
   113  H   -0.040179
   114  H   -0.038440
   115  H   -0.029247
   116  H   -0.004732
   117  H   -0.026579
   118  H   -0.018974
   119  H   -0.028548
   120  H   -0.027714
   121  H   -0.031355
   122  H   -0.033300
   123  H   -0.032105
   124  H   -0.031621
   125  H   -0.042086
   126  H   -0.009961
   127  H   -0.009427
   128  H   -0.045711
   129  H   -0.047909
   130  H   -0.040179
   131  H   -0.037260
   132  H   -0.025862
   133  H   -0.024983
   134  H   -0.038603
   135  H   -0.030529
   136  H   -0.015538
   137  H   -0.020809
   138  H   -0.019404
   139  H   -0.021221
   140  H   -0.040913
 Sum of Mulliken charges =  -0.00000

 Dipole moment (field-independent basis, Debye):
    X=              0.6788    Y=              3.3895    Z=             -0.0901  Tot=              3.4580
 Quadrupole moment (field-independent basis, Debye-Ang):
   XX=           -411.6420   YY=           -407.6189   ZZ=           -409.2745
   XY=            -25.9673   XZ=            -13.5487   YZ=            -41.7485

 Normal termination of Gaussian 16 at Wed May  4 18:23:29 2022.
