 Gaussian 16, Revision A.03,
 Gaussian 16:  ES64L-G16RevA.03 25-Dec-2016

 -----------------------------------
 #p cam-b3lyp/Def2SVP td=(nstates=5)
 -----------------------------------

 -------------------------------------------------------
 step_201_chromophore_26 TDDFT with cam-b3lyp functional
 -------------------------------------------------------
 Symbolic Z-matrix:
 Charge =  0 Multiplicity = 1

                         Standard orientation:
 ---------------------------------------------------------------------
 Center     Atomic      Atomic             Coordinates (Angstroms)
 Number     Number       Type             X           Y           Z
 ---------------------------------------------------------------------
      1         12           0       -3.718019    1.412698    0.521868
      2          6           0       -4.496947   -1.983275   -0.225603
      3          6           0       -2.457541    0.346851    3.452888
      4          6           0       -2.464616    4.555092    0.899310
      5          6           0       -4.544468    2.212020   -2.828977
      6          7           0       -3.440688   -0.687956    1.437778
      7          6           0       -3.836822   -1.916347    0.960261
      8          6           0       -3.671891   -3.034342    2.014319
      9          6           0       -3.200732   -2.246692    3.208714
     10          6           0       -2.928320   -0.799508    2.659682
     11          6           0       -4.182956   -2.417594    4.422946
     12          6           0       -2.662654   -4.136150    1.613383
     13          6           0       -1.590821   -3.558411    0.716973
     14          6           0       -0.326244   -4.345542    0.210203
     15          8           0       -0.380444   -5.373172   -0.499638
     16          8           0        0.801185   -3.831230    0.717731
     17          7           0       -2.665703    2.334411    2.100421
     18          6           0       -2.223419    1.760367    3.194817
     19          6           0       -1.535131    2.741483    3.962136
     20          6           0       -1.503206    3.983234    3.260600
     21          6           0       -2.298680    3.675964    2.074487
     22          6           0       -0.877647    2.355302    5.254566
     23          6           0       -0.840061    5.239730    3.615149
     24          8           0       -0.174023    5.313798    4.630704
     25          6           0       -0.954480    6.511933    2.843540
     26          7           0       -3.285940    3.050461   -0.858808
     27          6           0       -2.941805    4.269730   -0.379580
     28          6           0       -3.247521    5.416472   -1.321660
     29          6           0       -3.774214    4.570318   -2.598664
     30          6           0       -3.801897    3.149032   -2.098280
     31          6           0       -4.168585    6.547279   -0.790763
     32          6           0       -3.023481    4.556428   -4.006909
     33          6           0       -2.988637    5.951964   -4.773549
     34          7           0       -4.455275    0.364305   -1.179384
     35          6           0       -4.794766    0.851174   -2.423453
     36          6           0       -5.426268   -0.240888   -3.210222
     37          6           0       -5.405254   -1.346218   -2.359538
     38          6           0       -4.786586   -0.889410   -1.149202
     39          6           0       -5.721707   -0.213984   -4.707513
     40          6           0       -5.694180   -2.770956   -2.267490
     41          8           0       -6.277075   -3.546457   -3.005055
     42          6           0       -5.201189   -3.241325   -0.813441
     43          6           0       -6.433214   -3.490030    0.021488
     44          8           0       -7.304120   -2.713987    0.359473
     45          8           0       -6.622298   -4.871580    0.245372
     46          6           0       -7.967231   -5.171315    0.769653
     47          6           0        2.017974   -4.602900    0.468187
     48          6           0        2.999356   -3.715461   -0.321402
     49          6           0        3.135020   -3.453381   -1.626359
     50          6           0        2.188103   -3.886388   -2.781406
     51          6           0        4.205664   -2.589606   -2.095313
     52          6           0        4.168292   -1.121783   -1.556769
     53          6           0        4.869659   -0.095302   -2.506525
     54          6           0        5.657871    1.059999   -1.839203
     55          6           0        5.820267    2.287489   -2.756832
     56          6           0        6.975926    0.651388   -1.152147
     57          6           0        6.797396    0.382184    0.386043
     58          6           0        7.375260   -0.917869    0.862789
     59          6           0        8.591184   -0.713224    1.879211
     60          6           0        8.288002   -1.350114    3.273683
     61          6           0        9.954584   -1.300394    1.304512
     62          6           0       11.009502   -0.293420    0.867414
     63          6           0       11.171643   -0.235502   -0.642460
     64          6           0       12.454790    0.587692   -0.913494
     65          6           0       12.357001    1.434360   -2.217559
     66          6           0       13.674305   -0.238173   -0.920278
     67          1           0       -2.027456    0.028869    4.404974
     68          1           0       -2.174254    5.607364    0.874469
     69          1           0       -4.751297    2.529296   -3.852627
     70          1           0       -4.648230   -3.503204    2.135660
     71          1           0       -2.307886   -2.636916    3.697314
     72          1           0       -3.729023   -3.148301    5.091657
     73          1           0       -5.170132   -2.567188    3.985563
     74          1           0       -4.264007   -1.434252    4.885647
     75          1           0       -3.092508   -4.937615    1.012642
     76          1           0       -2.168653   -4.558117    2.489497
     77          1           0       -1.291179   -2.584828    1.104548
     78          1           0       -2.059235   -3.383408   -0.251134
     79          1           0       -1.253313    2.937948    6.096079
     80          1           0        0.165144    2.550562    5.005547
     81          1           0       -0.855329    1.291730    5.492033
     82          1           0       -1.982269    6.869536    2.776048
     83          1           0       -0.509095    6.416079    1.853509
     84          1           0       -0.437091    7.255774    3.450758
     85          1           0       -2.259216    5.839420   -1.501231
     86          1           0       -4.798356    4.895914   -2.782657
     87          1           0       -4.324320    7.204455   -1.645836
     88          1           0       -3.716063    7.104173    0.028978
     89          1           0       -5.029460    6.022882   -0.375220
     90          1           0       -3.480970    3.900277   -4.747571
     91          1           0       -1.982376    4.256669   -3.885604
     92          1           0       -3.886302    6.101449   -5.374159
     93          1           0       -2.094611    5.987203   -5.396772
     94          1           0       -2.878372    6.737450   -4.026655
     95          1           0       -6.657488   -0.722588   -4.939477
     96          1           0       -4.873278   -0.608917   -5.264786
     97          1           0       -5.687568    0.841479   -4.977903
     98          1           0       -4.666438   -4.190521   -0.861047
     99          1           0       -8.143577   -4.781135    1.771682
    100          1           0       -8.143814   -6.245075    0.836190
    101          1           0       -8.731136   -4.876772    0.049557
    102          1           0        1.955760   -5.576195   -0.017863
    103          1           0        2.362840   -4.814885    1.480269
    104          1           0        3.739643   -3.183352    0.275247
    105          1           0        2.706634   -4.523097   -3.498659
    106          1           0        1.746642   -3.023123   -3.280172
    107          1           0        1.379777   -4.569194   -2.518723
    108          1           0        4.330204   -2.680525   -3.174452
    109          1           0        5.118356   -3.009286   -1.673193
    110          1           0        4.618883   -1.133475   -0.564749
    111          1           0        3.125756   -0.819442   -1.464691
    112          1           0        4.102029    0.264885   -3.190858
    113          1           0        5.441943   -0.732544   -3.180403
    114          1           0        5.052914    1.370956   -0.987289
    115          1           0        4.938521    2.477318   -3.369273
    116          1           0        6.714874    2.324481   -3.378793
    117          1           0        5.819543    3.152083   -2.093300
    118          1           0        7.715483    1.448811   -1.228576
    119          1           0        7.264237   -0.296874   -1.605930
    120          1           0        5.742734    0.300543    0.649166
    121          1           0        7.154157    1.239253    0.959039
    122          1           0        7.721193   -1.513574    0.018215
    123          1           0        6.537402   -1.466161    1.294587
    124          1           0        8.754245    0.354606    2.027587
    125          1           0        7.215972   -1.540720    3.333976
    126          1           0        8.451636   -0.626033    4.072578
    127          1           0        8.677130   -2.362208    3.382739
    128          1           0        9.821946   -1.977117    0.460478
    129          1           0       10.430506   -1.943658    2.044549
    130          1           0       11.965878   -0.565290    1.314611
    131          1           0       10.793972    0.723636    1.196180
    132          1           0       10.287386    0.322495   -0.952756
    133          1           0       11.266475   -1.285742   -0.915613
    134          1           0       12.622612    1.329329   -0.132184
    135          1           0       13.076656    1.072154   -2.952807
    136          1           0       12.633474    2.466336   -2.001825
    137          1           0       11.367628    1.312503   -2.659163
    138          1           0       14.470821    0.152414   -0.286902
    139          1           0       14.087915   -0.544996   -1.880905
    140          1           0       13.467270   -1.215779   -0.485153
 ---------------------------------------------------------------------

 SCF Done:  E(RCAM-B3LYP) =  -3007.15962130     A.U. after   19 cycles

 Excitation energies and oscillator strengths:

 Excited State   1:      Singlet-A      1.6795 eV  738.22 nm  f=0.3609  <S**2>=0.000
     245 -> 248        0.17110
     246 -> 247        0.68616
     245 <- 248        0.10657
 This state for optimization and/or second-order correction.
 Total Energy, E(TD-HF/TD-DFT) =  -3007.09790101
 Copying the excited state density for this state as the 1-particle RhoCI density.

 Excited State   2:      Singlet-A      2.1889 eV  566.43 nm  f=0.1363  <S**2>=0.000
     245 -> 247        0.64882
     246 -> 248       -0.26566

 Excited State   3:      Singlet-A      3.3354 eV  371.72 nm  f=0.0089  <S**2>=0.000
     243 -> 247        0.66466
     246 -> 248        0.19478

 Excited State   4:      Singlet-A      3.5400 eV  350.23 nm  f=0.0241  <S**2>=0.000
     240 -> 247       -0.16047
     241 -> 247        0.51107
     241 -> 248        0.16505
     241 -> 249       -0.23626
     241 -> 251        0.25889
     246 -> 248        0.13365

 Excited State   5:      Singlet-A      3.5565 eV  348.62 nm  f=0.0987  <S**2>=0.000
     239 -> 247        0.16917
     239 -> 249        0.11216
     240 -> 247        0.37710
     240 -> 249        0.23490
     240 -> 251        0.12033
     241 -> 247        0.15546
     242 -> 247       -0.28843
     245 -> 247       -0.10419
     246 -> 248       -0.27949

 The electronic state is 1-A.
 Alpha  occ. eigenvalues --  -46.91218 -19.25510 -19.24294 -19.20045 -19.19526
 Alpha  occ. eigenvalues --  -19.18948 -19.18334 -14.42722 -14.42311 -14.40319
 Alpha  occ. eigenvalues --  -14.40219 -10.39389 -10.39331 -10.35789 -10.34523
 Alpha  occ. eigenvalues --  -10.32467 -10.32058 -10.31740 -10.31115 -10.30932
 Alpha  occ. eigenvalues --  -10.30927 -10.30770 -10.30624 -10.30234 -10.29581
 Alpha  occ. eigenvalues --  -10.29055 -10.28795 -10.28603 -10.28520 -10.28500
 Alpha  occ. eigenvalues --  -10.28489 -10.28434 -10.28425 -10.28313 -10.27624
 Alpha  occ. eigenvalues --  -10.27555 -10.27452 -10.27430 -10.27375 -10.27067
 Alpha  occ. eigenvalues --  -10.26907 -10.26859 -10.26691 -10.26455 -10.26154
 Alpha  occ. eigenvalues --  -10.26044 -10.25934 -10.25662 -10.25622 -10.25561
 Alpha  occ. eigenvalues --  -10.25493 -10.25223 -10.25174 -10.25067 -10.24918
 Alpha  occ. eigenvalues --  -10.24897 -10.24860 -10.24470 -10.24440 -10.24378
 Alpha  occ. eigenvalues --  -10.24371 -10.24288 -10.24182 -10.23915 -10.23843
 Alpha  occ. eigenvalues --  -10.23729  -3.19432  -1.94320  -1.93893  -1.93726
 Alpha  occ. eigenvalues --   -1.16705  -1.15527  -1.10439  -1.10309  -1.06869
 Alpha  occ. eigenvalues --   -1.06344  -1.05497  -1.04705  -1.04610  -1.03913
 Alpha  occ. eigenvalues --   -0.92199  -0.90778  -0.90546  -0.89878  -0.89153
 Alpha  occ. eigenvalues --   -0.88977  -0.88509  -0.87433  -0.87012  -0.86844
 Alpha  occ. eigenvalues --   -0.86543  -0.85745  -0.84181  -0.83770  -0.83592
 Alpha  occ. eigenvalues --   -0.82735  -0.82047  -0.81305  -0.80895  -0.80344
 Alpha  occ. eigenvalues --   -0.80113  -0.78205  -0.77749  -0.77539  -0.76041
 Alpha  occ. eigenvalues --   -0.75746  -0.75384  -0.75360  -0.74516  -0.74172
 Alpha  occ. eigenvalues --   -0.73505  -0.73051  -0.71558  -0.70731  -0.69530
 Alpha  occ. eigenvalues --   -0.69034  -0.68333  -0.68101  -0.66784  -0.66106
 Alpha  occ. eigenvalues --   -0.65802  -0.65049  -0.64721  -0.64616  -0.63983
 Alpha  occ. eigenvalues --   -0.63652  -0.63314  -0.62990  -0.61609  -0.59921
 Alpha  occ. eigenvalues --   -0.59742  -0.59377  -0.59029  -0.58646  -0.58180
 Alpha  occ. eigenvalues --   -0.58106  -0.57503  -0.56452  -0.56101  -0.55940
 Alpha  occ. eigenvalues --   -0.55400  -0.54959  -0.54729  -0.54357  -0.54311
 Alpha  occ. eigenvalues --   -0.53910  -0.53418  -0.53257  -0.52988  -0.52750
 Alpha  occ. eigenvalues --   -0.52711  -0.52397  -0.52332  -0.52240  -0.52059
 Alpha  occ. eigenvalues --   -0.51767  -0.51451  -0.51296  -0.51108  -0.50774
 Alpha  occ. eigenvalues --   -0.50669  -0.50361  -0.49942  -0.49604  -0.49420
 Alpha  occ. eigenvalues --   -0.49373  -0.49217  -0.49120  -0.48987  -0.48944
 Alpha  occ. eigenvalues --   -0.48674  -0.48329  -0.48192  -0.47869  -0.47793
 Alpha  occ. eigenvalues --   -0.47508  -0.47247  -0.47153  -0.46827  -0.46700
 Alpha  occ. eigenvalues --   -0.46493  -0.46303  -0.45992  -0.45869  -0.45839
 Alpha  occ. eigenvalues --   -0.45756  -0.45624  -0.45484  -0.45367  -0.45023
 Alpha  occ. eigenvalues --   -0.44817  -0.44607  -0.44289  -0.44143  -0.43876
 Alpha  occ. eigenvalues --   -0.43822  -0.43568  -0.43466  -0.43151  -0.42800
 Alpha  occ. eigenvalues --   -0.42708  -0.42478  -0.42369  -0.42136  -0.41972
 Alpha  occ. eigenvalues --   -0.41880  -0.41479  -0.41371  -0.41078  -0.40993
 Alpha  occ. eigenvalues --   -0.40908  -0.40784  -0.40608  -0.40440  -0.40216
 Alpha  occ. eigenvalues --   -0.40194  -0.39908  -0.39751  -0.39398  -0.38996
 Alpha  occ. eigenvalues --   -0.38874  -0.38379  -0.38235  -0.37924  -0.37479
 Alpha  occ. eigenvalues --   -0.37185  -0.36775  -0.36595  -0.36413  -0.36370
 Alpha  occ. eigenvalues --   -0.36143  -0.35857  -0.34978  -0.34661  -0.34402
 Alpha  occ. eigenvalues --   -0.34287  -0.33477  -0.33222  -0.31585  -0.31191
 Alpha  occ. eigenvalues --   -0.31039  -0.30879  -0.30134  -0.29868  -0.24315
 Alpha  occ. eigenvalues --   -0.21542
 Alpha virt. eigenvalues --   -0.09325  -0.01850  -0.00142   0.01083   0.01756
 Alpha virt. eigenvalues --    0.04650   0.04846   0.05105   0.05773   0.06243
 Alpha virt. eigenvalues --    0.07651   0.08069   0.08191   0.08510   0.08960

 Mulliken charges:
               1
     1  Mg   0.827798
     2  C   -0.002572
     3  C   -0.064727
     4  C   -0.047248
     5  C   -0.080347
     6  N   -0.240525
     7  C   -0.119076
     8  C    0.011158
     9  C   -0.073526
    10  C    0.046219
    11  C    0.076883
    12  C    0.087775
    13  C    0.014026
    14  C    0.181187
    15  O   -0.271447
    16  O   -0.291162
    17  N   -0.349769
    18  C    0.102280
    19  C   -0.138472
    20  C    0.008634
    21  C    0.152930
    22  C    0.124482
    23  C   -0.056955
    24  O   -0.200406
    25  C    0.065074
    26  N   -0.270687
    27  C   -0.051299
    28  C   -0.026867
    29  C   -0.038162
    30  C    0.050942
    31  C    0.086121
    32  C   -0.002887
    33  C    0.000167
    34  N   -0.287088
    35  C    0.098097
    36  C   -0.193294
    37  C    0.015015
    38  C    0.115077
    39  C    0.126184
    40  C    0.076521
    41  O   -0.157329
    42  C   -0.030086
    43  C    0.201756
    44  O   -0.211641
    45  O   -0.360141
    46  C    0.186461
    47  C    0.308938
    48  C   -0.146135
    49  C   -0.143467
    50  C    0.055310
    51  C    0.065530
    52  C    0.002952
    53  C    0.053574
    54  C   -0.102405
    55  C    0.046117
    56  C    0.064972
    57  C   -0.032839
    58  C    0.060369
    59  C   -0.121301
    60  C    0.058622
    61  C    0.087980
    62  C   -0.047577
    63  C    0.068482
    64  C   -0.156986
    65  C    0.065239
    66  C    0.053976
    67  H   -0.028963
    68  H   -0.047986
    69  H   -0.018723
    70  H    0.025822
    71  H    0.005600
    72  H    0.033422
    73  H    0.021149
    74  H    0.007453
    75  H    0.023681
    76  H    0.010951
    77  H    0.021834
    78  H    0.027379
    79  H    0.041725
    80  H    0.034563
    81  H   -0.000737
    82  H    0.032191
    83  H    0.043205
    84  H    0.024372
    85  H    0.008366
    86  H    0.007466
    87  H    0.029900
    88  H    0.017345
    89  H    0.024100
    90  H    0.019229
    91  H    0.009339
    92  H    0.022779
    93  H    0.018889
    94  H    0.005614
    95  H    0.048908
    96  H    0.035951
    97  H   -0.005586
    98  H    0.040054
    99  H    0.032160
   100  H    0.022693
   101  H    0.037210
   102  H    0.044967
   103  H    0.006145
   104  H   -0.016364
   105  H    0.015864
   106  H    0.028214
   107  H    0.016410
   108  H   -0.003168
   109  H    0.008168
   110  H    0.002823
   111  H    0.008175
   112  H   -0.012649
   113  H   -0.012208
   114  H   -0.005477
   115  H   -0.003637
   116  H    0.018115
   117  H   -0.001682
   118  H    0.008837
   119  H   -0.002322
   120  H   -0.000244
   121  H   -0.002180
   122  H   -0.006745
   123  H   -0.005874
   124  H   -0.001058
   125  H   -0.016805
   126  H    0.014606
   127  H    0.013970
   128  H   -0.017279
   129  H   -0.016236
   130  H   -0.011577
   131  H   -0.009812
   132  H   -0.000722
   133  H    0.002452
   134  H   -0.004742
   135  H   -0.005979
   136  H    0.008356
   137  H    0.003518
   138  H    0.005988
   139  H    0.004323
   140  H   -0.015950
 Sum of Mulliken charges =  -0.00000

 Dipole moment (field-independent basis, Debye):
    X=              0.7728    Y=              3.6840    Z=              0.2897  Tot=              3.7753
 Quadrupole moment (field-independent basis, Debye-Ang):
   XX=           -412.6455   YY=           -403.8915   ZZ=           -407.4284
   XY=            -26.4724   XZ=            -14.8054   YZ=            -42.7659

 Normal termination of Gaussian 16 at Wed May  4 16:43:51 2022.
