 Gaussian 16, Revision A.03,
 Gaussian 16:  ES64L-G16RevA.03 25-Dec-2016

 ---------------------------------
 #p PBE1PBE/Def2SVP td=(nstates=5)
 ---------------------------------

 -----------------------------------------------------
 step_201_chromophore_26 TDDFT with PBE1PBE functional
 -----------------------------------------------------
 Symbolic Z-matrix:
 Charge =  0 Multiplicity = 1

                         Standard orientation:
 ---------------------------------------------------------------------
 Center     Atomic      Atomic             Coordinates (Angstroms)
 Number     Number       Type             X           Y           Z
 ---------------------------------------------------------------------
      1         12           0       -3.718019    1.412698    0.521868
      2          6           0       -4.496947   -1.983275   -0.225603
      3          6           0       -2.457541    0.346851    3.452888
      4          6           0       -2.464616    4.555092    0.899310
      5          6           0       -4.544468    2.212020   -2.828977
      6          7           0       -3.440688   -0.687956    1.437778
      7          6           0       -3.836822   -1.916347    0.960261
      8          6           0       -3.671891   -3.034342    2.014319
      9          6           0       -3.200732   -2.246692    3.208714
     10          6           0       -2.928320   -0.799508    2.659682
     11          6           0       -4.182956   -2.417594    4.422946
     12          6           0       -2.662654   -4.136150    1.613383
     13          6           0       -1.590821   -3.558411    0.716973
     14          6           0       -0.326244   -4.345542    0.210203
     15          8           0       -0.380444   -5.373172   -0.499638
     16          8           0        0.801185   -3.831230    0.717731
     17          7           0       -2.665703    2.334411    2.100421
     18          6           0       -2.223419    1.760367    3.194817
     19          6           0       -1.535131    2.741483    3.962136
     20          6           0       -1.503206    3.983234    3.260600
     21          6           0       -2.298680    3.675964    2.074487
     22          6           0       -0.877647    2.355302    5.254566
     23          6           0       -0.840061    5.239730    3.615149
     24          8           0       -0.174023    5.313798    4.630704
     25          6           0       -0.954480    6.511933    2.843540
     26          7           0       -3.285940    3.050461   -0.858808
     27          6           0       -2.941805    4.269730   -0.379580
     28          6           0       -3.247521    5.416472   -1.321660
     29          6           0       -3.774214    4.570318   -2.598664
     30          6           0       -3.801897    3.149032   -2.098280
     31          6           0       -4.168585    6.547279   -0.790763
     32          6           0       -3.023481    4.556428   -4.006909
     33          6           0       -2.988637    5.951964   -4.773549
     34          7           0       -4.455275    0.364305   -1.179384
     35          6           0       -4.794766    0.851174   -2.423453
     36          6           0       -5.426268   -0.240888   -3.210222
     37          6           0       -5.405254   -1.346218   -2.359538
     38          6           0       -4.786586   -0.889410   -1.149202
     39          6           0       -5.721707   -0.213984   -4.707513
     40          6           0       -5.694180   -2.770956   -2.267490
     41          8           0       -6.277075   -3.546457   -3.005055
     42          6           0       -5.201189   -3.241325   -0.813441
     43          6           0       -6.433214   -3.490030    0.021488
     44          8           0       -7.304120   -2.713987    0.359473
     45          8           0       -6.622298   -4.871580    0.245372
     46          6           0       -7.967231   -5.171315    0.769653
     47          6           0        2.017974   -4.602900    0.468187
     48          6           0        2.999356   -3.715461   -0.321402
     49          6           0        3.135020   -3.453381   -1.626359
     50          6           0        2.188103   -3.886388   -2.781406
     51          6           0        4.205664   -2.589606   -2.095313
     52          6           0        4.168292   -1.121783   -1.556769
     53          6           0        4.869659   -0.095302   -2.506525
     54          6           0        5.657871    1.059999   -1.839203
     55          6           0        5.820267    2.287489   -2.756832
     56          6           0        6.975926    0.651388   -1.152147
     57          6           0        6.797396    0.382184    0.386043
     58          6           0        7.375260   -0.917869    0.862789
     59          6           0        8.591184   -0.713224    1.879211
     60          6           0        8.288002   -1.350114    3.273683
     61          6           0        9.954584   -1.300394    1.304512
     62          6           0       11.009502   -0.293420    0.867414
     63          6           0       11.171643   -0.235502   -0.642460
     64          6           0       12.454790    0.587692   -0.913494
     65          6           0       12.357001    1.434360   -2.217559
     66          6           0       13.674305   -0.238173   -0.920278
     67          1           0       -2.027456    0.028869    4.404974
     68          1           0       -2.174254    5.607364    0.874469
     69          1           0       -4.751297    2.529296   -3.852627
     70          1           0       -4.648230   -3.503204    2.135660
     71          1           0       -2.307886   -2.636916    3.697314
     72          1           0       -3.729023   -3.148301    5.091657
     73          1           0       -5.170132   -2.567188    3.985563
     74          1           0       -4.264007   -1.434252    4.885647
     75          1           0       -3.092508   -4.937615    1.012642
     76          1           0       -2.168653   -4.558117    2.489497
     77          1           0       -1.291179   -2.584828    1.104548
     78          1           0       -2.059235   -3.383408   -0.251134
     79          1           0       -1.253313    2.937948    6.096079
     80          1           0        0.165144    2.550562    5.005547
     81          1           0       -0.855329    1.291730    5.492033
     82          1           0       -1.982269    6.869536    2.776048
     83          1           0       -0.509095    6.416079    1.853509
     84          1           0       -0.437091    7.255774    3.450758
     85          1           0       -2.259216    5.839420   -1.501231
     86          1           0       -4.798356    4.895914   -2.782657
     87          1           0       -4.324320    7.204455   -1.645836
     88          1           0       -3.716063    7.104173    0.028978
     89          1           0       -5.029460    6.022882   -0.375220
     90          1           0       -3.480970    3.900277   -4.747571
     91          1           0       -1.982376    4.256669   -3.885604
     92          1           0       -3.886302    6.101449   -5.374159
     93          1           0       -2.094611    5.987203   -5.396772
     94          1           0       -2.878372    6.737450   -4.026655
     95          1           0       -6.657488   -0.722588   -4.939477
     96          1           0       -4.873278   -0.608917   -5.264786
     97          1           0       -5.687568    0.841479   -4.977903
     98          1           0       -4.666438   -4.190521   -0.861047
     99          1           0       -8.143577   -4.781135    1.771682
    100          1           0       -8.143814   -6.245075    0.836190
    101          1           0       -8.731136   -4.876772    0.049557
    102          1           0        1.955760   -5.576195   -0.017863
    103          1           0        2.362840   -4.814885    1.480269
    104          1           0        3.739643   -3.183352    0.275247
    105          1           0        2.706634   -4.523097   -3.498659
    106          1           0        1.746642   -3.023123   -3.280172
    107          1           0        1.379777   -4.569194   -2.518723
    108          1           0        4.330204   -2.680525   -3.174452
    109          1           0        5.118356   -3.009286   -1.673193
    110          1           0        4.618883   -1.133475   -0.564749
    111          1           0        3.125756   -0.819442   -1.464691
    112          1           0        4.102029    0.264885   -3.190858
    113          1           0        5.441943   -0.732544   -3.180403
    114          1           0        5.052914    1.370956   -0.987289
    115          1           0        4.938521    2.477318   -3.369273
    116          1           0        6.714874    2.324481   -3.378793
    117          1           0        5.819543    3.152083   -2.093300
    118          1           0        7.715483    1.448811   -1.228576
    119          1           0        7.264237   -0.296874   -1.605930
    120          1           0        5.742734    0.300543    0.649166
    121          1           0        7.154157    1.239253    0.959039
    122          1           0        7.721193   -1.513574    0.018215
    123          1           0        6.537402   -1.466161    1.294587
    124          1           0        8.754245    0.354606    2.027587
    125          1           0        7.215972   -1.540720    3.333976
    126          1           0        8.451636   -0.626033    4.072578
    127          1           0        8.677130   -2.362208    3.382739
    128          1           0        9.821946   -1.977117    0.460478
    129          1           0       10.430506   -1.943658    2.044549
    130          1           0       11.965878   -0.565290    1.314611
    131          1           0       10.793972    0.723636    1.196180
    132          1           0       10.287386    0.322495   -0.952756
    133          1           0       11.266475   -1.285742   -0.915613
    134          1           0       12.622612    1.329329   -0.132184
    135          1           0       13.076656    1.072154   -2.952807
    136          1           0       12.633474    2.466336   -2.001825
    137          1           0       11.367628    1.312503   -2.659163
    138          1           0       14.470821    0.152414   -0.286902
    139          1           0       14.087915   -0.544996   -1.880905
    140          1           0       13.467270   -1.215779   -0.485153
 ---------------------------------------------------------------------

 SCF Done:  E(RPBE1PBE) =  -3005.34973300     A.U. after   15 cycles

 Excitation energies and oscillator strengths:

 Excited State   1:      Singlet-A      1.8354 eV  675.52 nm  f=0.3435  <S**2>=0.000
     245 -> 248        0.16260
     246 -> 247        0.69408
     246 <- 247       -0.11392
 This state for optimization and/or second-order correction.
 Total Energy, E(TD-HF/TD-DFT) =  -3005.28228414
 Copying the excited state density for this state as the 1-particle RhoCI density.

 Excited State   2:      Singlet-A      2.2045 eV  562.42 nm  f=0.1317  <S**2>=0.000
     245 -> 247        0.65923
     246 -> 248       -0.24074

 Excited State   3:      Singlet-A      2.9509 eV  420.16 nm  f=0.0002  <S**2>=0.000
     242 -> 247        0.23524
     243 -> 247        0.63502

 Excited State   4:      Singlet-A      3.0280 eV  409.46 nm  f=0.0002  <S**2>=0.000
     241 -> 247        0.16524
     242 -> 247        0.62278
     243 -> 247       -0.23837
     246 -> 248        0.10609

 Excited State   5:      Singlet-A      3.0702 eV  403.83 nm  f=0.0006  <S**2>=0.000
     241 -> 247        0.64630
     241 -> 249       -0.16437
     242 -> 247       -0.14079
     246 -> 248       -0.10924

 The electronic state is 1-A.
 Alpha  occ. eigenvalues --  -46.94582 -19.26163 -19.24956 -19.20226 -19.19827
 Alpha  occ. eigenvalues --  -19.19241 -19.18481 -14.42161 -14.41818 -14.39976
 Alpha  occ. eigenvalues --  -14.39783 -10.36400 -10.36355 -10.33010 -10.31584
 Alpha  occ. eigenvalues --  -10.30109 -10.29426 -10.29315 -10.28740 -10.28739
 Alpha  occ. eigenvalues --  -10.28583 -10.28523 -10.28171 -10.27772 -10.27375
 Alpha  occ. eigenvalues --  -10.26718 -10.26610 -10.26392 -10.26379 -10.26355
 Alpha  occ. eigenvalues --  -10.26255 -10.26198 -10.26021 -10.25944 -10.25328
 Alpha  occ. eigenvalues --  -10.25240 -10.25161 -10.24953 -10.24934 -10.24683
 Alpha  occ. eigenvalues --  -10.24478 -10.24367 -10.24148 -10.23960 -10.23785
 Alpha  occ. eigenvalues --  -10.23631 -10.23506 -10.23306 -10.23207 -10.23042
 Alpha  occ. eigenvalues --  -10.22918 -10.22776 -10.22608 -10.22547 -10.22541
 Alpha  occ. eigenvalues --  -10.22475 -10.22414 -10.22044 -10.21924 -10.21920
 Alpha  occ. eigenvalues --  -10.21825 -10.21757 -10.21689 -10.21432 -10.21229
 Alpha  occ. eigenvalues --  -10.21090  -3.16386  -1.89212  -1.88765  -1.88600
 Alpha  occ. eigenvalues --   -1.11512  -1.10252  -1.05129  -1.05118  -1.01687
 Alpha  occ. eigenvalues --   -1.01165  -1.00198  -0.99359  -0.99208  -0.98570
 Alpha  occ. eigenvalues --   -0.86540  -0.84993  -0.84684  -0.83968  -0.83478
 Alpha  occ. eigenvalues --   -0.83084  -0.82797  -0.81787  -0.81121  -0.81097
 Alpha  occ. eigenvalues --   -0.80838  -0.79945  -0.78379  -0.78058  -0.77813
 Alpha  occ. eigenvalues --   -0.76922  -0.76265  -0.75507  -0.75111  -0.74677
 Alpha  occ. eigenvalues --   -0.74256  -0.72506  -0.72056  -0.71774  -0.70345
 Alpha  occ. eigenvalues --   -0.69911  -0.69719  -0.69436  -0.68671  -0.68334
 Alpha  occ. eigenvalues --   -0.67871  -0.67438  -0.65961  -0.65009  -0.63931
 Alpha  occ. eigenvalues --   -0.63482  -0.62838  -0.62314  -0.61001  -0.60505
 Alpha  occ. eigenvalues --   -0.60265  -0.59631  -0.59266  -0.58818  -0.58101
 Alpha  occ. eigenvalues --   -0.58071  -0.57514  -0.57177  -0.56205  -0.54479
 Alpha  occ. eigenvalues --   -0.54301  -0.53942  -0.53583  -0.53113  -0.52696
 Alpha  occ. eigenvalues --   -0.52540  -0.51930  -0.50995  -0.50554  -0.50448
 Alpha  occ. eigenvalues --   -0.49980  -0.49426  -0.49136  -0.48844  -0.48708
 Alpha  occ. eigenvalues --   -0.48421  -0.47898  -0.47790  -0.47578  -0.47264
 Alpha  occ. eigenvalues --   -0.47144  -0.46988  -0.46860  -0.46784  -0.46599
 Alpha  occ. eigenvalues --   -0.46289  -0.45967  -0.45794  -0.45743  -0.45306
 Alpha  occ. eigenvalues --   -0.45158  -0.44982  -0.44490  -0.44207  -0.44079
 Alpha  occ. eigenvalues --   -0.43926  -0.43810  -0.43738  -0.43565  -0.43540
 Alpha  occ. eigenvalues --   -0.43334  -0.42991  -0.42763  -0.42477  -0.42383
 Alpha  occ. eigenvalues --   -0.42225  -0.41862  -0.41774  -0.41565  -0.41301
 Alpha  occ. eigenvalues --   -0.41194  -0.41040  -0.40638  -0.40608  -0.40514
 Alpha  occ. eigenvalues --   -0.40389  -0.40295  -0.40110  -0.40040  -0.39751
 Alpha  occ. eigenvalues --   -0.39530  -0.39320  -0.39041  -0.38971  -0.38659
 Alpha  occ. eigenvalues --   -0.38642  -0.38328  -0.38279  -0.37877  -0.37609
 Alpha  occ. eigenvalues --   -0.37583  -0.37234  -0.37126  -0.37009  -0.36787
 Alpha  occ. eigenvalues --   -0.36616  -0.36367  -0.36131  -0.35879  -0.35822
 Alpha  occ. eigenvalues --   -0.35683  -0.35621  -0.35559  -0.35239  -0.35110
 Alpha  occ. eigenvalues --   -0.34955  -0.34873  -0.34519  -0.34129  -0.33751
 Alpha  occ. eigenvalues --   -0.33700  -0.33124  -0.33025  -0.32894  -0.32253
 Alpha  occ. eigenvalues --   -0.32230  -0.31684  -0.31571  -0.31329  -0.31189
 Alpha  occ. eigenvalues --   -0.31118  -0.30721  -0.30197  -0.29615  -0.29224
 Alpha  occ. eigenvalues --   -0.29179  -0.28866  -0.28247  -0.27169  -0.26589
 Alpha  occ. eigenvalues --   -0.26207  -0.25773  -0.25562  -0.25139  -0.21253
 Alpha  occ. eigenvalues --   -0.19177
 Alpha virt. eigenvalues --   -0.11727  -0.05387  -0.04299  -0.02649  -0.01787
 Alpha virt. eigenvalues --    0.00039   0.00379   0.00695   0.01352   0.02471
 Alpha virt. eigenvalues --    0.04026   0.04219   0.04530   0.04850   0.05699

 Mulliken charges:
               1
     1  Mg   0.963663
     2  C   -0.031415
     3  C   -0.067914
     4  C   -0.049683
     5  C   -0.065348
     6  N   -0.340162
     7  C   -0.046935
     8  C   -0.065158
     9  C   -0.141842
    10  C    0.088490
    11  C    0.017731
    12  C    0.040046
    13  C   -0.071538
    14  C    0.253378
    15  O   -0.304252
    16  O   -0.321641
    17  N   -0.467184
    18  C    0.135401
    19  C   -0.173626
    20  C   -0.044400
    21  C    0.191583
    22  C    0.071086
    23  C   -0.004546
    24  O   -0.236157
    25  C   -0.013671
    26  N   -0.378089
    27  C   -0.007717
    28  C   -0.104857
    29  C   -0.109634
    30  C    0.085764
    31  C    0.022040
    32  C   -0.065911
    33  C   -0.071994
    34  N   -0.415782
    35  C    0.115206
    36  C   -0.199432
    37  C   -0.036463
    38  C    0.190971
    39  C    0.069018
    40  C    0.167567
    41  O   -0.201980
    42  C   -0.136341
    43  C    0.291753
    44  O   -0.244425
    45  O   -0.390987
    46  C    0.129277
    47  C    0.263280
    48  C   -0.163619
    49  C   -0.180013
    50  C   -0.004976
    51  C   -0.002485
    52  C   -0.064267
    53  C    0.002919
    54  C   -0.194116
    55  C   -0.015301
    56  C    0.012566
    57  C   -0.095198
    58  C    0.009167
    59  C   -0.207870
    60  C   -0.001335
    61  C    0.037457
    62  C   -0.104533
    63  C   -0.004203
    64  C   -0.251861
    65  C    0.006452
    66  C   -0.000002
    67  H    0.004215
    68  H   -0.014323
    69  H    0.011027
    70  H    0.066359
    71  H    0.041845
    72  H    0.059688
    73  H    0.048469
    74  H    0.036701
    75  H    0.055243
    76  H    0.044447
    77  H    0.058352
    78  H    0.064031
    79  H    0.068162
    80  H    0.062257
    81  H    0.025624
    82  H    0.059496
    83  H    0.068977
    84  H    0.052646
    85  H    0.046556
    86  H    0.045930
    87  H    0.057969
    88  H    0.045142
    89  H    0.052656
    90  H    0.051498
    91  H    0.042775
    92  H    0.050128
    93  H    0.047143
    94  H    0.035568
    95  H    0.075559
    96  H    0.064369
    97  H    0.024359
    98  H    0.075078
    99  H    0.054486
   100  H    0.045488
   101  H    0.059737
   102  H    0.070486
   103  H    0.033834
   104  H    0.015104
   105  H    0.043676
   106  H    0.055650
   107  H    0.044747
   108  H    0.027309
   109  H    0.043505
   110  H    0.040643
   111  H    0.042048
   112  H    0.019971
   113  H    0.020765
   114  H    0.035500
   115  H    0.024215
   116  H    0.044988
   117  H    0.027240
   118  H    0.040485
   119  H    0.030369
   120  H    0.029690
   121  H    0.030020
   122  H    0.024790
   123  H    0.025332
   124  H    0.036204
   125  H    0.011687
   126  H    0.042184
   127  H    0.040317
   128  H    0.013857
   129  H    0.016540
   130  H    0.022115
   131  H    0.022631
   132  H    0.039437
   133  H    0.034919
   134  H    0.033040
   135  H    0.021429
   136  H    0.035563
   137  H    0.030224
   138  H    0.033484
   139  H    0.031005
   140  H    0.011382
 Sum of Mulliken charges =  -0.00000

 Dipole moment (field-independent basis, Debye):
    X=              0.6993    Y=              3.7157    Z=              0.0620  Tot=              3.7815
 Quadrupole moment (field-independent basis, Debye-Ang):
   XX=           -409.3381   YY=           -400.2649   ZZ=           -403.4025
   XY=            -26.5050   XZ=            -13.6672   YZ=            -44.1372

 Normal termination of Gaussian 16 at Wed May  4 17:11:45 2022.
