 Gaussian 16, Revision A.03,
 Gaussian 16:  ES64L-G16RevA.03 25-Dec-2016

 --------------------------------
 #p wB97XD/Def2SVP td=(nstates=5)
 --------------------------------

 ----------------------------------------------------
 step_201_chromophore_26 TDDFT with wB97XD functional
 ----------------------------------------------------
 Symbolic Z-matrix:
 Charge =  0 Multiplicity = 1

                         Standard orientation:
 ---------------------------------------------------------------------
 Center     Atomic      Atomic             Coordinates (Angstroms)
 Number     Number       Type             X           Y           Z
 ---------------------------------------------------------------------
      1         12           0       -3.718019    1.412698    0.521868
      2          6           0       -4.496947   -1.983275   -0.225603
      3          6           0       -2.457541    0.346851    3.452888
      4          6           0       -2.464616    4.555092    0.899310
      5          6           0       -4.544468    2.212020   -2.828977
      6          7           0       -3.440688   -0.687956    1.437778
      7          6           0       -3.836822   -1.916347    0.960261
      8          6           0       -3.671891   -3.034342    2.014319
      9          6           0       -3.200732   -2.246692    3.208714
     10          6           0       -2.928320   -0.799508    2.659682
     11          6           0       -4.182956   -2.417594    4.422946
     12          6           0       -2.662654   -4.136150    1.613383
     13          6           0       -1.590821   -3.558411    0.716973
     14          6           0       -0.326244   -4.345542    0.210203
     15          8           0       -0.380444   -5.373172   -0.499638
     16          8           0        0.801185   -3.831230    0.717731
     17          7           0       -2.665703    2.334411    2.100421
     18          6           0       -2.223419    1.760367    3.194817
     19          6           0       -1.535131    2.741483    3.962136
     20          6           0       -1.503206    3.983234    3.260600
     21          6           0       -2.298680    3.675964    2.074487
     22          6           0       -0.877647    2.355302    5.254566
     23          6           0       -0.840061    5.239730    3.615149
     24          8           0       -0.174023    5.313798    4.630704
     25          6           0       -0.954480    6.511933    2.843540
     26          7           0       -3.285940    3.050461   -0.858808
     27          6           0       -2.941805    4.269730   -0.379580
     28          6           0       -3.247521    5.416472   -1.321660
     29          6           0       -3.774214    4.570318   -2.598664
     30          6           0       -3.801897    3.149032   -2.098280
     31          6           0       -4.168585    6.547279   -0.790763
     32          6           0       -3.023481    4.556428   -4.006909
     33          6           0       -2.988637    5.951964   -4.773549
     34          7           0       -4.455275    0.364305   -1.179384
     35          6           0       -4.794766    0.851174   -2.423453
     36          6           0       -5.426268   -0.240888   -3.210222
     37          6           0       -5.405254   -1.346218   -2.359538
     38          6           0       -4.786586   -0.889410   -1.149202
     39          6           0       -5.721707   -0.213984   -4.707513
     40          6           0       -5.694180   -2.770956   -2.267490
     41          8           0       -6.277075   -3.546457   -3.005055
     42          6           0       -5.201189   -3.241325   -0.813441
     43          6           0       -6.433214   -3.490030    0.021488
     44          8           0       -7.304120   -2.713987    0.359473
     45          8           0       -6.622298   -4.871580    0.245372
     46          6           0       -7.967231   -5.171315    0.769653
     47          6           0        2.017974   -4.602900    0.468187
     48          6           0        2.999356   -3.715461   -0.321402
     49          6           0        3.135020   -3.453381   -1.626359
     50          6           0        2.188103   -3.886388   -2.781406
     51          6           0        4.205664   -2.589606   -2.095313
     52          6           0        4.168292   -1.121783   -1.556769
     53          6           0        4.869659   -0.095302   -2.506525
     54          6           0        5.657871    1.059999   -1.839203
     55          6           0        5.820267    2.287489   -2.756832
     56          6           0        6.975926    0.651388   -1.152147
     57          6           0        6.797396    0.382184    0.386043
     58          6           0        7.375260   -0.917869    0.862789
     59          6           0        8.591184   -0.713224    1.879211
     60          6           0        8.288002   -1.350114    3.273683
     61          6           0        9.954584   -1.300394    1.304512
     62          6           0       11.009502   -0.293420    0.867414
     63          6           0       11.171643   -0.235502   -0.642460
     64          6           0       12.454790    0.587692   -0.913494
     65          6           0       12.357001    1.434360   -2.217559
     66          6           0       13.674305   -0.238173   -0.920278
     67          1           0       -2.027456    0.028869    4.404974
     68          1           0       -2.174254    5.607364    0.874469
     69          1           0       -4.751297    2.529296   -3.852627
     70          1           0       -4.648230   -3.503204    2.135660
     71          1           0       -2.307886   -2.636916    3.697314
     72          1           0       -3.729023   -3.148301    5.091657
     73          1           0       -5.170132   -2.567188    3.985563
     74          1           0       -4.264007   -1.434252    4.885647
     75          1           0       -3.092508   -4.937615    1.012642
     76          1           0       -2.168653   -4.558117    2.489497
     77          1           0       -1.291179   -2.584828    1.104548
     78          1           0       -2.059235   -3.383408   -0.251134
     79          1           0       -1.253313    2.937948    6.096079
     80          1           0        0.165144    2.550562    5.005547
     81          1           0       -0.855329    1.291730    5.492033
     82          1           0       -1.982269    6.869536    2.776048
     83          1           0       -0.509095    6.416079    1.853509
     84          1           0       -0.437091    7.255774    3.450758
     85          1           0       -2.259216    5.839420   -1.501231
     86          1           0       -4.798356    4.895914   -2.782657
     87          1           0       -4.324320    7.204455   -1.645836
     88          1           0       -3.716063    7.104173    0.028978
     89          1           0       -5.029460    6.022882   -0.375220
     90          1           0       -3.480970    3.900277   -4.747571
     91          1           0       -1.982376    4.256669   -3.885604
     92          1           0       -3.886302    6.101449   -5.374159
     93          1           0       -2.094611    5.987203   -5.396772
     94          1           0       -2.878372    6.737450   -4.026655
     95          1           0       -6.657488   -0.722588   -4.939477
     96          1           0       -4.873278   -0.608917   -5.264786
     97          1           0       -5.687568    0.841479   -4.977903
     98          1           0       -4.666438   -4.190521   -0.861047
     99          1           0       -8.143577   -4.781135    1.771682
    100          1           0       -8.143814   -6.245075    0.836190
    101          1           0       -8.731136   -4.876772    0.049557
    102          1           0        1.955760   -5.576195   -0.017863
    103          1           0        2.362840   -4.814885    1.480269
    104          1           0        3.739643   -3.183352    0.275247
    105          1           0        2.706634   -4.523097   -3.498659
    106          1           0        1.746642   -3.023123   -3.280172
    107          1           0        1.379777   -4.569194   -2.518723
    108          1           0        4.330204   -2.680525   -3.174452
    109          1           0        5.118356   -3.009286   -1.673193
    110          1           0        4.618883   -1.133475   -0.564749
    111          1           0        3.125756   -0.819442   -1.464691
    112          1           0        4.102029    0.264885   -3.190858
    113          1           0        5.441943   -0.732544   -3.180403
    114          1           0        5.052914    1.370956   -0.987289
    115          1           0        4.938521    2.477318   -3.369273
    116          1           0        6.714874    2.324481   -3.378793
    117          1           0        5.819543    3.152083   -2.093300
    118          1           0        7.715483    1.448811   -1.228576
    119          1           0        7.264237   -0.296874   -1.605930
    120          1           0        5.742734    0.300543    0.649166
    121          1           0        7.154157    1.239253    0.959039
    122          1           0        7.721193   -1.513574    0.018215
    123          1           0        6.537402   -1.466161    1.294587
    124          1           0        8.754245    0.354606    2.027587
    125          1           0        7.215972   -1.540720    3.333976
    126          1           0        8.451636   -0.626033    4.072578
    127          1           0        8.677130   -2.362208    3.382739
    128          1           0        9.821946   -1.977117    0.460478
    129          1           0       10.430506   -1.943658    2.044549
    130          1           0       11.965878   -0.565290    1.314611
    131          1           0       10.793972    0.723636    1.196180
    132          1           0       10.287386    0.322495   -0.952756
    133          1           0       11.266475   -1.285742   -0.915613
    134          1           0       12.622612    1.329329   -0.132184
    135          1           0       13.076656    1.072154   -2.952807
    136          1           0       12.633474    2.466336   -2.001825
    137          1           0       11.367628    1.312503   -2.659163
    138          1           0       14.470821    0.152414   -0.286902
    139          1           0       14.087915   -0.544996   -1.880905
    140          1           0       13.467270   -1.215779   -0.485153
 ---------------------------------------------------------------------

 SCF Done:  E(RwB97XD) =  -3007.86001524     A.U. after   20 cycles

 Excitation energies and oscillator strengths:

 Excited State   1:      Singlet-A      1.6222 eV  764.28 nm  f=0.3606  <S**2>=0.000
     245 -> 248        0.17713
     246 -> 247        0.68391
     245 <- 248        0.11613
 This state for optimization and/or second-order correction.
 Total Energy, E(TD-HF/TD-DFT) =  -3007.80039917
 Copying the excited state density for this state as the 1-particle RhoCI density.

 Excited State   2:      Singlet-A      2.1339 eV  581.03 nm  f=0.1323  <S**2>=0.000
     245 -> 247        0.64663
     246 -> 248       -0.26962

 Excited State   3:      Singlet-A      3.3615 eV  368.84 nm  f=0.0155  <S**2>=0.000
     243 -> 247        0.65147
     246 -> 248        0.21462

 Excited State   4:      Singlet-A      3.5491 eV  349.34 nm  f=0.0183  <S**2>=0.000
     241 -> 247        0.16423
     242 -> 247        0.48579
     242 -> 248        0.16499
     242 -> 249       -0.26570
     242 -> 250        0.25825
     246 -> 248        0.11329

 Excited State   5:      Singlet-A      3.5910 eV  345.27 nm  f=0.1943  <S**2>=0.000
     240 -> 247       -0.32872
     240 -> 249       -0.24081
     240 -> 250       -0.13969
     241 -> 247        0.26641
     242 -> 247       -0.19853
     243 -> 247       -0.11840
     245 -> 247        0.14345
     246 -> 248        0.35806

 The electronic state is 1-A.
 Alpha  occ. eigenvalues --  -46.97536 -19.30727 -19.29534 -19.24966 -19.24568
 Alpha  occ. eigenvalues --  -19.23904 -19.23358 -14.47322 -14.46871 -14.44862
 Alpha  occ. eigenvalues --  -14.44804 -10.43202 -10.43188 -10.39803 -10.38478
 Alpha  occ. eigenvalues --  -10.36545 -10.35931 -10.35863 -10.35148 -10.34941
 Alpha  occ. eigenvalues --  -10.34732 -10.34682 -10.34627 -10.34301 -10.33535
 Alpha  occ. eigenvalues --  -10.33112 -10.32838 -10.32682 -10.32660 -10.32613
 Alpha  occ. eigenvalues --  -10.32551 -10.32537 -10.32484 -10.32451 -10.31647
 Alpha  occ. eigenvalues --  -10.31570 -10.31456 -10.31337 -10.31326 -10.31186
 Alpha  occ. eigenvalues --  -10.30826 -10.30807 -10.30567 -10.30303 -10.30048
 Alpha  occ. eigenvalues --  -10.29971 -10.29819 -10.29686 -10.29590 -10.29501
 Alpha  occ. eigenvalues --  -10.29417 -10.29144 -10.28990 -10.28970 -10.28844
 Alpha  occ. eigenvalues --  -10.28825 -10.28770 -10.28392 -10.28281 -10.28279
 Alpha  occ. eigenvalues --  -10.28256 -10.28114 -10.28109 -10.27803 -10.27645
 Alpha  occ. eigenvalues --  -10.27524  -3.23245  -1.96812  -1.96362  -1.96197
 Alpha  occ. eigenvalues --   -1.18892  -1.17671  -1.12659  -1.12542  -1.09073
 Alpha  occ. eigenvalues --   -1.08522  -1.07491  -1.06758  -1.06606  -1.05948
 Alpha  occ. eigenvalues --   -0.94141  -0.92624  -0.92340  -0.91624  -0.91075
 Alpha  occ. eigenvalues --   -0.90739  -0.90354  -0.89361  -0.88846  -0.88778
 Alpha  occ. eigenvalues --   -0.88476  -0.87624  -0.86038  -0.85637  -0.85470
 Alpha  occ. eigenvalues --   -0.84591  -0.83965  -0.83198  -0.82764  -0.82296
 Alpha  occ. eigenvalues --   -0.81926  -0.80132  -0.79643  -0.79474  -0.77973
 Alpha  occ. eigenvalues --   -0.77571  -0.77326  -0.77131  -0.76335  -0.75994
 Alpha  occ. eigenvalues --   -0.75443  -0.75003  -0.73529  -0.72652  -0.71468
 Alpha  occ. eigenvalues --   -0.71032  -0.70354  -0.69956  -0.68635  -0.68045
 Alpha  occ. eigenvalues --   -0.67722  -0.67048  -0.66718  -0.66455  -0.65767
 Alpha  occ. eigenvalues --   -0.65580  -0.65152  -0.64808  -0.63624  -0.61877
 Alpha  occ. eigenvalues --   -0.61757  -0.61376  -0.60971  -0.60580  -0.60115
 Alpha  occ. eigenvalues --   -0.60069  -0.59434  -0.58438  -0.57977  -0.57904
 Alpha  occ. eigenvalues --   -0.57333  -0.56864  -0.56592  -0.56226  -0.56181
 Alpha  occ. eigenvalues --   -0.55827  -0.55332  -0.55146  -0.54944  -0.54709
 Alpha  occ. eigenvalues --   -0.54584  -0.54338  -0.54207  -0.54158  -0.53965
 Alpha  occ. eigenvalues --   -0.53650  -0.53365  -0.53153  -0.53033  -0.52675
 Alpha  occ. eigenvalues --   -0.52614  -0.52288  -0.51820  -0.51509  -0.51365
 Alpha  occ. eigenvalues --   -0.51274  -0.51127  -0.51050  -0.50884  -0.50866
 Alpha  occ. eigenvalues --   -0.50578  -0.50251  -0.50071  -0.49761  -0.49677
 Alpha  occ. eigenvalues --   -0.49425  -0.49152  -0.49059  -0.48734  -0.48555
 Alpha  occ. eigenvalues --   -0.48435  -0.48229  -0.47843  -0.47789  -0.47776
 Alpha  occ. eigenvalues --   -0.47622  -0.47495  -0.47338  -0.47259  -0.46978
 Alpha  occ. eigenvalues --   -0.46705  -0.46499  -0.46245  -0.46075  -0.45833
 Alpha  occ. eigenvalues --   -0.45739  -0.45444  -0.45377  -0.45035  -0.44697
 Alpha  occ. eigenvalues --   -0.44635  -0.44499  -0.44251  -0.44072  -0.43859
 Alpha  occ. eigenvalues --   -0.43735  -0.43391  -0.43308  -0.42935  -0.42877
 Alpha  occ. eigenvalues --   -0.42766  -0.42648  -0.42519  -0.42325  -0.42105
 Alpha  occ. eigenvalues --   -0.42041  -0.41810  -0.41591  -0.41241  -0.40828
 Alpha  occ. eigenvalues --   -0.40720  -0.40201  -0.40068  -0.39845  -0.39305
 Alpha  occ. eigenvalues --   -0.39107  -0.38735  -0.38580  -0.38427  -0.38238
 Alpha  occ. eigenvalues --   -0.38144  -0.37691  -0.36973  -0.36479  -0.36324
 Alpha  occ. eigenvalues --   -0.36116  -0.35518  -0.35348  -0.33762  -0.33205
 Alpha  occ. eigenvalues --   -0.33035  -0.32970  -0.32351  -0.31870  -0.26225
 Alpha  occ. eigenvalues --   -0.23343
 Alpha virt. eigenvalues --   -0.07685   0.00055   0.01996   0.03830   0.04283
 Alpha virt. eigenvalues --    0.06801   0.07093   0.07422   0.08178   0.08953
 Alpha virt. eigenvalues --    0.10499   0.11100   0.11171   0.11487   0.12438

 Mulliken charges:
               1
     1  Mg   0.959983
     2  C   -0.022972
     3  C   -0.077554
     4  C   -0.056583
     5  C   -0.082552
     6  N   -0.306117
     7  C   -0.080145
     8  C   -0.034298
     9  C   -0.123370
    10  C    0.070676
    11  C    0.030386
    12  C    0.044447
    13  C   -0.040692
    14  C    0.241103
    15  O   -0.300894
    16  O   -0.320974
    17  N   -0.435551
    18  C    0.125129
    19  C   -0.159670
    20  C   -0.037922
    21  C    0.182779
    22  C    0.078755
    23  C   -0.008371
    24  O   -0.231249
    25  C    0.001045
    26  N   -0.342953
    27  C   -0.021905
    28  C   -0.080698
    29  C   -0.086082
    30  C    0.073689
    31  C    0.035762
    32  C   -0.052314
    33  C   -0.053822
    34  N   -0.376559
    35  C    0.107697
    36  C   -0.202586
    37  C   -0.032164
    38  C    0.160069
    39  C    0.084055
    40  C    0.151109
    41  O   -0.193967
    42  C   -0.099117
    43  C    0.267941
    44  O   -0.239641
    45  O   -0.390342
    46  C    0.145364
    47  C    0.277416
    48  C   -0.170922
    49  C   -0.169554
    50  C    0.009609
    51  C    0.018217
    52  C   -0.039001
    53  C    0.015665
    54  C   -0.159125
    55  C   -0.002733
    56  C    0.024812
    57  C   -0.077820
    58  C    0.026419
    59  C   -0.178367
    60  C    0.012145
    61  C    0.051148
    62  C   -0.088132
    63  C    0.022656
    64  C   -0.220610
    65  C    0.018966
    66  C    0.006773
    67  H   -0.004646
    68  H   -0.031251
    69  H    0.002094
    70  H    0.053140
    71  H    0.032034
    72  H    0.055808
    73  H    0.042476
    74  H    0.029120
    75  H    0.049344
    76  H    0.036767
    77  H    0.045908
    78  H    0.051307
    79  H    0.065870
    80  H    0.057609
    81  H    0.022118
    82  H    0.053715
    83  H    0.064401
    84  H    0.051430
    85  H    0.035856
    86  H    0.034715
    87  H    0.052444
    88  H    0.039496
    89  H    0.045608
    90  H    0.043206
    91  H    0.034929
    92  H    0.044404
    93  H    0.041519
    94  H    0.026118
    95  H    0.071760
    96  H    0.058702
    97  H    0.016276
    98  H    0.070317
    99  H    0.049998
   100  H    0.041858
   101  H    0.055151
   102  H    0.066220
   103  H    0.030989
   104  H    0.009999
   105  H    0.037997
   106  H    0.050180
   107  H    0.037926
   108  H    0.019789
   109  H    0.033528
   110  H    0.019713
   111  H    0.033303
   112  H    0.012363
   113  H    0.010134
   114  H    0.020547
   115  H    0.018406
   116  H    0.039572
   117  H    0.020838
   118  H    0.032998
   119  H    0.017721
   120  H    0.020419
   121  H    0.022354
   122  H    0.012411
   123  H    0.016261
   124  H    0.021394
   125  H    0.004027
   126  H    0.037501
   127  H    0.034411
   128  H    0.003340
   129  H    0.008587
   130  H    0.011951
   131  H    0.012544
   132  H    0.023126
   133  H    0.024671
   134  H    0.021325
   135  H    0.014529
   136  H    0.030550
   137  H    0.024342
   138  H    0.028940
   139  H    0.025353
   140  H    0.003654
 Sum of Mulliken charges =  -0.00000

 Dipole moment (field-independent basis, Debye):
    X=              0.7780    Y=              3.7895    Z=              0.3807  Tot=              3.8872
 Quadrupole moment (field-independent basis, Debye-Ang):
   XX=           -409.4467   YY=           -399.4476   ZZ=           -402.9147
   XY=            -26.2678   XZ=            -14.8741   YZ=            -43.3811

 Normal termination of Gaussian 16 at Wed May  4 18:03:22 2022.
