 Gaussian 16, Revision A.03,
 Gaussian 16:  ES64L-G16RevA.03 25-Dec-2016

 --------------------
 #p ZINDO=(nstates=5)
 --------------------

 -----------------------------
 step_201_chromophore_26 ZINDO
 -----------------------------
 Symbolic Z-matrix:
 Charge =  0 Multiplicity = 1

                         Standard orientation:
 ---------------------------------------------------------------------
 Center     Atomic      Atomic             Coordinates (Angstroms)
 Number     Number       Type             X           Y           Z
 ---------------------------------------------------------------------
      1         12           0       -3.718019    1.412698    0.521868
      2          6           0       -4.496947   -1.983275   -0.225603
      3          6           0       -2.457541    0.346851    3.452888
      4          6           0       -2.464616    4.555092    0.899310
      5          6           0       -4.544468    2.212020   -2.828977
      6          7           0       -3.440688   -0.687956    1.437778
      7          6           0       -3.836822   -1.916347    0.960261
      8          6           0       -3.671891   -3.034342    2.014319
      9          6           0       -3.200732   -2.246692    3.208714
     10          6           0       -2.928320   -0.799508    2.659682
     11          6           0       -4.182956   -2.417594    4.422946
     12          6           0       -2.662654   -4.136150    1.613383
     13          6           0       -1.590821   -3.558411    0.716973
     14          6           0       -0.326244   -4.345542    0.210203
     15          8           0       -0.380444   -5.373172   -0.499638
     16          8           0        0.801185   -3.831230    0.717731
     17          7           0       -2.665703    2.334411    2.100421
     18          6           0       -2.223419    1.760367    3.194817
     19          6           0       -1.535131    2.741483    3.962136
     20          6           0       -1.503206    3.983234    3.260600
     21          6           0       -2.298680    3.675964    2.074487
     22          6           0       -0.877647    2.355302    5.254566
     23          6           0       -0.840061    5.239730    3.615149
     24          8           0       -0.174023    5.313798    4.630704
     25          6           0       -0.954480    6.511933    2.843540
     26          7           0       -3.285940    3.050461   -0.858808
     27          6           0       -2.941805    4.269730   -0.379580
     28          6           0       -3.247521    5.416472   -1.321660
     29          6           0       -3.774214    4.570318   -2.598664
     30          6           0       -3.801897    3.149032   -2.098280
     31          6           0       -4.168585    6.547279   -0.790763
     32          6           0       -3.023481    4.556428   -4.006909
     33          6           0       -2.988637    5.951964   -4.773549
     34          7           0       -4.455275    0.364305   -1.179384
     35          6           0       -4.794766    0.851174   -2.423453
     36          6           0       -5.426268   -0.240888   -3.210222
     37          6           0       -5.405254   -1.346218   -2.359538
     38          6           0       -4.786586   -0.889410   -1.149202
     39          6           0       -5.721707   -0.213984   -4.707513
     40          6           0       -5.694180   -2.770956   -2.267490
     41          8           0       -6.277075   -3.546457   -3.005055
     42          6           0       -5.201189   -3.241325   -0.813441
     43          6           0       -6.433214   -3.490030    0.021488
     44          8           0       -7.304120   -2.713987    0.359473
     45          8           0       -6.622298   -4.871580    0.245372
     46          6           0       -7.967231   -5.171315    0.769653
     47          6           0        2.017974   -4.602900    0.468187
     48          6           0        2.999356   -3.715461   -0.321402
     49          6           0        3.135020   -3.453381   -1.626359
     50          6           0        2.188103   -3.886388   -2.781406
     51          6           0        4.205664   -2.589606   -2.095313
     52          6           0        4.168292   -1.121783   -1.556769
     53          6           0        4.869659   -0.095302   -2.506525
     54          6           0        5.657871    1.059999   -1.839203
     55          6           0        5.820267    2.287489   -2.756832
     56          6           0        6.975926    0.651388   -1.152147
     57          6           0        6.797396    0.382184    0.386043
     58          6           0        7.375260   -0.917869    0.862789
     59          6           0        8.591184   -0.713224    1.879211
     60          6           0        8.288002   -1.350114    3.273683
     61          6           0        9.954584   -1.300394    1.304512
     62          6           0       11.009502   -0.293420    0.867414
     63          6           0       11.171643   -0.235502   -0.642460
     64          6           0       12.454790    0.587692   -0.913494
     65          6           0       12.357001    1.434360   -2.217559
     66          6           0       13.674305   -0.238173   -0.920278
     67          1           0       -2.027456    0.028869    4.404974
     68          1           0       -2.174254    5.607364    0.874469
     69          1           0       -4.751297    2.529296   -3.852627
     70          1           0       -4.648230   -3.503204    2.135660
     71          1           0       -2.307886   -2.636916    3.697314
     72          1           0       -3.729023   -3.148301    5.091657
     73          1           0       -5.170132   -2.567188    3.985563
     74          1           0       -4.264007   -1.434252    4.885647
     75          1           0       -3.092508   -4.937615    1.012642
     76          1           0       -2.168653   -4.558117    2.489497
     77          1           0       -1.291179   -2.584828    1.104548
     78          1           0       -2.059235   -3.383408   -0.251134
     79          1           0       -1.253313    2.937948    6.096079
     80          1           0        0.165144    2.550562    5.005547
     81          1           0       -0.855329    1.291730    5.492033
     82          1           0       -1.982269    6.869536    2.776048
     83          1           0       -0.509095    6.416079    1.853509
     84          1           0       -0.437091    7.255774    3.450758
     85          1           0       -2.259216    5.839420   -1.501231
     86          1           0       -4.798356    4.895914   -2.782657
     87          1           0       -4.324320    7.204455   -1.645836
     88          1           0       -3.716063    7.104173    0.028978
     89          1           0       -5.029460    6.022882   -0.375220
     90          1           0       -3.480970    3.900277   -4.747571
     91          1           0       -1.982376    4.256669   -3.885604
     92          1           0       -3.886302    6.101449   -5.374159
     93          1           0       -2.094611    5.987203   -5.396772
     94          1           0       -2.878372    6.737450   -4.026655
     95          1           0       -6.657488   -0.722588   -4.939477
     96          1           0       -4.873278   -0.608917   -5.264786
     97          1           0       -5.687568    0.841479   -4.977903
     98          1           0       -4.666438   -4.190521   -0.861047
     99          1           0       -8.143577   -4.781135    1.771682
    100          1           0       -8.143814   -6.245075    0.836190
    101          1           0       -8.731136   -4.876772    0.049557
    102          1           0        1.955760   -5.576195   -0.017863
    103          1           0        2.362840   -4.814885    1.480269
    104          1           0        3.739643   -3.183352    0.275247
    105          1           0        2.706634   -4.523097   -3.498659
    106          1           0        1.746642   -3.023123   -3.280172
    107          1           0        1.379777   -4.569194   -2.518723
    108          1           0        4.330204   -2.680525   -3.174452
    109          1           0        5.118356   -3.009286   -1.673193
    110          1           0        4.618883   -1.133475   -0.564749
    111          1           0        3.125756   -0.819442   -1.464691
    112          1           0        4.102029    0.264885   -3.190858
    113          1           0        5.441943   -0.732544   -3.180403
    114          1           0        5.052914    1.370956   -0.987289
    115          1           0        4.938521    2.477318   -3.369273
    116          1           0        6.714874    2.324481   -3.378793
    117          1           0        5.819543    3.152083   -2.093300
    118          1           0        7.715483    1.448811   -1.228576
    119          1           0        7.264237   -0.296874   -1.605930
    120          1           0        5.742734    0.300543    0.649166
    121          1           0        7.154157    1.239253    0.959039
    122          1           0        7.721193   -1.513574    0.018215
    123          1           0        6.537402   -1.466161    1.294587
    124          1           0        8.754245    0.354606    2.027587
    125          1           0        7.215972   -1.540720    3.333976
    126          1           0        8.451636   -0.626033    4.072578
    127          1           0        8.677130   -2.362208    3.382739
    128          1           0        9.821946   -1.977117    0.460478
    129          1           0       10.430506   -1.943658    2.044549
    130          1           0       11.965878   -0.565290    1.314611
    131          1           0       10.793972    0.723636    1.196180
    132          1           0       10.287386    0.322495   -0.952756
    133          1           0       11.266475   -1.285742   -0.915613
    134          1           0       12.622612    1.329329   -0.132184
    135          1           0       13.076656    1.072154   -2.952807
    136          1           0       12.633474    2.466336   -2.001825
    137          1           0       11.367628    1.312503   -2.659163
    138          1           0       14.470821    0.152414   -0.286902
    139          1           0       14.087915   -0.544996   -1.880905
    140          1           0       13.467270   -1.215779   -0.485153
 ---------------------------------------------------------------------

 SCF Done:  E(RZINDO/S) =  -474.254144512     A.U. after   20 cycles

 Excitation energies and oscillator strengths:

 Excited State   1:      Singlet-A      1.2251 eV 1012.05 nm  f=0.5877  <S**2>=0.000
     175 ->178         0.19389
     176 ->177         0.66181
 This state for optimization and/or second-order correction.
 Total Energy, E(CIS/TDA) =  -474.209123489
 Copying the excited state density for this state as the 1-particle RhoCI density.

 Excited State   2:      Singlet-A      1.8569 eV  667.70 nm  f=0.0723  <S**2>=0.000
     175 ->177         0.56785
     176 ->178        -0.39342

 Excited State   3:      Singlet-A      2.9032 eV  427.07 nm  f=0.0002  <S**2>=0.000
     168 ->177         0.14136
     168 ->179        -0.16557
     168 ->181         0.17658
     168 ->185         0.11344
     169 ->177         0.24748
     169 ->178        -0.16017
     169 ->179        -0.28560
     169 ->180        -0.12298
     169 ->181         0.30382
     169 ->185         0.19522
     169 ->187         0.11605
     169 ->196         0.10089

 Excited State   4:      Singlet-A      2.9552 eV  419.55 nm  f=0.3293  <S**2>=0.000
     175 ->177        -0.21713
     176 ->178        -0.34771
     176 ->179         0.49542
     176 ->180         0.14125
     176 ->181         0.15901

 Excited State   5:      Singlet-A      2.9863 eV  415.18 nm  f=0.4684  <S**2>=0.000
     172 ->177        -0.13431
     175 ->177         0.22472
     176 ->178         0.33988
     176 ->179         0.19766
     176 ->180         0.45662
     176 ->181         0.16640

 The electronic state is 1-A.
 Alpha  occ. eigenvalues --   -1.84559  -1.81981  -1.81088  -1.73926  -1.72290
 Alpha  occ. eigenvalues --   -1.71537  -1.65697  -1.62230  -1.61663  -1.57698
 Alpha  occ. eigenvalues --   -1.55258  -1.50897  -1.49160  -1.47593  -1.45239
 Alpha  occ. eigenvalues --   -1.44000  -1.42526  -1.41127  -1.38411  -1.37588
 Alpha  occ. eigenvalues --   -1.36173  -1.33720  -1.32256  -1.31129  -1.29272
 Alpha  occ. eigenvalues --   -1.28383  -1.26472  -1.22662  -1.21507  -1.19009
 Alpha  occ. eigenvalues --   -1.16954  -1.15910  -1.15557  -1.13612  -1.13309
 Alpha  occ. eigenvalues --   -1.11593  -1.11298  -1.09471  -1.05186  -1.03659
 Alpha  occ. eigenvalues --   -1.03165  -1.01494  -0.98756  -0.97698  -0.96929
 Alpha  occ. eigenvalues --   -0.94911  -0.94391  -0.93323  -0.93024  -0.91512
 Alpha  occ. eigenvalues --   -0.91270  -0.90591  -0.90153  -0.89709  -0.87398
 Alpha  occ. eigenvalues --   -0.86259  -0.84779  -0.83269  -0.81016  -0.80076
 Alpha  occ. eigenvalues --   -0.79562  -0.79225  -0.78053  -0.76853  -0.76768
 Alpha  occ. eigenvalues --   -0.76342  -0.75888  -0.74986  -0.74695  -0.74023
 Alpha  occ. eigenvalues --   -0.73675  -0.73366  -0.72180  -0.71752  -0.71233
 Alpha  occ. eigenvalues --   -0.70835  -0.69992  -0.69143  -0.68416  -0.68080
 Alpha  occ. eigenvalues --   -0.66894  -0.66584  -0.66224  -0.66042  -0.65717
 Alpha  occ. eigenvalues --   -0.65260  -0.64817  -0.64599  -0.64220  -0.63982
 Alpha  occ. eigenvalues --   -0.63730  -0.63366  -0.62820  -0.62683  -0.62411
 Alpha  occ. eigenvalues --   -0.61391  -0.60731  -0.60470  -0.59656  -0.59490
 Alpha  occ. eigenvalues --   -0.59405  -0.59358  -0.58838  -0.58525  -0.58469
 Alpha  occ. eigenvalues --   -0.57840  -0.57669  -0.57251  -0.56930  -0.56831
 Alpha  occ. eigenvalues --   -0.56416  -0.55693  -0.55032  -0.54925  -0.54661
 Alpha  occ. eigenvalues --   -0.54182  -0.53828  -0.53357  -0.53268  -0.53025
 Alpha  occ. eigenvalues --   -0.52769  -0.52686  -0.52058  -0.51947  -0.51451
 Alpha  occ. eigenvalues --   -0.51298  -0.50711  -0.50391  -0.50131  -0.49979
 Alpha  occ. eigenvalues --   -0.49924  -0.49620  -0.49419  -0.49377  -0.49293
 Alpha  occ. eigenvalues --   -0.48789  -0.48532  -0.48190  -0.48014  -0.47874
 Alpha  occ. eigenvalues --   -0.47725  -0.47197  -0.47008  -0.46966  -0.46730
 Alpha  occ. eigenvalues --   -0.46717  -0.46412  -0.46171  -0.45909  -0.45735
 Alpha  occ. eigenvalues --   -0.45484  -0.45280  -0.44896  -0.44309  -0.43947
 Alpha  occ. eigenvalues --   -0.43593  -0.43289  -0.42841  -0.42574  -0.42483
 Alpha  occ. eigenvalues --   -0.42143  -0.41849  -0.41475  -0.38707  -0.38602
 Alpha  occ. eigenvalues --   -0.38318  -0.37821  -0.35440  -0.35347  -0.34780
 Alpha  occ. eigenvalues --   -0.33480  -0.33078  -0.32671  -0.32283  -0.26738
 Alpha  occ. eigenvalues --   -0.22143
 Alpha virt. eigenvalues --   -0.09075  -0.02361  -0.00980   0.00453   0.00798
 Alpha virt. eigenvalues --    0.01549   0.02437   0.02800   0.04486   0.05065
 Alpha virt. eigenvalues --    0.05942   0.06860   0.07016   0.07404   0.07834

 Mulliken charges:
               1
     1  Mg   0.443455
     2  C   -0.040122
     3  C   -0.096771
     4  C   -0.104941
     5  C   -0.076653
     6  N   -0.282722
     7  C    0.108898
     8  C    0.014366
     9  C    0.004792
    10  C    0.137438
    11  C   -0.058133
    12  C   -0.011617
    13  C   -0.000428
    14  C    0.461296
    15  O   -0.535999
    16  O   -0.245103
    17  N   -0.308632
    18  C    0.126775
    19  C    0.054712
    20  C   -0.047364
    21  C    0.109826
    22  C   -0.043184
    23  C    0.334848
    24  O   -0.527442
    25  C   -0.027843
    26  N   -0.270523
    27  C    0.138688
    28  C   -0.001359
    29  C   -0.002293
    30  C    0.118046
    31  C   -0.046083
    32  C   -0.034259
    33  C   -0.066908
    34  N   -0.288753
    35  C    0.074567
    36  C    0.020601
    37  C   -0.051655
    38  C    0.122982
    39  C   -0.039087
    40  C    0.338484
    41  O   -0.507362
    42  C    0.046437
    43  C    0.480764
    44  O   -0.513279
    45  O   -0.281424
    46  C    0.077242
    47  C    0.108924
    48  C   -0.098470
    49  C    0.017696
    50  C   -0.049406
    51  C   -0.018140
    52  C   -0.033010
    53  C   -0.037585
    54  C   -0.005799
    55  C   -0.057043
    56  C   -0.035127
    57  C   -0.039936
    58  C   -0.033786
    59  C   -0.016294
    60  C   -0.063547
    61  C   -0.042712
    62  C   -0.038100
    63  C   -0.036197
    64  C   -0.006968
    65  C   -0.065114
    66  C   -0.050523
    67  H    0.017041
    68  H    0.032936
    69  H    0.035255
    70  H    0.038109
    71  H    0.024183
    72  H    0.035886
    73  H    0.033111
    74  H    0.019089
    75  H    0.030763
    76  H    0.026123
    77  H    0.032741
    78  H    0.035890
    79  H    0.044128
    80  H    0.036955
    81  H    0.022093
    82  H    0.033614
    83  H    0.039373
    84  H    0.034404
    85  H    0.027320
    86  H    0.026968
    87  H    0.027907
    88  H    0.023335
    89  H    0.029979
    90  H    0.028796
    91  H    0.023428
    92  H    0.025116
    93  H    0.019417
    94  H    0.015934
    95  H    0.045622
    96  H    0.034967
    97  H    0.017550
    98  H    0.061258
    99  H    0.044032
   100  H    0.021316
   101  H    0.046568
   102  H    0.061907
   103  H    0.028301
   104  H    0.020304
   105  H    0.023659
   106  H    0.030401
   107  H    0.024836
   108  H    0.021437
   109  H    0.015777
   110  H    0.027468
   111  H    0.018622
   112  H    0.013608
   113  H    0.015772
   114  H    0.017166
   115  H    0.014193
   116  H    0.025447
   117  H    0.010232
   118  H    0.024724
   119  H    0.024423
   120  H    0.014043
   121  H    0.019656
   122  H    0.018895
   123  H    0.018953
   124  H    0.026182
   125  H    0.005095
   126  H    0.026109
   127  H    0.029251
   128  H    0.017597
   129  H    0.010946
   130  H    0.013808
   131  H    0.015126
   132  H    0.025307
   133  H    0.034740
   134  H    0.019291
   135  H    0.014751
   136  H    0.020018
   137  H    0.019824
   138  H    0.015316
   139  H    0.019129
   140  H    0.003330
 Sum of Mulliken charges =  -0.00000

 Dipole moment (field-independent basis, Debye):
    X=              1.7646    Y=              4.6676    Z=              0.4223  Tot=              5.0079
 N-N= 4.520161057634D+03 E-N= 0.000000000000D+00  KE=-9.714118822997D+03
 Leave Link  601 at Wed May  4 18:23:37 2022, MaxMem=  6710886400 cpu:               0.8 elap:               0.0
 (Enter /sw/apps/gaussian-16.0/g16/l9999.exe)
 1\1\GINC-BP1-COMPUTE166\SP\RZINDO CIS\STO-3G\C55H74Mg1N4O6\OF15641\04-
 May-2022\0\\#p ZINDO=(nstates=5)\\step_201_chromophore_26 ZINDO\\0,1\M
 g,0,-9.145,18.428,42.791\C,0,-5.593,18.186,42.942\C,0,-8.773,21.735,42
 .3\C,0,-12.468,18.492,42.055\C,0,-9.261,14.888,42.72\N,0,-7.288,19.778
 ,42.551\C,0,-5.952,19.465,42.656\C,0,-5.056,20.724,42.672\C,0,-6.088,2
 1.821,42.649\C,0,-7.455,21.088,42.396\C,0,-5.955,22.75,43.909\C,0,-4.0
 82,20.821,41.474\C,0,-4.676,20.136,40.264\C,0,-4.033,20.137,38.828\O,0

 Normal termination of Gaussian 16 at Wed May  4 18:23:37 2022.
