 Gaussian 16, Revision A.03,
 Gaussian 16:  ES64L-G16RevA.03 25-Dec-2016

 ------------------------------
 #p blyp/Def2SVP td=(nstates=5)
 ------------------------------

 -------------------------------------------------
 step_901_chromophore_6 TDDFT with blyp functional
 -------------------------------------------------
 Symbolic Z-matrix:
 Charge =  0 Multiplicity = 1

                         Standard orientation:
 ---------------------------------------------------------------------
 Center     Atomic      Atomic             Coordinates (Angstroms)
 Number     Number       Type             X           Y           Z
 ---------------------------------------------------------------------
      1         12           0       -5.362174    1.039282   -0.282732
      2          6           0       -4.195415   -2.381058   -0.256236
      3          6           0       -2.218797    2.009317   -0.197310
      4          6           0       -6.563426    3.996193    0.245071
      5          6           0       -8.691021   -0.317942   -0.304306
      6          7           0       -3.477589   -0.089786   -0.098032
      7          6           0       -3.154025   -1.409863   -0.205962
      8          6           0       -1.736853   -1.645818   -0.404741
      9          6           0       -1.045623   -0.295240    0.037672
     10          6           0       -2.275971    0.628459   -0.063037
     11          6           0       -0.341902   -0.350858    1.510767
     12          6           0       -1.365590   -2.087518   -1.771220
     13          6           0       -0.477224   -3.301926   -1.874219
     14          6           0        0.459534   -3.735404   -0.735461
     15          8           0        0.308486   -4.734788   -0.007626
     16          8           0        1.461955   -2.818879   -0.640047
     17          7           0       -4.501703    2.738094   -0.168319
     18          6           0       -3.135226    3.006140   -0.196699
     19          6           0       -2.938796    4.458939   -0.112996
     20          6           0       -4.258755    5.057386   -0.033256
     21          6           0       -5.169840    3.950775    0.025966
     22          6           0       -1.580437    5.100616    0.014289
     23          6           0       -4.655612    6.507924   -0.000379
     24          8           0       -5.835354    6.864785    0.116727
     25          6           0       -3.556210    7.552383    0.032350
     26          7           0       -7.399680    1.713711    0.005401
     27          6           0       -7.568128    3.054890    0.242865
     28          6           0       -9.007554    3.363052    0.662582
     29          6           0       -9.768400    2.050132    0.189929
     30          6           0       -8.592092    1.075664   -0.153293
     31          6           0       -9.195822    3.814142    2.154170
     32          6           0      -10.830506    2.233380   -0.923564
     33          6           0      -12.246102    1.642034   -0.695072
     34          7           0       -6.278091   -0.923473   -0.252957
     35          6           0       -7.654959   -1.233952   -0.288682
     36          6           0       -7.729490   -2.678965   -0.242193
     37          6           0       -6.465853   -3.188790   -0.277448
     38          6           0       -5.618146   -2.077842   -0.212583
     39          6           0       -8.875580   -3.600670   -0.311795
     40          6           0       -5.586475   -4.346368   -0.390868
     41          8           0       -5.798966   -5.540950   -0.558560
     42          6           0       -4.098751   -3.860181   -0.347949
     43          6           0       -3.480483   -4.567146    0.819175
     44          8           0       -3.499404   -4.213253    1.953048
     45          8           0       -2.831374   -5.657138    0.295893
     46          6           0       -2.091931   -6.507567    1.269266
     47          6           0        2.553757   -3.142176    0.299499
     48          6           0        3.846340   -2.817782   -0.433058
     49          6           0        5.059412   -3.286983   -0.107410
     50          6           0        5.420236   -4.095812    1.154724
     51          6           0        6.306073   -2.778171   -0.885148
     52          6           0        6.489449   -1.306972   -0.686777
     53          6           0        7.879429   -0.882211   -0.153548
     54          6           0        8.190629    0.583646   -0.259889
     55          6           0        8.913412    0.984785   -1.543320
     56          6           0        8.822920    1.234545    1.039824
     57          6           0        9.988045    0.362230    1.634355
     58          6           0       10.993977    1.281240    2.345105
     59          6           0       12.458634    0.853450    2.263226
     60          6           0       13.032497    0.517507    3.634558
     61          6           0       13.453862    1.705443    1.447571
     62          6           0       13.170693    1.753097   -0.050157
     63          6           0       14.261166    1.166377   -1.016897
     64          6           0       15.009686    2.236951   -1.867534
     65          6           0       16.515037    1.961291   -2.122259
     66          6           0       14.232954    2.427975   -3.197911
     67          1           0       -1.185492    2.327181   -0.355149
     68          1           0       -6.919925    4.996974    0.496704
     69          1           0       -9.680748   -0.758314   -0.164397
     70          1           0       -1.557945   -2.539831    0.193403
     71          1           0       -0.233037    0.075499   -0.587294
     72          1           0       -0.425415   -1.329225    1.984837
     73          1           0       -0.625774    0.561654    2.034516
     74          1           0        0.717336   -0.135118    1.381164
     75          1           0       -0.749759   -1.351196   -2.285889
     76          1           0       -2.285096   -2.271777   -2.328176
     77          1           0        0.057410   -3.342709   -2.822866
     78          1           0       -1.181060   -4.112751   -2.060793
     79          1           0       -0.841887    4.325760   -0.188201
     80          1           0       -1.431187    5.482449    1.024878
     81          1           0       -1.446251    5.958576   -0.643936
     82          1           0       -2.757718    7.361420    0.749363
     83          1           0       -4.056860    8.480023    0.309902
     84          1           0       -3.095779    7.539726   -0.956082
     85          1           0       -9.349144    4.124421   -0.038596
     86          1           0      -10.293582    1.623230    1.045185
     87          1           0      -10.009088    3.247898    2.609164
     88          1           0       -9.408814    4.882140    2.201507
     89          1           0       -8.258730    3.707904    2.700581
     90          1           0      -10.374514    1.770942   -1.798669
     91          1           0      -10.881353    3.270821   -1.256593
     92          1           0      -12.998418    2.285838   -1.149771
     93          1           0      -12.411260    1.520416    0.375031
     94          1           0      -12.358327    0.698822   -1.229981
     95          1           0       -9.626923   -2.950202    0.136732
     96          1           0       -8.762492   -4.490047    0.308425
     97          1           0       -9.079906   -3.959699   -1.320470
     98          1           0       -3.690461   -4.123252   -1.323064
     99          1           0       -1.372729   -7.139895    0.749234
    100          1           0       -2.699738   -7.215279    1.833331
    101          1           0       -1.588669   -5.898065    2.020134
    102          1           0        2.452657   -4.175053    0.632157
    103          1           0        2.511488   -2.339591    1.034948
    104          1           0        3.732858   -2.295612   -1.382568
    105          1           0        4.610902   -4.206201    1.876542
    106          1           0        6.201158   -3.526790    1.658676
    107          1           0        5.733033   -5.061230    0.756136
    108          1           0        6.049792   -2.949637   -1.930655
    109          1           0        7.217123   -3.318592   -0.631142
    110          1           0        5.788586   -0.972001    0.077609
    111          1           0        6.235290   -0.632484   -1.504761
    112          1           0        8.677491   -1.515096   -0.541402
    113          1           0        7.715024   -1.020493    0.915233
    114          1           0        7.235392    1.106754   -0.240581
    115          1           0        8.162008    1.319677   -2.258018
    116          1           0        9.499615    0.150729   -1.930615
    117          1           0        9.650876    1.731093   -1.248965
    118          1           0        8.078659    1.311472    1.832470
    119          1           0        8.986552    2.291588    0.833082
    120          1           0       10.357432   -0.424437    0.976941
    121          1           0        9.528870   -0.100733    2.508257
    122          1           0       10.719411    1.259121    3.399746
    123          1           0       10.703148    2.298702    2.083342
    124          1           0       12.475635   -0.094317    1.724722
    125          1           0       14.077206    0.206704    3.611888
    126          1           0       12.442636   -0.282361    4.081504
    127          1           0       12.968930    1.441810    4.209340
    128          1           0       14.398224    1.221707    1.695907
    129          1           0       13.422489    2.681949    1.931802
    130          1           0       13.025016    2.827283   -0.162045
    131          1           0       12.221380    1.257749   -0.254873
    132          1           0       13.618483    0.492379   -1.583341
    133          1           0       14.977598    0.603688   -0.417469
    134          1           0       14.920081    3.123924   -1.240970
    135          1           0       16.817083    1.985700   -3.168924
    136          1           0       16.926151    1.063491   -1.660317
    137          1           0       17.035642    2.679577   -1.489202
    138          1           0       14.214938    1.546831   -3.839765
    139          1           0       14.418078    3.368708   -3.716126
    140          1           0       13.238714    2.543759   -2.766803
 ---------------------------------------------------------------------

 SCF Done:  E(RB-LYP) =  -3007.36425758     A.U. after   21 cycles

 Excitation energies and oscillator strengths:

 Excited State   1:      Singlet-A      1.8043 eV  687.14 nm  f=0.2811  <S**2>=0.000
     245 -> 248       -0.18427
     246 -> 247        0.68684
     246 <- 247       -0.14464
 This state for optimization and/or second-order correction.
 Total Energy, E(TD-HF/TD-DFT) =  -3007.29794904
 Copying the excited state density for this state as the 1-particle RhoCI density.

 Excited State   2:      Singlet-A      1.9251 eV  644.05 nm  f=0.0115  <S**2>=0.000
     244 -> 247        0.65359
     245 -> 247       -0.25028

 Excited State   3:      Singlet-A      1.9847 eV  624.71 nm  f=0.0647  <S**2>=0.000
     243 -> 247       -0.19572
     244 -> 247        0.26391
     245 -> 247        0.57904
     246 -> 248        0.19024
     246 -> 249        0.11525

 Excited State   4:      Singlet-A      2.0912 eV  592.88 nm  f=0.0076  <S**2>=0.000
     243 -> 247        0.67667
     245 -> 247        0.17203

 Excited State   5:      Singlet-A      2.5354 eV  489.01 nm  f=0.0001  <S**2>=0.000
     241 -> 247        0.70523

 The electronic state is 1-A.
 Alpha  occ. eigenvalues --  -46.25821 -18.83321 -18.80747 -18.77750 -18.76229
 Alpha  occ. eigenvalues --  -18.75767 -18.75321 -14.02970 -14.02565 -14.00752
 Alpha  occ. eigenvalues --  -14.00163 -10.05184 -10.02848 -10.00049  -9.99414
 Alpha  occ. eigenvalues --   -9.98688  -9.96418  -9.96373  -9.96193  -9.95969
 Alpha  occ. eigenvalues --   -9.95640  -9.95619  -9.95433  -9.95317  -9.94947
 Alpha  occ. eigenvalues --   -9.94355  -9.93947  -9.93667  -9.93574  -9.93455
 Alpha  occ. eigenvalues --   -9.93434  -9.93377  -9.93292  -9.93233  -9.93131
 Alpha  occ. eigenvalues --   -9.93096  -9.92793  -9.92792  -9.92698  -9.92693
 Alpha  occ. eigenvalues --   -9.92635  -9.92451  -9.92368  -9.92350  -9.92333
 Alpha  occ. eigenvalues --   -9.92265  -9.92135  -9.92008  -9.91989  -9.91656
 Alpha  occ. eigenvalues --   -9.91541  -9.91525  -9.91497  -9.91346  -9.91295
 Alpha  occ. eigenvalues --   -9.91290  -9.91274  -9.91213  -9.91093  -9.91044
 Alpha  occ. eigenvalues --   -9.90933  -9.90866  -9.90741  -9.90736  -9.90665
 Alpha  occ. eigenvalues --   -9.90098  -2.90705  -1.71122  -1.70590  -1.70432
 Alpha  occ. eigenvalues --   -0.98452  -0.96974  -0.91025  -0.90921  -0.90026
 Alpha  occ. eigenvalues --   -0.89734  -0.86109  -0.85344  -0.84981  -0.84115
 Alpha  occ. eigenvalues --   -0.75059  -0.74408  -0.73989  -0.73299  -0.72309
 Alpha  occ. eigenvalues --   -0.71900  -0.71169  -0.71121  -0.70752  -0.70460
 Alpha  occ. eigenvalues --   -0.70190  -0.69398  -0.68339  -0.67424  -0.67191
 Alpha  occ. eigenvalues --   -0.66665  -0.65735  -0.65502  -0.64925  -0.64685
 Alpha  occ. eigenvalues --   -0.64218  -0.62851  -0.62456  -0.61378  -0.61159
 Alpha  occ. eigenvalues --   -0.60405  -0.60252  -0.59669  -0.59559  -0.59188
 Alpha  occ. eigenvalues --   -0.58821  -0.57390  -0.56768  -0.55817  -0.54452
 Alpha  occ. eigenvalues --   -0.53873  -0.53686  -0.52894  -0.52580  -0.52346
 Alpha  occ. eigenvalues --   -0.51680  -0.51219  -0.50557  -0.50255  -0.49900
 Alpha  occ. eigenvalues --   -0.49699  -0.48634  -0.47916  -0.47598  -0.46931
 Alpha  occ. eigenvalues --   -0.46467  -0.46057  -0.45665  -0.44709  -0.44415
 Alpha  occ. eigenvalues --   -0.44035  -0.43687  -0.42685  -0.42669  -0.42500
 Alpha  occ. eigenvalues --   -0.41783  -0.41558  -0.41518  -0.41410  -0.40878
 Alpha  occ. eigenvalues --   -0.40732  -0.40561  -0.40464  -0.40265  -0.39942
 Alpha  occ. eigenvalues --   -0.39817  -0.39533  -0.39446  -0.39270  -0.39147
 Alpha  occ. eigenvalues --   -0.39042  -0.38775  -0.38698  -0.38603  -0.38432
 Alpha  occ. eigenvalues --   -0.38265  -0.38029  -0.37985  -0.37894  -0.37708
 Alpha  occ. eigenvalues --   -0.37470  -0.37396  -0.36869  -0.36786  -0.36646
 Alpha  occ. eigenvalues --   -0.36316  -0.36107  -0.35845  -0.35788  -0.35687
 Alpha  occ. eigenvalues --   -0.35513  -0.35164  -0.35053  -0.34953  -0.34704
 Alpha  occ. eigenvalues --   -0.34629  -0.34358  -0.34312  -0.34184  -0.33996
 Alpha  occ. eigenvalues --   -0.33813  -0.33665  -0.33568  -0.33156  -0.33062
 Alpha  occ. eigenvalues --   -0.32649  -0.32622  -0.32417  -0.32361  -0.32215
 Alpha  occ. eigenvalues --   -0.32197  -0.32168  -0.31647  -0.31431  -0.31336
 Alpha  occ. eigenvalues --   -0.31027  -0.30857  -0.30838  -0.30637  -0.30566
 Alpha  occ. eigenvalues --   -0.30493  -0.30275  -0.30045  -0.29873  -0.29615
 Alpha  occ. eigenvalues --   -0.29553  -0.29376  -0.29134  -0.29112  -0.28858
 Alpha  occ. eigenvalues --   -0.28610  -0.28486  -0.28409  -0.28115  -0.27820
 Alpha  occ. eigenvalues --   -0.27649  -0.27317  -0.27047  -0.26573  -0.26478
 Alpha  occ. eigenvalues --   -0.26324  -0.26267  -0.25754  -0.25622  -0.25361
 Alpha  occ. eigenvalues --   -0.25275  -0.24159  -0.24039  -0.23831  -0.23531
 Alpha  occ. eigenvalues --   -0.23024  -0.22442  -0.22037  -0.21414  -0.20732
 Alpha  occ. eigenvalues --   -0.20692  -0.20268  -0.18935  -0.18367  -0.16966
 Alpha  occ. eigenvalues --   -0.15699
 Alpha virt. eigenvalues --   -0.11375  -0.06936  -0.05940  -0.04767  -0.04005
 Alpha virt. eigenvalues --   -0.02053  -0.01839  -0.01190  -0.00633   0.00410
 Alpha virt. eigenvalues --    0.01208   0.01325   0.01920   0.02232   0.02806

 Mulliken charges:
               1
     1  Mg   0.717335
     2  C   -0.004693
     3  C   -0.095898
     4  C   -0.024278
     5  C   -0.089100
     6  N   -0.215248
     7  C   -0.061216
     8  C    0.007631
     9  C    0.010134
    10  C    0.039980
    11  C    0.122212
    12  C    0.170774
    13  C    0.102950
    14  C    0.095581
    15  O   -0.202122
    16  O   -0.280834
    17  N   -0.403982
    18  C    0.200669
    19  C   -0.141573
    20  C    0.062585
    21  C    0.113723
    22  C    0.170892
    23  C   -0.080496
    24  O   -0.172089
    25  C    0.119205
    26  N   -0.221917
    27  C   -0.012710
    28  C    0.048060
    29  C   -0.019460
    30  C    0.039624
    31  C    0.142884
    32  C    0.097829
    33  C    0.074909
    34  N   -0.220168
    35  C    0.128498
    36  C   -0.222746
    37  C    0.176701
    38  C   -0.001411
    39  C    0.162627
    40  C   -0.107964
    41  O   -0.129964
    42  C    0.079671
    43  C    0.134664
    44  O   -0.145300
    45  O   -0.273897
    46  C    0.230502
    47  C    0.327301
    48  C   -0.118042
    49  C   -0.186560
    50  C    0.138641
    51  C    0.186376
    52  C    0.058898
    53  C    0.102397
    54  C   -0.089987
    55  C    0.143426
    56  C    0.035382
    57  C    0.064412
    58  C    0.143383
    59  C   -0.085359
    60  C    0.100025
    61  C    0.099944
    62  C    0.054071
    63  C    0.100510
    64  C   -0.071900
    65  C    0.118012
    66  C    0.104815
    67  H   -0.074078
    68  H   -0.051305
    69  H   -0.054322
    70  H   -0.007300
    71  H   -0.022938
    72  H    0.023901
    73  H   -0.014104
    74  H   -0.024076
    75  H   -0.022911
    76  H   -0.018347
    77  H   -0.011116
    78  H   -0.015082
    79  H   -0.020059
    80  H    0.012608
    81  H   -0.005672
    82  H    0.002399
    83  H   -0.001430
    84  H    0.013866
    85  H   -0.027435
    86  H   -0.028958
    87  H   -0.004757
    88  H   -0.001215
    89  H   -0.000256
    90  H   -0.033004
    91  H   -0.024817
    92  H   -0.010624
    93  H   -0.002363
    94  H   -0.001841
    95  H   -0.018227
    96  H    0.004122
    97  H    0.016823
    98  H    0.000232
    99  H    0.012483
   100  H    0.002104
   101  H    0.009938
   102  H    0.032148
   103  H    0.001118
   104  H   -0.031572
   105  H   -0.011347
   106  H    0.004818
   107  H    0.014775
   108  H   -0.023165
   109  H   -0.035093
   110  H   -0.035021
   111  H   -0.039587
   112  H   -0.021867
   113  H   -0.044154
   114  H   -0.057501
   115  H   -0.005211
   116  H   -0.024288
   117  H   -0.015146
   118  H   -0.044959
   119  H   -0.027613
   120  H   -0.005552
   121  H   -0.032776
   122  H   -0.054948
   123  H   -0.046033
   124  H   -0.048959
   125  H   -0.021310
   126  H   -0.015634
   127  H   -0.018412
   128  H   -0.043125
   129  H   -0.040369
   130  H   -0.026107
   131  H   -0.022230
   132  H   -0.034261
   133  H   -0.034044
   134  H   -0.031919
   135  H   -0.006997
   136  H   -0.030257
   137  H   -0.025716
   138  H   -0.005747
   139  H   -0.012293
   140  H   -0.030200
 Sum of Mulliken charges =  -0.00000

 Dipole moment (field-independent basis, Debye):
    X=              4.6604    Y=              2.9065    Z=             -1.0466  Tot=              5.5913
 Quadrupole moment (field-independent basis, Debye-Ang):
   XX=           -390.3183   YY=           -438.0111   ZZ=           -404.8525
   XY=            -17.2585   XZ=              7.7622   YZ=              2.3508

 Normal termination of Gaussian 16 at Thu May  5 15:03:22 2022.
