 Gaussian 16, Revision A.03,
 Gaussian 16:  ES64L-G16RevA.03 25-Dec-2016

 -----------------------------------
 #p cam-b3lyp/Def2SVP td=(nstates=5)
 -----------------------------------

 ------------------------------------------------------
 step_901_chromophore_6 TDDFT with cam-b3lyp functional
 ------------------------------------------------------
 Symbolic Z-matrix:
 Charge =  0 Multiplicity = 1

                         Standard orientation:
 ---------------------------------------------------------------------
 Center     Atomic      Atomic             Coordinates (Angstroms)
 Number     Number       Type             X           Y           Z
 ---------------------------------------------------------------------
      1         12           0       -5.362174    1.039282   -0.282732
      2          6           0       -4.195415   -2.381058   -0.256236
      3          6           0       -2.218797    2.009317   -0.197310
      4          6           0       -6.563426    3.996193    0.245071
      5          6           0       -8.691021   -0.317942   -0.304306
      6          7           0       -3.477589   -0.089786   -0.098032
      7          6           0       -3.154025   -1.409863   -0.205962
      8          6           0       -1.736853   -1.645818   -0.404741
      9          6           0       -1.045623   -0.295240    0.037672
     10          6           0       -2.275971    0.628459   -0.063037
     11          6           0       -0.341902   -0.350858    1.510767
     12          6           0       -1.365590   -2.087518   -1.771220
     13          6           0       -0.477224   -3.301926   -1.874219
     14          6           0        0.459534   -3.735404   -0.735461
     15          8           0        0.308486   -4.734788   -0.007626
     16          8           0        1.461955   -2.818879   -0.640047
     17          7           0       -4.501703    2.738094   -0.168319
     18          6           0       -3.135226    3.006140   -0.196699
     19          6           0       -2.938796    4.458939   -0.112996
     20          6           0       -4.258755    5.057386   -0.033256
     21          6           0       -5.169840    3.950775    0.025966
     22          6           0       -1.580437    5.100616    0.014289
     23          6           0       -4.655612    6.507924   -0.000379
     24          8           0       -5.835354    6.864785    0.116727
     25          6           0       -3.556210    7.552383    0.032350
     26          7           0       -7.399680    1.713711    0.005401
     27          6           0       -7.568128    3.054890    0.242865
     28          6           0       -9.007554    3.363052    0.662582
     29          6           0       -9.768400    2.050132    0.189929
     30          6           0       -8.592092    1.075664   -0.153293
     31          6           0       -9.195822    3.814142    2.154170
     32          6           0      -10.830506    2.233380   -0.923564
     33          6           0      -12.246102    1.642034   -0.695072
     34          7           0       -6.278091   -0.923473   -0.252957
     35          6           0       -7.654959   -1.233952   -0.288682
     36          6           0       -7.729490   -2.678965   -0.242193
     37          6           0       -6.465853   -3.188790   -0.277448
     38          6           0       -5.618146   -2.077842   -0.212583
     39          6           0       -8.875580   -3.600670   -0.311795
     40          6           0       -5.586475   -4.346368   -0.390868
     41          8           0       -5.798966   -5.540950   -0.558560
     42          6           0       -4.098751   -3.860181   -0.347949
     43          6           0       -3.480483   -4.567146    0.819175
     44          8           0       -3.499404   -4.213253    1.953048
     45          8           0       -2.831374   -5.657138    0.295893
     46          6           0       -2.091931   -6.507567    1.269266
     47          6           0        2.553757   -3.142176    0.299499
     48          6           0        3.846340   -2.817782   -0.433058
     49          6           0        5.059412   -3.286983   -0.107410
     50          6           0        5.420236   -4.095812    1.154724
     51          6           0        6.306073   -2.778171   -0.885148
     52          6           0        6.489449   -1.306972   -0.686777
     53          6           0        7.879429   -0.882211   -0.153548
     54          6           0        8.190629    0.583646   -0.259889
     55          6           0        8.913412    0.984785   -1.543320
     56          6           0        8.822920    1.234545    1.039824
     57          6           0        9.988045    0.362230    1.634355
     58          6           0       10.993977    1.281240    2.345105
     59          6           0       12.458634    0.853450    2.263226
     60          6           0       13.032497    0.517507    3.634558
     61          6           0       13.453862    1.705443    1.447571
     62          6           0       13.170693    1.753097   -0.050157
     63          6           0       14.261166    1.166377   -1.016897
     64          6           0       15.009686    2.236951   -1.867534
     65          6           0       16.515037    1.961291   -2.122259
     66          6           0       14.232954    2.427975   -3.197911
     67          1           0       -1.185492    2.327181   -0.355149
     68          1           0       -6.919925    4.996974    0.496704
     69          1           0       -9.680748   -0.758314   -0.164397
     70          1           0       -1.557945   -2.539831    0.193403
     71          1           0       -0.233037    0.075499   -0.587294
     72          1           0       -0.425415   -1.329225    1.984837
     73          1           0       -0.625774    0.561654    2.034516
     74          1           0        0.717336   -0.135118    1.381164
     75          1           0       -0.749759   -1.351196   -2.285889
     76          1           0       -2.285096   -2.271777   -2.328176
     77          1           0        0.057410   -3.342709   -2.822866
     78          1           0       -1.181060   -4.112751   -2.060793
     79          1           0       -0.841887    4.325760   -0.188201
     80          1           0       -1.431187    5.482449    1.024878
     81          1           0       -1.446251    5.958576   -0.643936
     82          1           0       -2.757718    7.361420    0.749363
     83          1           0       -4.056860    8.480023    0.309902
     84          1           0       -3.095779    7.539726   -0.956082
     85          1           0       -9.349144    4.124421   -0.038596
     86          1           0      -10.293582    1.623230    1.045185
     87          1           0      -10.009088    3.247898    2.609164
     88          1           0       -9.408814    4.882140    2.201507
     89          1           0       -8.258730    3.707904    2.700581
     90          1           0      -10.374514    1.770942   -1.798669
     91          1           0      -10.881353    3.270821   -1.256593
     92          1           0      -12.998418    2.285838   -1.149771
     93          1           0      -12.411260    1.520416    0.375031
     94          1           0      -12.358327    0.698822   -1.229981
     95          1           0       -9.626923   -2.950202    0.136732
     96          1           0       -8.762492   -4.490047    0.308425
     97          1           0       -9.079906   -3.959699   -1.320470
     98          1           0       -3.690461   -4.123252   -1.323064
     99          1           0       -1.372729   -7.139895    0.749234
    100          1           0       -2.699738   -7.215279    1.833331
    101          1           0       -1.588669   -5.898065    2.020134
    102          1           0        2.452657   -4.175053    0.632157
    103          1           0        2.511488   -2.339591    1.034948
    104          1           0        3.732858   -2.295612   -1.382568
    105          1           0        4.610902   -4.206201    1.876542
    106          1           0        6.201158   -3.526790    1.658676
    107          1           0        5.733033   -5.061230    0.756136
    108          1           0        6.049792   -2.949637   -1.930655
    109          1           0        7.217123   -3.318592   -0.631142
    110          1           0        5.788586   -0.972001    0.077609
    111          1           0        6.235290   -0.632484   -1.504761
    112          1           0        8.677491   -1.515096   -0.541402
    113          1           0        7.715024   -1.020493    0.915233
    114          1           0        7.235392    1.106754   -0.240581
    115          1           0        8.162008    1.319677   -2.258018
    116          1           0        9.499615    0.150729   -1.930615
    117          1           0        9.650876    1.731093   -1.248965
    118          1           0        8.078659    1.311472    1.832470
    119          1           0        8.986552    2.291588    0.833082
    120          1           0       10.357432   -0.424437    0.976941
    121          1           0        9.528870   -0.100733    2.508257
    122          1           0       10.719411    1.259121    3.399746
    123          1           0       10.703148    2.298702    2.083342
    124          1           0       12.475635   -0.094317    1.724722
    125          1           0       14.077206    0.206704    3.611888
    126          1           0       12.442636   -0.282361    4.081504
    127          1           0       12.968930    1.441810    4.209340
    128          1           0       14.398224    1.221707    1.695907
    129          1           0       13.422489    2.681949    1.931802
    130          1           0       13.025016    2.827283   -0.162045
    131          1           0       12.221380    1.257749   -0.254873
    132          1           0       13.618483    0.492379   -1.583341
    133          1           0       14.977598    0.603688   -0.417469
    134          1           0       14.920081    3.123924   -1.240970
    135          1           0       16.817083    1.985700   -3.168924
    136          1           0       16.926151    1.063491   -1.660317
    137          1           0       17.035642    2.679577   -1.489202
    138          1           0       14.214938    1.546831   -3.839765
    139          1           0       14.418078    3.368708   -3.716126
    140          1           0       13.238714    2.543759   -2.766803
 ---------------------------------------------------------------------

 SCF Done:  E(RCAM-B3LYP) =  -3007.16166897     A.U. after   19 cycles

 Excitation energies and oscillator strengths:

 Excited State   1:      Singlet-A      1.7077 eV  726.05 nm  f=0.3595  <S**2>=0.000
     245 -> 248        0.18244
     246 -> 247        0.68325
     245 <- 248        0.10734
 This state for optimization and/or second-order correction.
 Total Energy, E(TD-HF/TD-DFT) =  -3007.09891348
 Copying the excited state density for this state as the 1-particle RhoCI density.

 Excited State   2:      Singlet-A      2.2018 eV  563.10 nm  f=0.1108  <S**2>=0.000
     245 -> 247        0.63986
     246 -> 248       -0.28610

 Excited State   3:      Singlet-A      3.3735 eV  367.52 nm  f=0.0116  <S**2>=0.000
     241 -> 247       -0.12592
     243 -> 247       -0.28864
     244 -> 247        0.58543
     246 -> 248       -0.14286

 Excited State   4:      Singlet-A      3.4494 eV  359.43 nm  f=0.0352  <S**2>=0.000
     240 -> 247        0.44972
     240 -> 249        0.19153
     240 -> 250       -0.18324
     241 -> 247        0.32690
     241 -> 249        0.13987
     241 -> 250       -0.13674
     244 -> 247        0.16608
     246 -> 248       -0.16916

 Excited State   5:      Singlet-A      3.5206 eV  352.17 nm  f=0.5159  <S**2>=0.000
     243 -> 247        0.18458
     244 -> 247        0.26676
     245 -> 247        0.24132
     246 -> 248        0.56135

 The electronic state is 1-A.
 Alpha  occ. eigenvalues --  -46.87256 -19.26179 -19.23652 -19.20713 -19.19376
 Alpha  occ. eigenvalues --  -19.18868 -19.18776 -14.41821 -14.41478 -14.39097
 Alpha  occ. eigenvalues --  -14.38636 -10.40545 -10.38264 -10.35182 -10.34944
 Alpha  occ. eigenvalues --  -10.32751 -10.31042 -10.30796 -10.30673 -10.29969
 Alpha  occ. eigenvalues --  -10.29857 -10.29836 -10.29827 -10.29446 -10.28933
 Alpha  occ. eigenvalues --  -10.28727 -10.28478 -10.27689 -10.27601 -10.27518
 Alpha  occ. eigenvalues --  -10.27391 -10.27340 -10.27336 -10.27262 -10.27175
 Alpha  occ. eigenvalues --  -10.27137 -10.27072 -10.26907 -10.26802 -10.26762
 Alpha  occ. eigenvalues --  -10.26450 -10.26292 -10.26155 -10.26142 -10.26089
 Alpha  occ. eigenvalues --  -10.26088 -10.25946 -10.25854 -10.25672 -10.25378
 Alpha  occ. eigenvalues --  -10.25374 -10.25281 -10.25230 -10.25193 -10.25041
 Alpha  occ. eigenvalues --  -10.24988 -10.24983 -10.24878 -10.24768 -10.24626
 Alpha  occ. eigenvalues --  -10.24541 -10.24513 -10.24404 -10.24403 -10.24354
 Alpha  occ. eigenvalues --  -10.24235  -3.16056  -1.90944  -1.90504  -1.90393
 Alpha  occ. eigenvalues --   -1.16851  -1.15614  -1.09553  -1.09296  -1.07875
 Alpha  occ. eigenvalues --   -1.07657  -1.03907  -1.03022  -1.02598  -1.01474
 Alpha  occ. eigenvalues --   -0.92247  -0.91328  -0.90856  -0.90132  -0.89024
 Alpha  occ. eigenvalues --   -0.88564  -0.87757  -0.87717  -0.87411  -0.87094
 Alpha  occ. eigenvalues --   -0.86734  -0.85661  -0.84601  -0.83583  -0.83374
 Alpha  occ. eigenvalues --   -0.82754  -0.81767  -0.81435  -0.80907  -0.80528
 Alpha  occ. eigenvalues --   -0.79967  -0.78484  -0.78155  -0.76854  -0.76547
 Alpha  occ. eigenvalues --   -0.75770  -0.75606  -0.74965  -0.74827  -0.74448
 Alpha  occ. eigenvalues --   -0.73887  -0.72447  -0.71656  -0.70628  -0.69063
 Alpha  occ. eigenvalues --   -0.68535  -0.68282  -0.67299  -0.66984  -0.66745
 Alpha  occ. eigenvalues --   -0.65823  -0.65361  -0.64613  -0.64142  -0.63811
 Alpha  occ. eigenvalues --   -0.63698  -0.62500  -0.61709  -0.61330  -0.60545
 Alpha  occ. eigenvalues --   -0.59985  -0.59577  -0.59202  -0.58218  -0.58055
 Alpha  occ. eigenvalues --   -0.57422  -0.56888  -0.55854  -0.55826  -0.55654
 Alpha  occ. eigenvalues --   -0.54926  -0.54741  -0.54375  -0.54265  -0.53811
 Alpha  occ. eigenvalues --   -0.53550  -0.53304  -0.53136  -0.52898  -0.52800
 Alpha  occ. eigenvalues --   -0.52599  -0.52467  -0.52186  -0.51928  -0.51649
 Alpha  occ. eigenvalues --   -0.51432  -0.51305  -0.51106  -0.51031  -0.50894
 Alpha  occ. eigenvalues --   -0.50730  -0.50607  -0.50228  -0.50191  -0.50154
 Alpha  occ. eigenvalues --   -0.49816  -0.49613  -0.49487  -0.49146  -0.48847
 Alpha  occ. eigenvalues --   -0.48732  -0.48429  -0.48220  -0.47899  -0.47573
 Alpha  occ. eigenvalues --   -0.47372  -0.47313  -0.47259  -0.46931  -0.46853
 Alpha  occ. eigenvalues --   -0.46437  -0.46285  -0.46124  -0.46030  -0.45747
 Alpha  occ. eigenvalues --   -0.45699  -0.45564  -0.45318  -0.44984  -0.44751
 Alpha  occ. eigenvalues --   -0.44636  -0.44205  -0.44156  -0.44041  -0.43943
 Alpha  occ. eigenvalues --   -0.43778  -0.43624  -0.43367  -0.43116  -0.42939
 Alpha  occ. eigenvalues --   -0.42492  -0.42378  -0.42360  -0.42089  -0.42076
 Alpha  occ. eigenvalues --   -0.41717  -0.41702  -0.41260  -0.41152  -0.40840
 Alpha  occ. eigenvalues --   -0.40736  -0.40670  -0.40496  -0.40158  -0.40103
 Alpha  occ. eigenvalues --   -0.40011  -0.39858  -0.39384  -0.38961  -0.38754
 Alpha  occ. eigenvalues --   -0.38726  -0.38344  -0.37874  -0.37793  -0.37254
 Alpha  occ. eigenvalues --   -0.37136  -0.37054  -0.36627  -0.36354  -0.36228
 Alpha  occ. eigenvalues --   -0.35920  -0.35766  -0.34563  -0.34499  -0.34174
 Alpha  occ. eigenvalues --   -0.34035  -0.33932  -0.33192  -0.31269  -0.30640
 Alpha  occ. eigenvalues --   -0.30561  -0.30424  -0.30004  -0.29624  -0.23690
 Alpha  occ. eigenvalues --   -0.20990
 Alpha virt. eigenvalues --   -0.08441  -0.01658   0.00458   0.02173   0.03519
 Alpha virt. eigenvalues --    0.03831   0.05369   0.05747   0.06763   0.07082
 Alpha virt. eigenvalues --    0.07344   0.08293   0.08460   0.09095   0.09142

 Mulliken charges:
               1
     1  Mg   0.852040
     2  C   -0.035052
     3  C   -0.112606
     4  C   -0.046801
     5  C   -0.094278
     6  N   -0.283633
     7  C   -0.009800
     8  C   -0.054277
     9  C   -0.035890
    10  C    0.051732
    11  C    0.069290
    12  C    0.117762
    13  C    0.039552
    14  C    0.170162
    15  O   -0.245416
    16  O   -0.343631
    17  N   -0.495081
    18  C    0.203722
    19  C   -0.146732
    20  C   -0.010613
    21  C    0.138262
    22  C    0.116217
    23  C    0.001865
    24  O   -0.215710
    25  C    0.038166
    26  N   -0.292825
    27  C    0.006083
    28  C   -0.004634
    29  C   -0.070568
    30  C    0.060371
    31  C    0.083634
    32  C    0.039283
    33  C    0.012518
    34  N   -0.308926
    35  C    0.136539
    36  C   -0.219122
    37  C    0.093024
    38  C    0.045717
    39  C    0.111040
    40  C   -0.002770
    41  O   -0.165420
    42  C    0.007632
    43  C    0.215670
    44  O   -0.181589
    45  O   -0.337294
    46  C    0.191524
    47  C    0.292244
    48  C   -0.138455
    49  C   -0.206565
    50  C    0.079211
    51  C    0.119085
    52  C    0.009469
    53  C    0.044407
    54  C   -0.145914
    55  C    0.085430
    56  C   -0.006423
    57  C    0.001909
    58  C    0.084993
    59  C   -0.141203
    60  C    0.043356
    61  C    0.054703
    62  C    0.000216
    63  C    0.046876
    64  C   -0.131803
    65  C    0.054568
    66  C    0.046307
    67  H   -0.040435
    68  H   -0.009639
    69  H   -0.019925
    70  H    0.022285
    71  H    0.012019
    72  H    0.045573
    73  H    0.012703
    74  H   -0.001411
    75  H    0.008703
    76  H    0.014519
    77  H    0.023496
    78  H    0.016532
    79  H    0.006340
    80  H    0.037515
    81  H    0.018659
    82  H    0.030253
    83  H    0.033079
    84  H    0.040188
    85  H    0.008037
    86  H    0.005052
    87  H    0.017888
    88  H    0.022609
    89  H    0.025570
    90  H   -0.001660
    91  H    0.005092
    92  H    0.014647
    93  H    0.019285
    94  H    0.020317
    95  H    0.004875
    96  H    0.032980
    97  H    0.044298
    98  H    0.041515
    99  H    0.036534
   100  H    0.024343
   101  H    0.034334
   102  H    0.063154
   103  H    0.027624
   104  H    0.003898
   105  H    0.012853
   106  H    0.026219
   107  H    0.038521
   108  H    0.008963
   109  H   -0.002735
   110  H   -0.004671
   111  H   -0.011003
   112  H    0.003683
   113  H   -0.015257
   114  H   -0.022572
   115  H    0.018389
   116  H   -0.001385
   117  H    0.007139
   118  H   -0.015429
   119  H   -0.000354
   120  H    0.019000
   121  H   -0.003001
   122  H   -0.022277
   123  H   -0.016191
   124  H   -0.017413
   125  H    0.004138
   126  H    0.008996
   127  H    0.004430
   128  H   -0.015534
   129  H   -0.012675
   130  H    0.001061
   131  H    0.001184
   132  H   -0.004707
   133  H   -0.005643
   134  H   -0.000272
   135  H    0.017396
   136  H   -0.004655
   137  H   -0.001312
   138  H    0.018117
   139  H    0.013088
   140  H   -0.008483
 Sum of Mulliken charges =  -0.00000

 Dipole moment (field-independent basis, Debye):
    X=              4.6953    Y=              2.9111    Z=             -1.0982  Tot=              5.6326
 Quadrupole moment (field-independent basis, Debye-Ang):
   XX=           -387.0739   YY=           -434.9788   ZZ=           -404.6962
   XY=            -15.8927   XZ=              9.0407   YZ=              2.6993

 Normal termination of Gaussian 16 at Thu May  5 13:43:23 2022.
