 Gaussian 16, Revision A.03,
 Gaussian 16:  ES64L-G16RevA.03 25-Dec-2016

 ---------------------------------
 #p PBE1PBE/Def2SVP td=(nstates=5)
 ---------------------------------

 ----------------------------------------------------
 step_901_chromophore_6 TDDFT with PBE1PBE functional
 ----------------------------------------------------
 Symbolic Z-matrix:
 Charge =  0 Multiplicity = 1

                         Standard orientation:
 ---------------------------------------------------------------------
 Center     Atomic      Atomic             Coordinates (Angstroms)
 Number     Number       Type             X           Y           Z
 ---------------------------------------------------------------------
      1         12           0       -5.362174    1.039282   -0.282732
      2          6           0       -4.195415   -2.381058   -0.256236
      3          6           0       -2.218797    2.009317   -0.197310
      4          6           0       -6.563426    3.996193    0.245071
      5          6           0       -8.691021   -0.317942   -0.304306
      6          7           0       -3.477589   -0.089786   -0.098032
      7          6           0       -3.154025   -1.409863   -0.205962
      8          6           0       -1.736853   -1.645818   -0.404741
      9          6           0       -1.045623   -0.295240    0.037672
     10          6           0       -2.275971    0.628459   -0.063037
     11          6           0       -0.341902   -0.350858    1.510767
     12          6           0       -1.365590   -2.087518   -1.771220
     13          6           0       -0.477224   -3.301926   -1.874219
     14          6           0        0.459534   -3.735404   -0.735461
     15          8           0        0.308486   -4.734788   -0.007626
     16          8           0        1.461955   -2.818879   -0.640047
     17          7           0       -4.501703    2.738094   -0.168319
     18          6           0       -3.135226    3.006140   -0.196699
     19          6           0       -2.938796    4.458939   -0.112996
     20          6           0       -4.258755    5.057386   -0.033256
     21          6           0       -5.169840    3.950775    0.025966
     22          6           0       -1.580437    5.100616    0.014289
     23          6           0       -4.655612    6.507924   -0.000379
     24          8           0       -5.835354    6.864785    0.116727
     25          6           0       -3.556210    7.552383    0.032350
     26          7           0       -7.399680    1.713711    0.005401
     27          6           0       -7.568128    3.054890    0.242865
     28          6           0       -9.007554    3.363052    0.662582
     29          6           0       -9.768400    2.050132    0.189929
     30          6           0       -8.592092    1.075664   -0.153293
     31          6           0       -9.195822    3.814142    2.154170
     32          6           0      -10.830506    2.233380   -0.923564
     33          6           0      -12.246102    1.642034   -0.695072
     34          7           0       -6.278091   -0.923473   -0.252957
     35          6           0       -7.654959   -1.233952   -0.288682
     36          6           0       -7.729490   -2.678965   -0.242193
     37          6           0       -6.465853   -3.188790   -0.277448
     38          6           0       -5.618146   -2.077842   -0.212583
     39          6           0       -8.875580   -3.600670   -0.311795
     40          6           0       -5.586475   -4.346368   -0.390868
     41          8           0       -5.798966   -5.540950   -0.558560
     42          6           0       -4.098751   -3.860181   -0.347949
     43          6           0       -3.480483   -4.567146    0.819175
     44          8           0       -3.499404   -4.213253    1.953048
     45          8           0       -2.831374   -5.657138    0.295893
     46          6           0       -2.091931   -6.507567    1.269266
     47          6           0        2.553757   -3.142176    0.299499
     48          6           0        3.846340   -2.817782   -0.433058
     49          6           0        5.059412   -3.286983   -0.107410
     50          6           0        5.420236   -4.095812    1.154724
     51          6           0        6.306073   -2.778171   -0.885148
     52          6           0        6.489449   -1.306972   -0.686777
     53          6           0        7.879429   -0.882211   -0.153548
     54          6           0        8.190629    0.583646   -0.259889
     55          6           0        8.913412    0.984785   -1.543320
     56          6           0        8.822920    1.234545    1.039824
     57          6           0        9.988045    0.362230    1.634355
     58          6           0       10.993977    1.281240    2.345105
     59          6           0       12.458634    0.853450    2.263226
     60          6           0       13.032497    0.517507    3.634558
     61          6           0       13.453862    1.705443    1.447571
     62          6           0       13.170693    1.753097   -0.050157
     63          6           0       14.261166    1.166377   -1.016897
     64          6           0       15.009686    2.236951   -1.867534
     65          6           0       16.515037    1.961291   -2.122259
     66          6           0       14.232954    2.427975   -3.197911
     67          1           0       -1.185492    2.327181   -0.355149
     68          1           0       -6.919925    4.996974    0.496704
     69          1           0       -9.680748   -0.758314   -0.164397
     70          1           0       -1.557945   -2.539831    0.193403
     71          1           0       -0.233037    0.075499   -0.587294
     72          1           0       -0.425415   -1.329225    1.984837
     73          1           0       -0.625774    0.561654    2.034516
     74          1           0        0.717336   -0.135118    1.381164
     75          1           0       -0.749759   -1.351196   -2.285889
     76          1           0       -2.285096   -2.271777   -2.328176
     77          1           0        0.057410   -3.342709   -2.822866
     78          1           0       -1.181060   -4.112751   -2.060793
     79          1           0       -0.841887    4.325760   -0.188201
     80          1           0       -1.431187    5.482449    1.024878
     81          1           0       -1.446251    5.958576   -0.643936
     82          1           0       -2.757718    7.361420    0.749363
     83          1           0       -4.056860    8.480023    0.309902
     84          1           0       -3.095779    7.539726   -0.956082
     85          1           0       -9.349144    4.124421   -0.038596
     86          1           0      -10.293582    1.623230    1.045185
     87          1           0      -10.009088    3.247898    2.609164
     88          1           0       -9.408814    4.882140    2.201507
     89          1           0       -8.258730    3.707904    2.700581
     90          1           0      -10.374514    1.770942   -1.798669
     91          1           0      -10.881353    3.270821   -1.256593
     92          1           0      -12.998418    2.285838   -1.149771
     93          1           0      -12.411260    1.520416    0.375031
     94          1           0      -12.358327    0.698822   -1.229981
     95          1           0       -9.626923   -2.950202    0.136732
     96          1           0       -8.762492   -4.490047    0.308425
     97          1           0       -9.079906   -3.959699   -1.320470
     98          1           0       -3.690461   -4.123252   -1.323064
     99          1           0       -1.372729   -7.139895    0.749234
    100          1           0       -2.699738   -7.215279    1.833331
    101          1           0       -1.588669   -5.898065    2.020134
    102          1           0        2.452657   -4.175053    0.632157
    103          1           0        2.511488   -2.339591    1.034948
    104          1           0        3.732858   -2.295612   -1.382568
    105          1           0        4.610902   -4.206201    1.876542
    106          1           0        6.201158   -3.526790    1.658676
    107          1           0        5.733033   -5.061230    0.756136
    108          1           0        6.049792   -2.949637   -1.930655
    109          1           0        7.217123   -3.318592   -0.631142
    110          1           0        5.788586   -0.972001    0.077609
    111          1           0        6.235290   -0.632484   -1.504761
    112          1           0        8.677491   -1.515096   -0.541402
    113          1           0        7.715024   -1.020493    0.915233
    114          1           0        7.235392    1.106754   -0.240581
    115          1           0        8.162008    1.319677   -2.258018
    116          1           0        9.499615    0.150729   -1.930615
    117          1           0        9.650876    1.731093   -1.248965
    118          1           0        8.078659    1.311472    1.832470
    119          1           0        8.986552    2.291588    0.833082
    120          1           0       10.357432   -0.424437    0.976941
    121          1           0        9.528870   -0.100733    2.508257
    122          1           0       10.719411    1.259121    3.399746
    123          1           0       10.703148    2.298702    2.083342
    124          1           0       12.475635   -0.094317    1.724722
    125          1           0       14.077206    0.206704    3.611888
    126          1           0       12.442636   -0.282361    4.081504
    127          1           0       12.968930    1.441810    4.209340
    128          1           0       14.398224    1.221707    1.695907
    129          1           0       13.422489    2.681949    1.931802
    130          1           0       13.025016    2.827283   -0.162045
    131          1           0       12.221380    1.257749   -0.254873
    132          1           0       13.618483    0.492379   -1.583341
    133          1           0       14.977598    0.603688   -0.417469
    134          1           0       14.920081    3.123924   -1.240970
    135          1           0       16.817083    1.985700   -3.168924
    136          1           0       16.926151    1.063491   -1.660317
    137          1           0       17.035642    2.679577   -1.489202
    138          1           0       14.214938    1.546831   -3.839765
    139          1           0       14.418078    3.368708   -3.716126
    140          1           0       13.238714    2.543759   -2.766803
 ---------------------------------------------------------------------

 SCF Done:  E(RPBE1PBE) =  -3005.35046729     A.U. after   15 cycles

 Excitation energies and oscillator strengths:

 Excited State   1:      Singlet-A      1.8573 eV  667.56 nm  f=0.3491  <S**2>=0.000
     245 -> 248        0.17295
     246 -> 247        0.69028
     246 <- 247       -0.10282
 This state for optimization and/or second-order correction.
 Total Energy, E(TD-HF/TD-DFT) =  -3005.28221337
 Copying the excited state density for this state as the 1-particle RhoCI density.

 Excited State   2:      Singlet-A      2.2058 eV  562.07 nm  f=0.1095  <S**2>=0.000
     245 -> 247        0.65208
     246 -> 248       -0.25406

 Excited State   3:      Singlet-A      2.9588 eV  419.04 nm  f=0.0001  <S**2>=0.000
     243 -> 247        0.46897
     243 -> 249        0.10786
     243 -> 250       -0.10402
     244 -> 247        0.48255

 Excited State   4:      Singlet-A      3.0894 eV  401.32 nm  f=0.0004  <S**2>=0.000
     242 -> 247        0.10542
     243 -> 247       -0.47374
     244 -> 247        0.49840

 Excited State   5:      Singlet-A      3.1946 eV  388.10 nm  f=0.0025  <S**2>=0.000
     239 -> 247        0.15731
     240 -> 247        0.37350
     240 -> 249       -0.12097
     242 -> 247        0.52636

 The electronic state is 1-A.
 Alpha  occ. eigenvalues --  -46.90682 -19.26875 -19.24297 -19.21004 -19.19522
 Alpha  occ. eigenvalues --  -19.19203 -19.18859 -14.41392 -14.40954 -14.38860
 Alpha  occ. eigenvalues --  -14.38243 -10.37587 -10.35215 -10.32406 -10.31991
 Alpha  occ. eigenvalues --  -10.30175 -10.28662 -10.28541 -10.28409 -10.27682
 Alpha  occ. eigenvalues --  -10.27667 -10.27373 -10.27318 -10.27180 -10.26819
 Alpha  occ. eigenvalues --  -10.26620 -10.26000 -10.25500 -10.25308 -10.25284
 Alpha  occ. eigenvalues --  -10.25193 -10.25181 -10.24844 -10.24742 -10.24739
 Alpha  occ. eigenvalues --  -10.24685 -10.24649 -10.24638 -10.24419 -10.24192
 Alpha  occ. eigenvalues --  -10.23989 -10.23972 -10.23749 -10.23714 -10.23679
 Alpha  occ. eigenvalues --  -10.23526 -10.23495 -10.23367 -10.23097 -10.23073
 Alpha  occ. eigenvalues --  -10.22924 -10.22911 -10.22754 -10.22673 -10.22660
 Alpha  occ. eigenvalues --  -10.22619 -10.22553 -10.22455 -10.22312 -10.22108
 Alpha  occ. eigenvalues --  -10.22017 -10.21953 -10.21935 -10.21894 -10.21755
 Alpha  occ. eigenvalues --  -10.21612  -3.13056  -1.85887  -1.85422  -1.85319
 Alpha  occ. eigenvalues --   -1.11664  -1.10324  -1.04165  -1.04109  -1.02720
 Alpha  occ. eigenvalues --   -1.02476  -0.98469  -0.97608  -0.97216  -0.96215
 Alpha  occ. eigenvalues --   -0.86525  -0.85493  -0.85072  -0.84243  -0.83162
 Alpha  occ. eigenvalues --   -0.82935  -0.82014  -0.81822  -0.81706  -0.81389
 Alpha  occ. eigenvalues --   -0.81088  -0.79912  -0.78835  -0.77871  -0.77626
 Alpha  occ. eigenvalues --   -0.76999  -0.76026  -0.75649  -0.75128  -0.74724
 Alpha  occ. eigenvalues --   -0.74287  -0.72857  -0.72391  -0.71153  -0.70710
 Alpha  occ. eigenvalues --   -0.69939  -0.69848  -0.69288  -0.69015  -0.68604
 Alpha  occ. eigenvalues --   -0.68215  -0.66855  -0.66089  -0.64986  -0.63403
 Alpha  occ. eigenvalues --   -0.62936  -0.62513  -0.61554  -0.61441  -0.60935
 Alpha  occ. eigenvalues --   -0.60370  -0.59741  -0.59126  -0.58727  -0.58307
 Alpha  occ. eigenvalues --   -0.57848  -0.56676  -0.55961  -0.55862  -0.54988
 Alpha  occ. eigenvalues --   -0.54618  -0.54042  -0.53725  -0.52723  -0.52481
 Alpha  occ. eigenvalues --   -0.51967  -0.51410  -0.50473  -0.50438  -0.50136
 Alpha  occ. eigenvalues --   -0.49450  -0.49288  -0.48775  -0.48694  -0.48324
 Alpha  occ. eigenvalues --   -0.47981  -0.47861  -0.47644  -0.47471  -0.47356
 Alpha  occ. eigenvalues --   -0.47156  -0.47058  -0.46695  -0.46447  -0.46186
 Alpha  occ. eigenvalues --   -0.46004  -0.45851  -0.45635  -0.45579  -0.45455
 Alpha  occ. eigenvalues --   -0.45207  -0.45139  -0.44787  -0.44770  -0.44682
 Alpha  occ. eigenvalues --   -0.44403  -0.44263  -0.44082  -0.43769  -0.43434
 Alpha  occ. eigenvalues --   -0.43370  -0.43074  -0.42836  -0.42522  -0.42143
 Alpha  occ. eigenvalues --   -0.42025  -0.41974  -0.41950  -0.41634  -0.41509
 Alpha  occ. eigenvalues --   -0.41056  -0.40933  -0.40817  -0.40638  -0.40409
 Alpha  occ. eigenvalues --   -0.40403  -0.40310  -0.39994  -0.39781  -0.39498
 Alpha  occ. eigenvalues --   -0.39298  -0.38903  -0.38848  -0.38786  -0.38773
 Alpha  occ. eigenvalues --   -0.38593  -0.38318  -0.38181  -0.37939  -0.37845
 Alpha  occ. eigenvalues --   -0.37281  -0.37209  -0.37122  -0.36941  -0.36828
 Alpha  occ. eigenvalues --   -0.36605  -0.36457  -0.36096  -0.35995  -0.35746
 Alpha  occ. eigenvalues --   -0.35534  -0.35499  -0.35217  -0.35028  -0.34942
 Alpha  occ. eigenvalues --   -0.34890  -0.34767  -0.34214  -0.33846  -0.33670
 Alpha  occ. eigenvalues --   -0.33562  -0.33319  -0.32772  -0.32655  -0.32241
 Alpha  occ. eigenvalues --   -0.32095  -0.31882  -0.31511  -0.31283  -0.31162
 Alpha  occ. eigenvalues --   -0.30791  -0.30633  -0.29417  -0.29403  -0.29252
 Alpha  occ. eigenvalues --   -0.28994  -0.28893  -0.28652  -0.26565  -0.25900
 Alpha  occ. eigenvalues --   -0.25692  -0.25638  -0.25384  -0.25192  -0.20630
 Alpha  occ. eigenvalues --   -0.18623
 Alpha virt. eigenvalues --   -0.10935  -0.05201  -0.03742  -0.02209  -0.00820
 Alpha virt. eigenvalues --    0.00640   0.01122   0.01292   0.02522   0.03296
 Alpha virt. eigenvalues --    0.04087   0.04218   0.04797   0.05156   0.05779

 Mulliken charges:
               1
     1  Mg   1.008055
     2  C   -0.044503
     3  C   -0.120216
     4  C   -0.044680
     5  C   -0.081846
     6  N   -0.385021
     7  C    0.067190
     8  C   -0.138983
     9  C   -0.105546
    10  C    0.089129
    11  C    0.013300
    12  C    0.071054
    13  C   -0.031373
    14  C    0.227601
    15  O   -0.278494
    16  O   -0.371488
    17  N   -0.615714
    18  C    0.227719
    19  C   -0.172605
    20  C   -0.058982
    21  C    0.171015
    22  C    0.055329
    23  C    0.054246
    24  O   -0.253006
    25  C   -0.035113
    26  N   -0.394541
    27  C    0.037596
    28  C   -0.076441
    29  C   -0.145634
    30  C    0.098576
    31  C    0.023178
    32  C   -0.015726
    33  C   -0.062386
    34  N   -0.434677
    35  C    0.153998
    36  C   -0.243752
    37  C    0.044996
    38  C    0.107389
    39  C    0.057997
    40  C    0.092900
    41  O   -0.211778
    42  C   -0.103862
    43  C    0.302714
    44  O   -0.218941
    45  O   -0.368807
    46  C    0.136737
    47  C    0.251033
    48  C   -0.150293
    49  C   -0.249560
    50  C    0.014022
    51  C    0.054449
    52  C   -0.048380
    53  C   -0.017184
    54  C   -0.227830
    55  C    0.025885
    56  C   -0.060498
    57  C   -0.065859
    58  C    0.037873
    59  C   -0.230349
    60  C   -0.021774
    61  C    0.006145
    62  C   -0.069014
    63  C   -0.006132
    64  C   -0.226741
    65  C   -0.003767
    66  C   -0.019553
    67  H   -0.006475
    68  H    0.023390
    69  H    0.011623
    70  H    0.070633
    71  H    0.046223
    72  H    0.071434
    73  H    0.040917
    74  H    0.026434
    75  H    0.040505
    76  H    0.047902
    77  H    0.054995
    78  H    0.050926
    79  H    0.035900
    80  H    0.066006
    81  H    0.047446
    82  H    0.057014
    83  H    0.060612
    84  H    0.067509
    85  H    0.046239
    86  H    0.043018
    87  H    0.045371
    88  H    0.049596
    89  H    0.053411
    90  H    0.032355
    91  H    0.036131
    92  H    0.042486
    93  H    0.045903
    94  H    0.047683
    95  H    0.032934
    96  H    0.059846
    97  H    0.070770
    98  H    0.079886
    99  H    0.057966
   100  H    0.046971
   101  H    0.055298
   102  H    0.086659
   103  H    0.056821
   104  H    0.033165
   105  H    0.039799
   106  H    0.054165
   107  H    0.066806
   108  H    0.043204
   109  H    0.028509
   110  H    0.029319
   111  H    0.021567
   112  H    0.033870
   113  H    0.021933
   114  H    0.017411
   115  H    0.045244
   116  H    0.025742
   117  H    0.035539
   118  H    0.018059
   119  H    0.029623
   120  H    0.047802
   121  H    0.031556
   122  H    0.011021
   123  H    0.015266
   124  H    0.024118
   125  H    0.031607
   126  H    0.037895
   127  H    0.033317
   128  H    0.016404
   129  H    0.020195
   130  H    0.031689
   131  H    0.039741
   132  H    0.027440
   133  H    0.026530
   134  H    0.038123
   135  H    0.043941
   136  H    0.022127
   137  H    0.026337
   138  H    0.045757
   139  H    0.041370
   140  H    0.022403
 Sum of Mulliken charges =  -0.00000

 Dipole moment (field-independent basis, Debye):
    X=              4.8205    Y=              3.1835    Z=             -1.0073  Tot=              5.8640
 Quadrupole moment (field-independent basis, Debye-Ang):
   XX=           -383.8676   YY=           -432.0434   ZZ=           -402.1962
   XY=            -17.5071   XZ=              9.1826   YZ=              2.8702

 Normal termination of Gaussian 16 at Thu May  5 14:07:49 2022.
