 Gaussian 16, Revision A.03,
 Gaussian 16:  ES64L-G16RevA.03 25-Dec-2016

 --------------------------------
 #p wB97XD/Def2SVP td=(nstates=5)
 --------------------------------

 ---------------------------------------------------
 step_901_chromophore_6 TDDFT with wB97XD functional
 ---------------------------------------------------
 Symbolic Z-matrix:
 Charge =  0 Multiplicity = 1

                         Standard orientation:
 ---------------------------------------------------------------------
 Center     Atomic      Atomic             Coordinates (Angstroms)
 Number     Number       Type             X           Y           Z
 ---------------------------------------------------------------------
      1         12           0       -5.362174    1.039282   -0.282732
      2          6           0       -4.195415   -2.381058   -0.256236
      3          6           0       -2.218797    2.009317   -0.197310
      4          6           0       -6.563426    3.996193    0.245071
      5          6           0       -8.691021   -0.317942   -0.304306
      6          7           0       -3.477589   -0.089786   -0.098032
      7          6           0       -3.154025   -1.409863   -0.205962
      8          6           0       -1.736853   -1.645818   -0.404741
      9          6           0       -1.045623   -0.295240    0.037672
     10          6           0       -2.275971    0.628459   -0.063037
     11          6           0       -0.341902   -0.350858    1.510767
     12          6           0       -1.365590   -2.087518   -1.771220
     13          6           0       -0.477224   -3.301926   -1.874219
     14          6           0        0.459534   -3.735404   -0.735461
     15          8           0        0.308486   -4.734788   -0.007626
     16          8           0        1.461955   -2.818879   -0.640047
     17          7           0       -4.501703    2.738094   -0.168319
     18          6           0       -3.135226    3.006140   -0.196699
     19          6           0       -2.938796    4.458939   -0.112996
     20          6           0       -4.258755    5.057386   -0.033256
     21          6           0       -5.169840    3.950775    0.025966
     22          6           0       -1.580437    5.100616    0.014289
     23          6           0       -4.655612    6.507924   -0.000379
     24          8           0       -5.835354    6.864785    0.116727
     25          6           0       -3.556210    7.552383    0.032350
     26          7           0       -7.399680    1.713711    0.005401
     27          6           0       -7.568128    3.054890    0.242865
     28          6           0       -9.007554    3.363052    0.662582
     29          6           0       -9.768400    2.050132    0.189929
     30          6           0       -8.592092    1.075664   -0.153293
     31          6           0       -9.195822    3.814142    2.154170
     32          6           0      -10.830506    2.233380   -0.923564
     33          6           0      -12.246102    1.642034   -0.695072
     34          7           0       -6.278091   -0.923473   -0.252957
     35          6           0       -7.654959   -1.233952   -0.288682
     36          6           0       -7.729490   -2.678965   -0.242193
     37          6           0       -6.465853   -3.188790   -0.277448
     38          6           0       -5.618146   -2.077842   -0.212583
     39          6           0       -8.875580   -3.600670   -0.311795
     40          6           0       -5.586475   -4.346368   -0.390868
     41          8           0       -5.798966   -5.540950   -0.558560
     42          6           0       -4.098751   -3.860181   -0.347949
     43          6           0       -3.480483   -4.567146    0.819175
     44          8           0       -3.499404   -4.213253    1.953048
     45          8           0       -2.831374   -5.657138    0.295893
     46          6           0       -2.091931   -6.507567    1.269266
     47          6           0        2.553757   -3.142176    0.299499
     48          6           0        3.846340   -2.817782   -0.433058
     49          6           0        5.059412   -3.286983   -0.107410
     50          6           0        5.420236   -4.095812    1.154724
     51          6           0        6.306073   -2.778171   -0.885148
     52          6           0        6.489449   -1.306972   -0.686777
     53          6           0        7.879429   -0.882211   -0.153548
     54          6           0        8.190629    0.583646   -0.259889
     55          6           0        8.913412    0.984785   -1.543320
     56          6           0        8.822920    1.234545    1.039824
     57          6           0        9.988045    0.362230    1.634355
     58          6           0       10.993977    1.281240    2.345105
     59          6           0       12.458634    0.853450    2.263226
     60          6           0       13.032497    0.517507    3.634558
     61          6           0       13.453862    1.705443    1.447571
     62          6           0       13.170693    1.753097   -0.050157
     63          6           0       14.261166    1.166377   -1.016897
     64          6           0       15.009686    2.236951   -1.867534
     65          6           0       16.515037    1.961291   -2.122259
     66          6           0       14.232954    2.427975   -3.197911
     67          1           0       -1.185492    2.327181   -0.355149
     68          1           0       -6.919925    4.996974    0.496704
     69          1           0       -9.680748   -0.758314   -0.164397
     70          1           0       -1.557945   -2.539831    0.193403
     71          1           0       -0.233037    0.075499   -0.587294
     72          1           0       -0.425415   -1.329225    1.984837
     73          1           0       -0.625774    0.561654    2.034516
     74          1           0        0.717336   -0.135118    1.381164
     75          1           0       -0.749759   -1.351196   -2.285889
     76          1           0       -2.285096   -2.271777   -2.328176
     77          1           0        0.057410   -3.342709   -2.822866
     78          1           0       -1.181060   -4.112751   -2.060793
     79          1           0       -0.841887    4.325760   -0.188201
     80          1           0       -1.431187    5.482449    1.024878
     81          1           0       -1.446251    5.958576   -0.643936
     82          1           0       -2.757718    7.361420    0.749363
     83          1           0       -4.056860    8.480023    0.309902
     84          1           0       -3.095779    7.539726   -0.956082
     85          1           0       -9.349144    4.124421   -0.038596
     86          1           0      -10.293582    1.623230    1.045185
     87          1           0      -10.009088    3.247898    2.609164
     88          1           0       -9.408814    4.882140    2.201507
     89          1           0       -8.258730    3.707904    2.700581
     90          1           0      -10.374514    1.770942   -1.798669
     91          1           0      -10.881353    3.270821   -1.256593
     92          1           0      -12.998418    2.285838   -1.149771
     93          1           0      -12.411260    1.520416    0.375031
     94          1           0      -12.358327    0.698822   -1.229981
     95          1           0       -9.626923   -2.950202    0.136732
     96          1           0       -8.762492   -4.490047    0.308425
     97          1           0       -9.079906   -3.959699   -1.320470
     98          1           0       -3.690461   -4.123252   -1.323064
     99          1           0       -1.372729   -7.139895    0.749234
    100          1           0       -2.699738   -7.215279    1.833331
    101          1           0       -1.588669   -5.898065    2.020134
    102          1           0        2.452657   -4.175053    0.632157
    103          1           0        2.511488   -2.339591    1.034948
    104          1           0        3.732858   -2.295612   -1.382568
    105          1           0        4.610902   -4.206201    1.876542
    106          1           0        6.201158   -3.526790    1.658676
    107          1           0        5.733033   -5.061230    0.756136
    108          1           0        6.049792   -2.949637   -1.930655
    109          1           0        7.217123   -3.318592   -0.631142
    110          1           0        5.788586   -0.972001    0.077609
    111          1           0        6.235290   -0.632484   -1.504761
    112          1           0        8.677491   -1.515096   -0.541402
    113          1           0        7.715024   -1.020493    0.915233
    114          1           0        7.235392    1.106754   -0.240581
    115          1           0        8.162008    1.319677   -2.258018
    116          1           0        9.499615    0.150729   -1.930615
    117          1           0        9.650876    1.731093   -1.248965
    118          1           0        8.078659    1.311472    1.832470
    119          1           0        8.986552    2.291588    0.833082
    120          1           0       10.357432   -0.424437    0.976941
    121          1           0        9.528870   -0.100733    2.508257
    122          1           0       10.719411    1.259121    3.399746
    123          1           0       10.703148    2.298702    2.083342
    124          1           0       12.475635   -0.094317    1.724722
    125          1           0       14.077206    0.206704    3.611888
    126          1           0       12.442636   -0.282361    4.081504
    127          1           0       12.968930    1.441810    4.209340
    128          1           0       14.398224    1.221707    1.695907
    129          1           0       13.422489    2.681949    1.931802
    130          1           0       13.025016    2.827283   -0.162045
    131          1           0       12.221380    1.257749   -0.254873
    132          1           0       13.618483    0.492379   -1.583341
    133          1           0       14.977598    0.603688   -0.417469
    134          1           0       14.920081    3.123924   -1.240970
    135          1           0       16.817083    1.985700   -3.168924
    136          1           0       16.926151    1.063491   -1.660317
    137          1           0       17.035642    2.679577   -1.489202
    138          1           0       14.214938    1.546831   -3.839765
    139          1           0       14.418078    3.368708   -3.716126
    140          1           0       13.238714    2.543759   -2.766803
 ---------------------------------------------------------------------

 SCF Done:  E(RwB97XD) =  -3007.85884492     A.U. after   19 cycles

 Excitation energies and oscillator strengths:

 Excited State   1:      Singlet-A      1.6534 eV  749.88 nm  f=0.3577  <S**2>=0.000
     245 -> 248        0.18790
     246 -> 247        0.68120
     245 <- 248        0.11684
 This state for optimization and/or second-order correction.
 Total Energy, E(TD-HF/TD-DFT) =  -3007.79808375
 Copying the excited state density for this state as the 1-particle RhoCI density.

 Excited State   2:      Singlet-A      2.1453 eV  577.94 nm  f=0.1074  <S**2>=0.000
     245 -> 247        0.63792
     246 -> 248       -0.28888

 Excited State   3:      Singlet-A      3.3758 eV  367.27 nm  f=0.0170  <S**2>=0.000
     241 -> 247       -0.10880
     243 -> 247       -0.35587
     244 -> 247        0.54602
     246 -> 248       -0.16439

 Excited State   4:      Singlet-A      3.4656 eV  357.75 nm  f=0.0407  <S**2>=0.000
     240 -> 247        0.22082
     240 -> 249        0.10152
     241 -> 247        0.50500
     241 -> 249        0.23892
     241 -> 250       -0.21305
     244 -> 247        0.12220
     246 -> 248       -0.17573

 Excited State   5:      Singlet-A      3.5432 eV  349.92 nm  f=0.5422  <S**2>=0.000
     243 -> 247        0.14660
     244 -> 247        0.30156
     245 -> 247        0.24318
     246 -> 248        0.55243
     245 <- 247       -0.10225

 The electronic state is 1-A.
 Alpha  occ. eigenvalues --  -46.93590 -19.31407 -19.28906 -19.25644 -19.24317
 Alpha  occ. eigenvalues --  -19.23883 -19.23859 -14.46424 -14.46086 -14.43705
 Alpha  occ. eigenvalues --  -14.43269 -10.44368 -10.42120 -10.39111 -10.39020
 Alpha  occ. eigenvalues --  -10.36644 -10.35096 -10.34844 -10.34666 -10.33935
 Alpha  occ. eigenvalues --  -10.33843 -10.33809 -10.33743 -10.33406 -10.32992
 Alpha  occ. eigenvalues --  -10.32819 -10.32533 -10.31752 -10.31608 -10.31558
 Alpha  occ. eigenvalues --  -10.31556 -10.31487 -10.31377 -10.31252 -10.31166
 Alpha  occ. eigenvalues --  -10.31035 -10.31026 -10.30950 -10.30797 -10.30629
 Alpha  occ. eigenvalues --  -10.30288 -10.30273 -10.30087 -10.30033 -10.30019
 Alpha  occ. eigenvalues --  -10.29980 -10.29884 -10.29694 -10.29492 -10.29351
 Alpha  occ. eigenvalues --  -10.29289 -10.29256 -10.29239 -10.29126 -10.28982
 Alpha  occ. eigenvalues --  -10.28946 -10.28902 -10.28820 -10.28679 -10.28493
 Alpha  occ. eigenvalues --  -10.28471 -10.28437 -10.28330 -10.28318 -10.28186
 Alpha  occ. eigenvalues --  -10.28034  -3.19806  -1.93390  -1.92925  -1.92818
 Alpha  occ. eigenvalues --   -1.19031  -1.17787  -1.11841  -1.11464  -1.10060
 Alpha  occ. eigenvalues --   -1.09885  -1.05934  -1.05036  -1.04619  -1.03481
 Alpha  occ. eigenvalues --   -0.94240  -0.93148  -0.92706  -0.91899  -0.90811
 Alpha  occ. eigenvalues --   -0.90490  -0.89609  -0.89482  -0.89365  -0.89058
 Alpha  occ. eigenvalues --   -0.88638  -0.87528  -0.86454  -0.85501  -0.85257
 Alpha  occ. eigenvalues --   -0.84621  -0.83655  -0.83294  -0.82801  -0.82386
 Alpha  occ. eigenvalues --   -0.81921  -0.80402  -0.80079  -0.78763  -0.78383
 Alpha  occ. eigenvalues --   -0.77553  -0.77544  -0.76904  -0.76665  -0.76272
 Alpha  occ. eigenvalues --   -0.75805  -0.74446  -0.73618  -0.72566  -0.70978
 Alpha  occ. eigenvalues --   -0.70520  -0.70148  -0.69163  -0.68972  -0.68584
 Alpha  occ. eigenvalues --   -0.67786  -0.67292  -0.66598  -0.66162  -0.65783
 Alpha  occ. eigenvalues --   -0.65506  -0.64318  -0.63564  -0.63339  -0.62473
 Alpha  occ. eigenvalues --   -0.61955  -0.61532  -0.61181  -0.60174  -0.60061
 Alpha  occ. eigenvalues --   -0.59399  -0.58801  -0.57827  -0.57800  -0.57583
 Alpha  occ. eigenvalues --   -0.56852  -0.56724  -0.56235  -0.56138  -0.55770
 Alpha  occ. eigenvalues --   -0.55413  -0.55225  -0.55019  -0.54847  -0.54691
 Alpha  occ. eigenvalues --   -0.54494  -0.54427  -0.54079  -0.53834  -0.53520
 Alpha  occ. eigenvalues --   -0.53382  -0.53204  -0.53013  -0.52911  -0.52791
 Alpha  occ. eigenvalues --   -0.52690  -0.52479  -0.52111  -0.52064  -0.52019
 Alpha  occ. eigenvalues --   -0.51731  -0.51535  -0.51430  -0.51053  -0.50762
 Alpha  occ. eigenvalues --   -0.50642  -0.50372  -0.50096  -0.49795  -0.49427
 Alpha  occ. eigenvalues --   -0.49247  -0.49218  -0.49196  -0.48852  -0.48792
 Alpha  occ. eigenvalues --   -0.48302  -0.48224  -0.48006  -0.47874  -0.47698
 Alpha  occ. eigenvalues --   -0.47583  -0.47475  -0.47195  -0.46899  -0.46651
 Alpha  occ. eigenvalues --   -0.46595  -0.46148  -0.46004  -0.45920  -0.45877
 Alpha  occ. eigenvalues --   -0.45717  -0.45479  -0.45296  -0.45071  -0.44888
 Alpha  occ. eigenvalues --   -0.44443  -0.44274  -0.44250  -0.43976  -0.43936
 Alpha  occ. eigenvalues --   -0.43681  -0.43555  -0.43179  -0.43090  -0.42794
 Alpha  occ. eigenvalues --   -0.42649  -0.42586  -0.42332  -0.42065  -0.41976
 Alpha  occ. eigenvalues --   -0.41917  -0.41732  -0.41243  -0.40821  -0.40643
 Alpha  occ. eigenvalues --   -0.40589  -0.40267  -0.39727  -0.39695  -0.39273
 Alpha  occ. eigenvalues --   -0.39117  -0.38891  -0.38507  -0.38227  -0.38182
 Alpha  occ. eigenvalues --   -0.37775  -0.37762  -0.36474  -0.36336  -0.36169
 Alpha  occ. eigenvalues --   -0.36023  -0.35792  -0.35435  -0.33269  -0.32745
 Alpha  occ. eigenvalues --   -0.32623  -0.32455  -0.32159  -0.31799  -0.25611
 Alpha  occ. eigenvalues --   -0.22795
 Alpha virt. eigenvalues --   -0.06785   0.00262   0.02516   0.04268   0.06020
 Alpha virt. eigenvalues --    0.06622   0.07718   0.08003   0.09261   0.09637
 Alpha virt. eigenvalues --    0.10760   0.10804   0.11591   0.12010   0.12533

 Mulliken charges:
               1
     1  Mg   0.994497
     2  C   -0.050085
     3  C   -0.127930
     4  C   -0.057407
     5  C   -0.102039
     6  N   -0.352985
     7  C    0.037208
     8  C   -0.099192
     9  C   -0.082227
    10  C    0.072039
    11  C    0.024013
    12  C    0.074036
    13  C   -0.012797
    14  C    0.216994
    15  O   -0.275267
    16  O   -0.370469
    17  N   -0.583977
    18  C    0.218233
    19  C   -0.165206
    20  C   -0.053891
    21  C    0.160553
    22  C    0.069227
    23  C    0.049235
    24  O   -0.248161
    25  C   -0.023294
    26  N   -0.362244
    27  C    0.025712
    28  C   -0.052193
    29  C   -0.117542
    30  C    0.085140
    31  C    0.034584
    32  C   -0.005762
    33  C   -0.044499
    34  N   -0.397411
    35  C    0.151544
    36  C   -0.236217
    37  C    0.048598
    38  C    0.088699
    39  C    0.068892
    40  C    0.075652
    41  O   -0.200810
    42  C   -0.060113
    43  C    0.279546
    44  O   -0.212464
    45  O   -0.366780
    46  C    0.149063
    47  C    0.262780
    48  C   -0.160640
    49  C   -0.232426
    50  C    0.028331
    51  C    0.067992
    52  C   -0.029859
    53  C    0.001877
    54  C   -0.200286
    55  C    0.036952
    56  C   -0.041953
    57  C   -0.049449
    58  C    0.047526
    59  C   -0.195825
    60  C   -0.006128
    61  C    0.018702
    62  C   -0.046706
    63  C    0.009091
    64  C   -0.195460
    65  C    0.005083
    66  C   -0.004752
    67  H   -0.015560
    68  H    0.017997
    69  H    0.006329
    70  H    0.044689
    71  H    0.037979
    72  H    0.066575
    73  H    0.034697
    74  H    0.019790
    75  H    0.033848
    76  H    0.039905
    77  H    0.050819
    78  H    0.042494
    79  H    0.030108
    80  H    0.059911
    81  H    0.040290
    82  H    0.051299
    83  H    0.058970
    84  H    0.061690
    85  H    0.034902
    86  H    0.028851
    87  H    0.039349
    88  H    0.044518
    89  H    0.047115
    90  H    0.023500
    91  H    0.029324
    92  H    0.037509
    93  H    0.039448
    94  H    0.041463
    95  H    0.025468
    96  H    0.057073
    97  H    0.067858
    98  H    0.070713
    99  H    0.056156
   100  H    0.043299
   101  H    0.052365
   102  H    0.082867
   103  H    0.051640
   104  H    0.030660
   105  H    0.034927
   106  H    0.047333
   107  H    0.061185
   108  H    0.035893
   109  H    0.021616
   110  H    0.017097
   111  H    0.013138
   112  H    0.024657
   113  H    0.007849
   114  H    0.005156
   115  H    0.040721
   116  H    0.019232
   117  H    0.027535
   118  H    0.009759
   119  H    0.020290
   120  H    0.038166
   121  H    0.022380
   122  H    0.002509
   123  H    0.005978
   124  H    0.008066
   125  H    0.026291
   126  H    0.031526
   127  H    0.025294
   128  H    0.005572
   129  H    0.011600
   130  H    0.022732
   131  H    0.023349
   132  H    0.019138
   133  H    0.017069
   134  H    0.025843
   135  H    0.039457
   136  H    0.016432
   137  H    0.020424
   138  H    0.040062
   139  H    0.036732
   140  H    0.011735
 Sum of Mulliken charges =  -0.00000

 Dipole moment (field-independent basis, Debye):
    X=              4.7105    Y=              2.8567    Z=             -1.0786  Tot=              5.6137
 Quadrupole moment (field-independent basis, Debye-Ang):
   XX=           -381.7349   YY=           -430.9525   ZZ=           -401.7331
   XY=            -15.2154   XZ=              9.3427   YZ=              2.8328

 Normal termination of Gaussian 16 at Thu May  5 14:47:01 2022.
