 Gaussian 16, Revision A.03,
 Gaussian 16:  ES64L-G16RevA.03 25-Dec-2016

 --------------------
 #p ZINDO=(nstates=5)
 --------------------

 ----------------------------
 step_901_chromophore_6 ZINDO
 ----------------------------
 Symbolic Z-matrix:
 Charge =  0 Multiplicity = 1

                         Standard orientation:
 ---------------------------------------------------------------------
 Center     Atomic      Atomic             Coordinates (Angstroms)
 Number     Number       Type             X           Y           Z
 ---------------------------------------------------------------------
      1         12           0       -5.362174    1.039282   -0.282732
      2          6           0       -4.195415   -2.381058   -0.256236
      3          6           0       -2.218797    2.009317   -0.197310
      4          6           0       -6.563426    3.996193    0.245071
      5          6           0       -8.691021   -0.317942   -0.304306
      6          7           0       -3.477589   -0.089786   -0.098032
      7          6           0       -3.154025   -1.409863   -0.205962
      8          6           0       -1.736853   -1.645818   -0.404741
      9          6           0       -1.045623   -0.295240    0.037672
     10          6           0       -2.275971    0.628459   -0.063037
     11          6           0       -0.341902   -0.350858    1.510767
     12          6           0       -1.365590   -2.087518   -1.771220
     13          6           0       -0.477224   -3.301926   -1.874219
     14          6           0        0.459534   -3.735404   -0.735461
     15          8           0        0.308486   -4.734788   -0.007626
     16          8           0        1.461955   -2.818879   -0.640047
     17          7           0       -4.501703    2.738094   -0.168319
     18          6           0       -3.135226    3.006140   -0.196699
     19          6           0       -2.938796    4.458939   -0.112996
     20          6           0       -4.258755    5.057386   -0.033256
     21          6           0       -5.169840    3.950775    0.025966
     22          6           0       -1.580437    5.100616    0.014289
     23          6           0       -4.655612    6.507924   -0.000379
     24          8           0       -5.835354    6.864785    0.116727
     25          6           0       -3.556210    7.552383    0.032350
     26          7           0       -7.399680    1.713711    0.005401
     27          6           0       -7.568128    3.054890    0.242865
     28          6           0       -9.007554    3.363052    0.662582
     29          6           0       -9.768400    2.050132    0.189929
     30          6           0       -8.592092    1.075664   -0.153293
     31          6           0       -9.195822    3.814142    2.154170
     32          6           0      -10.830506    2.233380   -0.923564
     33          6           0      -12.246102    1.642034   -0.695072
     34          7           0       -6.278091   -0.923473   -0.252957
     35          6           0       -7.654959   -1.233952   -0.288682
     36          6           0       -7.729490   -2.678965   -0.242193
     37          6           0       -6.465853   -3.188790   -0.277448
     38          6           0       -5.618146   -2.077842   -0.212583
     39          6           0       -8.875580   -3.600670   -0.311795
     40          6           0       -5.586475   -4.346368   -0.390868
     41          8           0       -5.798966   -5.540950   -0.558560
     42          6           0       -4.098751   -3.860181   -0.347949
     43          6           0       -3.480483   -4.567146    0.819175
     44          8           0       -3.499404   -4.213253    1.953048
     45          8           0       -2.831374   -5.657138    0.295893
     46          6           0       -2.091931   -6.507567    1.269266
     47          6           0        2.553757   -3.142176    0.299499
     48          6           0        3.846340   -2.817782   -0.433058
     49          6           0        5.059412   -3.286983   -0.107410
     50          6           0        5.420236   -4.095812    1.154724
     51          6           0        6.306073   -2.778171   -0.885148
     52          6           0        6.489449   -1.306972   -0.686777
     53          6           0        7.879429   -0.882211   -0.153548
     54          6           0        8.190629    0.583646   -0.259889
     55          6           0        8.913412    0.984785   -1.543320
     56          6           0        8.822920    1.234545    1.039824
     57          6           0        9.988045    0.362230    1.634355
     58          6           0       10.993977    1.281240    2.345105
     59          6           0       12.458634    0.853450    2.263226
     60          6           0       13.032497    0.517507    3.634558
     61          6           0       13.453862    1.705443    1.447571
     62          6           0       13.170693    1.753097   -0.050157
     63          6           0       14.261166    1.166377   -1.016897
     64          6           0       15.009686    2.236951   -1.867534
     65          6           0       16.515037    1.961291   -2.122259
     66          6           0       14.232954    2.427975   -3.197911
     67          1           0       -1.185492    2.327181   -0.355149
     68          1           0       -6.919925    4.996974    0.496704
     69          1           0       -9.680748   -0.758314   -0.164397
     70          1           0       -1.557945   -2.539831    0.193403
     71          1           0       -0.233037    0.075499   -0.587294
     72          1           0       -0.425415   -1.329225    1.984837
     73          1           0       -0.625774    0.561654    2.034516
     74          1           0        0.717336   -0.135118    1.381164
     75          1           0       -0.749759   -1.351196   -2.285889
     76          1           0       -2.285096   -2.271777   -2.328176
     77          1           0        0.057410   -3.342709   -2.822866
     78          1           0       -1.181060   -4.112751   -2.060793
     79          1           0       -0.841887    4.325760   -0.188201
     80          1           0       -1.431187    5.482449    1.024878
     81          1           0       -1.446251    5.958576   -0.643936
     82          1           0       -2.757718    7.361420    0.749363
     83          1           0       -4.056860    8.480023    0.309902
     84          1           0       -3.095779    7.539726   -0.956082
     85          1           0       -9.349144    4.124421   -0.038596
     86          1           0      -10.293582    1.623230    1.045185
     87          1           0      -10.009088    3.247898    2.609164
     88          1           0       -9.408814    4.882140    2.201507
     89          1           0       -8.258730    3.707904    2.700581
     90          1           0      -10.374514    1.770942   -1.798669
     91          1           0      -10.881353    3.270821   -1.256593
     92          1           0      -12.998418    2.285838   -1.149771
     93          1           0      -12.411260    1.520416    0.375031
     94          1           0      -12.358327    0.698822   -1.229981
     95          1           0       -9.626923   -2.950202    0.136732
     96          1           0       -8.762492   -4.490047    0.308425
     97          1           0       -9.079906   -3.959699   -1.320470
     98          1           0       -3.690461   -4.123252   -1.323064
     99          1           0       -1.372729   -7.139895    0.749234
    100          1           0       -2.699738   -7.215279    1.833331
    101          1           0       -1.588669   -5.898065    2.020134
    102          1           0        2.452657   -4.175053    0.632157
    103          1           0        2.511488   -2.339591    1.034948
    104          1           0        3.732858   -2.295612   -1.382568
    105          1           0        4.610902   -4.206201    1.876542
    106          1           0        6.201158   -3.526790    1.658676
    107          1           0        5.733033   -5.061230    0.756136
    108          1           0        6.049792   -2.949637   -1.930655
    109          1           0        7.217123   -3.318592   -0.631142
    110          1           0        5.788586   -0.972001    0.077609
    111          1           0        6.235290   -0.632484   -1.504761
    112          1           0        8.677491   -1.515096   -0.541402
    113          1           0        7.715024   -1.020493    0.915233
    114          1           0        7.235392    1.106754   -0.240581
    115          1           0        8.162008    1.319677   -2.258018
    116          1           0        9.499615    0.150729   -1.930615
    117          1           0        9.650876    1.731093   -1.248965
    118          1           0        8.078659    1.311472    1.832470
    119          1           0        8.986552    2.291588    0.833082
    120          1           0       10.357432   -0.424437    0.976941
    121          1           0        9.528870   -0.100733    2.508257
    122          1           0       10.719411    1.259121    3.399746
    123          1           0       10.703148    2.298702    2.083342
    124          1           0       12.475635   -0.094317    1.724722
    125          1           0       14.077206    0.206704    3.611888
    126          1           0       12.442636   -0.282361    4.081504
    127          1           0       12.968930    1.441810    4.209340
    128          1           0       14.398224    1.221707    1.695907
    129          1           0       13.422489    2.681949    1.931802
    130          1           0       13.025016    2.827283   -0.162045
    131          1           0       12.221380    1.257749   -0.254873
    132          1           0       13.618483    0.492379   -1.583341
    133          1           0       14.977598    0.603688   -0.417469
    134          1           0       14.920081    3.123924   -1.240970
    135          1           0       16.817083    1.985700   -3.168924
    136          1           0       16.926151    1.063491   -1.660317
    137          1           0       17.035642    2.679577   -1.489202
    138          1           0       14.214938    1.546831   -3.839765
    139          1           0       14.418078    3.368708   -3.716126
    140          1           0       13.238714    2.543759   -2.766803
 ---------------------------------------------------------------------

 SCF Done:  E(RZINDO/S) =  -474.444262451     A.U. after   19 cycles

 Excitation energies and oscillator strengths:

 Excited State   1:      Singlet-A      1.2512 eV  990.92 nm  f=0.5544  <S**2>=0.000
     175 ->178        -0.19115
     176 ->177         0.66357
 This state for optimization and/or second-order correction.
 Total Energy, E(CIS/TDA) =  -474.398281608
 Copying the excited state density for this state as the 1-particle RhoCI density.

 Excited State   2:      Singlet-A      1.8932 eV  654.90 nm  f=0.0424  <S**2>=0.000
     175 ->177         0.55026
     176 ->178         0.41885

 Excited State   3:      Singlet-A      2.9152 eV  425.30 nm  f=0.0006  <S**2>=0.000
     168 ->177         0.36624
     168 ->179        -0.42190
     168 ->181         0.24578
     168 ->186        -0.20642

 Excited State   4:      Singlet-A      2.9796 eV  416.11 nm  f=0.9986  <S**2>=0.000
     171 ->177         0.11055
     175 ->177        -0.35944
     176 ->178         0.50244
     176 ->179        -0.16782
     176 ->181        -0.17331

 Excited State   5:      Singlet-A      2.9930 eV  414.24 nm  f=0.0125  <S**2>=0.000
     169 ->181        -0.12535
     170 ->177         0.23940
     170 ->178        -0.15293
     170 ->179         0.28403
     170 ->180         0.17451
     170 ->181         0.36657
     170 ->186         0.15342
     170 ->187         0.20266

 The electronic state is 1-A.
 Alpha  occ. eigenvalues --   -1.84872  -1.80564  -1.79397  -1.73308  -1.72245
 Alpha  occ. eigenvalues --   -1.70106  -1.66395  -1.62013  -1.58421  -1.57509
 Alpha  occ. eigenvalues --   -1.55587  -1.52522  -1.49879  -1.48978  -1.45980
 Alpha  occ. eigenvalues --   -1.44867  -1.44179  -1.40231  -1.38740  -1.37973
 Alpha  occ. eigenvalues --   -1.35957  -1.34499  -1.33366  -1.32493  -1.28992
 Alpha  occ. eigenvalues --   -1.28051  -1.24954  -1.21951  -1.20605  -1.18217
 Alpha  occ. eigenvalues --   -1.17311  -1.17004  -1.16225  -1.15586  -1.12848
 Alpha  occ. eigenvalues --   -1.11855  -1.11227  -1.10808  -1.05223  -1.03580
 Alpha  occ. eigenvalues --   -1.02692  -1.01582  -0.98458  -0.97832  -0.96954
 Alpha  occ. eigenvalues --   -0.95935  -0.94732  -0.93981  -0.93274  -0.92199
 Alpha  occ. eigenvalues --   -0.91618  -0.90772  -0.88537  -0.88066  -0.85816
 Alpha  occ. eigenvalues --   -0.85472  -0.83823  -0.83153  -0.82047  -0.79663
 Alpha  occ. eigenvalues --   -0.79420  -0.78641  -0.77065  -0.76551  -0.76116
 Alpha  occ. eigenvalues --   -0.75677  -0.75290  -0.74098  -0.74046  -0.73082
 Alpha  occ. eigenvalues --   -0.72310  -0.71920  -0.71377  -0.71210  -0.70269
 Alpha  occ. eigenvalues --   -0.69748  -0.69435  -0.68884  -0.68073  -0.67976
 Alpha  occ. eigenvalues --   -0.67102  -0.66812  -0.66243  -0.65703  -0.65478
 Alpha  occ. eigenvalues --   -0.65145  -0.64889  -0.64476  -0.64106  -0.63766
 Alpha  occ. eigenvalues --   -0.63466  -0.62890  -0.62686  -0.62013  -0.61561
 Alpha  occ. eigenvalues --   -0.61467  -0.60854  -0.60239  -0.60205  -0.60010
 Alpha  occ. eigenvalues --   -0.59767  -0.59423  -0.59300  -0.58776  -0.58749
 Alpha  occ. eigenvalues --   -0.58393  -0.58053  -0.57344  -0.57226  -0.57123
 Alpha  occ. eigenvalues --   -0.56624  -0.55682  -0.55418  -0.54706  -0.54641
 Alpha  occ. eigenvalues --   -0.54227  -0.53814  -0.53348  -0.52602  -0.52258
 Alpha  occ. eigenvalues --   -0.52208  -0.51898  -0.51494  -0.51338  -0.51210
 Alpha  occ. eigenvalues --   -0.50727  -0.50436  -0.50410  -0.50008  -0.49946
 Alpha  occ. eigenvalues --   -0.49794  -0.49435  -0.49099  -0.48946  -0.48804
 Alpha  occ. eigenvalues --   -0.48566  -0.48475  -0.47769  -0.47660  -0.47438
 Alpha  occ. eigenvalues --   -0.47360  -0.47177  -0.46783  -0.46421  -0.46326
 Alpha  occ. eigenvalues --   -0.46078  -0.45989  -0.45440  -0.45415  -0.45175
 Alpha  occ. eigenvalues --   -0.44857  -0.44527  -0.44286  -0.43924  -0.43712
 Alpha  occ. eigenvalues --   -0.43048  -0.42995  -0.42635  -0.41907  -0.41855
 Alpha  occ. eigenvalues --   -0.41742  -0.41476  -0.40967  -0.39256  -0.38870
 Alpha  occ. eigenvalues --   -0.38199  -0.37057  -0.35438  -0.34972  -0.34572
 Alpha  occ. eigenvalues --   -0.33569  -0.32224  -0.32186  -0.31612  -0.26289
 Alpha  occ. eigenvalues --   -0.21524
 Alpha virt. eigenvalues --   -0.08219  -0.01850  -0.00356   0.01236   0.01318
 Alpha virt. eigenvalues --    0.02748   0.03443   0.03708   0.04645   0.05134
 Alpha virt. eigenvalues --    0.06516   0.07318   0.07913   0.08060   0.08235

 Mulliken charges:
               1
     1  Mg   0.424791
     2  C   -0.077224
     3  C   -0.054209
     4  C   -0.054707
     5  C   -0.058257
     6  N   -0.297314
     7  C    0.162819
     8  C    0.022050
     9  C   -0.002439
    10  C    0.096430
    11  C   -0.061410
    12  C   -0.006042
    13  C   -0.001252
    14  C    0.474999
    15  O   -0.523356
    16  O   -0.271991
    17  N   -0.328894
    18  C    0.091972
    19  C   -0.019395
    20  C   -0.055530
    21  C    0.127638
    22  C   -0.041693
    23  C    0.327328
    24  O   -0.534072
    25  C   -0.033930
    26  N   -0.268204
    27  C    0.113825
    28  C    0.000121
    29  C    0.002854
    30  C    0.144078
    31  C   -0.045843
    32  C   -0.031200
    33  C   -0.054817
    34  N   -0.340128
    35  C    0.115556
    36  C    0.059865
    37  C   -0.045313
    38  C    0.134265
    39  C   -0.043931
    40  C    0.338553
    41  O   -0.515571
    42  C    0.056523
    43  C    0.503047
    44  O   -0.507463
    45  O   -0.265438
    46  C    0.073128
    47  C    0.098175
    48  C   -0.092064
    49  C   -0.014768
    50  C   -0.044957
    51  C   -0.017158
    52  C   -0.030887
    53  C   -0.034281
    54  C   -0.016567
    55  C   -0.056517
    56  C   -0.042097
    57  C   -0.041193
    58  C   -0.032876
    59  C   -0.010926
    60  C   -0.055544
    61  C   -0.033715
    62  C   -0.041588
    63  C   -0.035911
    64  C   -0.006535
    65  C   -0.064103
    66  C   -0.061035
    67  H    0.008163
    68  H    0.041013
    69  H    0.026812
    70  H    0.040532
    71  H    0.032240
    72  H    0.043041
    73  H    0.031414
    74  H    0.010512
    75  H    0.021476
    76  H    0.026289
    77  H    0.035137
    78  H    0.022881
    79  H    0.022934
    80  H    0.030126
    81  H    0.026923
    82  H    0.035092
    83  H    0.037727
    84  H    0.039815
    85  H    0.029345
    86  H    0.026484
    87  H    0.023754
    88  H    0.024308
    89  H    0.028851
    90  H    0.013503
    91  H    0.024175
    92  H    0.020436
    93  H    0.025701
    94  H    0.020510
    95  H    0.020341
    96  H    0.037227
    97  H    0.043968
    98  H    0.057072
    99  H    0.035938
   100  H    0.038424
   101  H    0.046270
   102  H    0.074095
   103  H    0.049643
   104  H    0.035165
   105  H    0.023102
   106  H    0.028919
   107  H    0.036303
   108  H    0.020084
   109  H    0.025476
   110  H    0.012349
   111  H    0.019653
   112  H    0.025555
   113  H    0.011656
   114  H    0.005495
   115  H    0.025619
   116  H    0.017231
   117  H    0.020299
   118  H    0.009041
   119  H    0.022783
   120  H    0.036680
   121  H    0.013550
   122  H    0.009179
   123  H    0.022775
   124  H    0.006070
   125  H    0.015755
   126  H    0.016454
   127  H    0.016914
   128  H    0.017924
   129  H    0.016951
   130  H    0.016993
   131  H    0.020197
   132  H    0.021351
   133  H    0.020383
   134  H    0.024488
   135  H    0.027935
   136  H    0.017146
   137  H    0.013191
   138  H    0.030041
   139  H    0.022387
   140  H    0.007062
 Sum of Mulliken charges =  -0.00000

 Dipole moment (field-independent basis, Debye):
    X=              4.5773    Y=              2.1424    Z=             -2.2622  Tot=              5.5371
 N-N= 4.296462509322D+03 E-N= 0.000000000000D+00  KE=-9.267805086477D+03
 Leave Link  601 at Thu May  5 15:03:30 2022, MaxMem=  6710886400 cpu:               1.1 elap:               0.1
 (Enter /sw/apps/gaussian-16.0/g16/l9999.exe)
 1\1\GINC-BP1-COMPUTE179\SP\RZINDO CIS\STO-3G\C55H74Mg1N4O6\OF15641\05-
 May-2022\0\\#p ZINDO=(nstates=5)\\step_901_chromophore_6 ZINDO\\0,1\Mg
 ,0,16.675,-2.489,28.224\C,0,16.084,-0.327,31.059\C,0,18.229,-4.562,30.
 253\C,0,17.595,-4.022,25.528\C,0,14.988,-0.006,26.246\N,0,17.197,-2.34
 3,30.361\C,0,16.818,-1.508,31.37\C,0,17.104,-2.029,32.693\C,0,18.166,-
 3.173,32.446\C,0,17.9,-3.404,30.945\C,0,19.701,-2.758,32.82\C,0,15.913
 ,-2.474,33.457\C,0,15.783,-1.963,34.87\C,0,16.997,-1.509,35.696\O,0,17

 Normal termination of Gaussian 16 at Thu May  5 15:03:30 2022.
