 Gaussian 16, Revision A.03,
 Gaussian 16:  ES64L-G16RevA.03 25-Dec-2016

 ------------------------------
 #p blyp/Def2SVP td=(nstates=5)
 ------------------------------

 --------------------------------------------------
 step_901_chromophore_14 TDDFT with blyp functional
 --------------------------------------------------
 Symbolic Z-matrix:
 Charge =  0 Multiplicity = 1

                         Standard orientation:
 ---------------------------------------------------------------------
 Center     Atomic      Atomic             Coordinates (Angstroms)
 Number     Number       Type             X           Y           Z
 ---------------------------------------------------------------------
      1         12           0        4.990670    0.917135   -0.332533
      2          6           0        5.055372   -2.367546    0.336142
      3          6           0        3.924407    0.343118   -3.586492
      4          6           0        3.965930    4.233647   -0.582481
      5          6           0        5.837889    1.663416    3.028552
      6          7           0        4.433750   -0.823572   -1.413969
      7          6           0        4.606037   -2.078337   -1.018233
      8          6           0        4.174752   -3.064008   -2.061371
      9          6           0        4.160913   -2.216084   -3.354167
     10          6           0        4.189376   -0.751909   -2.774238
     11          6           0        5.310393   -2.490765   -4.450457
     12          6           0        2.943088   -4.011854   -1.641660
     13          6           0        1.838625   -3.240905   -0.820436
     14          6           0        0.395901   -3.743310   -0.737400
     15          8           0       -0.060029   -4.671233   -1.331714
     16          8           0       -0.344274   -2.958562    0.180029
     17          7           0        4.173075    2.099981   -1.870951
     18          6           0        3.866780    1.690903   -3.090180
     19          6           0        3.297510    2.796230   -3.881632
     20          6           0        3.440326    3.954846   -3.093787
     21          6           0        3.837794    3.481337   -1.734927
     22          6           0        2.743792    2.626953   -5.322801
     23          6           0        3.256400    5.407418   -3.517792
     24          8           0        2.996381    5.754824   -4.651455
     25          6           0        3.315427    6.609856   -2.604995
     26          7           0        4.718971    2.682027    1.136896
     27          6           0        4.331030    3.917488    0.736466
     28          6           0        4.387827    4.973053    1.918136
     29          6           0        5.177357    4.215769    3.046444
     30          6           0        5.340567    2.798213    2.353058
     31          6           0        5.057124    6.297208    1.507317
     32          6           0        4.537343    4.260188    4.527756
     33          6           0        5.377570    4.799241    5.695608
     34          7           0        5.524172   -0.118054    1.365215
     35          6           0        5.826986    0.259351    2.627510
     36          6           0        6.133314   -0.947207    3.445069
     37          6           0        5.839404   -1.991594    2.540590
     38          6           0        5.453494   -1.445820    1.309672
     39          6           0        6.464046   -0.899631    4.927527
     40          6           0        5.785247   -3.376658    2.391582
     41          8           0        6.011096   -4.239203    3.236093
     42          6           0        5.293773   -3.774896    0.919550
     43          6           0        6.446611   -4.488005    0.324195
     44          8           0        6.358427   -5.624977   -0.216434
     45          8           0        7.594464   -3.680533    0.284924
     46          6           0        8.845198   -4.377875    0.008056
     47          6           0       -1.743719   -3.318981    0.368060
     48          6           0       -2.678903   -2.127038    0.439032
     49          6           0       -3.464092   -1.683708   -0.597364
     50          6           0       -3.272043   -2.067632   -2.046644
     51          6           0       -4.239191   -0.383679   -0.410996
     52          6           0       -5.728827   -0.772162   -0.104378
     53          6           0       -6.372109   -0.031643    1.063697
     54          6           0       -7.888287    0.334666    0.627625
     55          6           0       -8.346484    1.740455    1.159827
     56          6           0       -8.819960   -0.711137    1.191806
     57          6           0       -9.754833   -1.466232    0.101598
     58          6           0      -11.070205   -1.942026    0.850191
     59          6           0      -12.199059   -0.852155    0.915844
     60          6           0      -12.446663   -0.362818    2.305874
     61          6           0      -13.563228   -1.336108    0.206452
     62          6           0      -13.831645   -0.558533   -1.156477
     63          6           0      -15.000048    0.439578   -1.013617
     64          6           0      -14.954878    1.463720    0.174862
     65          6           0      -16.126617    1.282048    1.184045
     66          6           0      -14.807458    2.930867   -0.168010
     67          1           0        3.723579    0.097445   -4.631395
     68          1           0        3.393643    5.140172   -0.795039
     69          1           0        6.090391    1.889472    4.066455
     70          1           0        5.006740   -3.767650   -2.117446
     71          1           0        3.227096   -2.339577   -3.901486
     72          1           0        5.976325   -1.650652   -4.644438
     73          1           0        4.841609   -2.798563   -5.384425
     74          1           0        5.798600   -3.412548   -4.134662
     75          1           0        3.181414   -5.012854   -1.282186
     76          1           0        2.385035   -4.363725   -2.509375
     77          1           0        1.907104   -2.206727   -1.158364
     78          1           0        2.099769   -3.371133    0.229463
     79          1           0        3.563807    2.327319   -5.974947
     80          1           0        2.360702    3.612962   -5.588902
     81          1           0        1.899233    1.939929   -5.287901
     82          1           0        4.188068    6.537384   -1.956081
     83          1           0        2.475750    6.583101   -1.911287
     84          1           0        3.321540    7.572712   -3.117144
     85          1           0        3.340666    4.961616    2.218402
     86          1           0        6.153320    4.702860    3.049300
     87          1           0        5.594752    6.182761    0.567044
     88          1           0        5.589857    6.793310    2.318772
     89          1           0        4.356921    7.066490    1.181396
     90          1           0        4.228507    3.260057    4.832541
     91          1           0        3.677247    4.928814    4.497896
     92          1           0        4.780998    5.486014    6.296242
     93          1           0        6.246477    5.320542    5.292297
     94          1           0        5.644362    4.012617    6.401592
     95          1           0        5.520064   -0.810586    5.465582
     96          1           0        7.067172   -0.079410    5.317116
     97          1           0        6.921388   -1.856380    5.178610
     98          1           0        4.387059   -4.379124    0.885302
     99          1           0        9.636830   -3.628403    0.009720
    100          1           0        8.783288   -4.943930   -0.922064
    101          1           0        9.108550   -5.107042    0.774478
    102          1           0       -1.640403   -4.065780    1.155669
    103          1           0       -2.183027   -3.928341   -0.421473
    104          1           0       -2.911762   -1.792936    1.450662
    105          1           0       -2.565524   -1.544262   -2.689927
    106          1           0       -4.258446   -2.169117   -2.500388
    107          1           0       -2.950753   -3.109474   -2.064279
    108          1           0       -4.174348    0.327348   -1.234726
    109          1           0       -3.868920    0.225104    0.413956
    110          1           0       -5.696416   -1.832957    0.143764
    111          1           0       -6.232747   -0.615244   -1.058373
    112          1           0       -5.906481    0.936741    1.244193
    113          1           0       -6.276621   -0.625520    1.972960
    114          1           0       -7.927281    0.393298   -0.460013
    115          1           0       -8.338709    2.369183    0.268893
    116          1           0       -7.655969    2.122060    1.912322
    117          1           0       -9.371433    1.756722    1.531002
    118          1           0       -9.477093   -0.293958    1.955778
    119          1           0       -8.189922   -1.370047    1.788762
    120          1           0       -9.277612   -2.318772   -0.381793
    121          1           0      -10.083217   -0.823269   -0.714159
    122          1           0      -10.775879   -2.305004    1.835020
    123          1           0      -11.459005   -2.743701    0.221611
    124          1           0      -11.897562    0.087912    0.452631
    125          1           0      -13.451345   -0.554212    2.681771
    126          1           0      -12.240540    0.707754    2.280900
    127          1           0      -11.772756   -0.716603    3.085266
    128          1           0      -14.379151   -1.340631    0.929203
    129          1           0      -13.387965   -2.357851   -0.130638
    130          1           0      -14.122063   -1.316877   -1.883674
    131          1           0      -12.986481    0.023792   -1.520937
    132          1           0      -15.960347   -0.056027   -1.158698
    133          1           0      -14.902831    1.042919   -1.916573
    134          1           0      -14.021892    1.201634    0.675482
    135          1           0      -16.891264    0.568766    0.875000
    136          1           0      -16.615894    2.251158    1.275161
    137          1           0      -15.743251    1.005770    2.166621
    138          1           0      -15.665684    3.424168   -0.624733
    139          1           0      -13.972020    2.971121   -0.865693
    140          1           0      -14.427713    3.411162    0.733253
 ---------------------------------------------------------------------

 SCF Done:  E(RB-LYP) =  -3007.34100706     A.U. after   21 cycles

 Excitation energies and oscillator strengths:

 Excited State   1:      Singlet-A      1.7820 eV  695.75 nm  f=0.2565  <S**2>=0.000
     243 -> 247        0.21332
     244 -> 247        0.11864
     245 -> 247        0.17245
     245 -> 248       -0.16150
     246 -> 247        0.62849
     246 <- 247       -0.14293
 This state for optimization and/or second-order correction.
 Total Energy, E(TD-HF/TD-DFT) =  -3007.27551908
 Copying the excited state density for this state as the 1-particle RhoCI density.

 Excited State   2:      Singlet-A      1.7881 eV  693.37 nm  f=0.0062  <S**2>=0.000
     243 -> 247       -0.31777
     244 -> 247        0.56576
     245 -> 247       -0.26702

 Excited State   3:      Singlet-A      1.7969 eV  690.00 nm  f=0.0595  <S**2>=0.000
     243 -> 247        0.38810
     244 -> 247        0.40651
     245 -> 247        0.31134
     246 -> 247       -0.28427

 Excited State   4:      Singlet-A      2.0668 eV  599.88 nm  f=0.0473  <S**2>=0.000
     243 -> 247       -0.42518
     245 -> 247        0.47691
     246 -> 248        0.28006

 Excited State   5:      Singlet-A      2.3644 eV  524.37 nm  f=0.0001  <S**2>=0.000
     242 -> 247        0.70706

 The electronic state is 1-A.
 Alpha  occ. eigenvalues --  -46.28226 -18.82363 -18.80642 -18.77187 -18.76974
 Alpha  occ. eigenvalues --  -18.75397 -18.75206 -14.03933 -14.03539 -14.01806
 Alpha  occ. eigenvalues --  -14.01380 -10.04474 -10.03931 -10.00032  -9.99135
 Alpha  occ. eigenvalues --   -9.97731  -9.97301  -9.97083  -9.97002  -9.96975
 Alpha  occ. eigenvalues --   -9.96804  -9.96603  -9.96388  -9.95940  -9.95013
 Alpha  occ. eigenvalues --   -9.94858  -9.94814  -9.94734  -9.94711  -9.94594
 Alpha  occ. eigenvalues --   -9.94354  -9.94297  -9.93960  -9.93833  -9.93756
 Alpha  occ. eigenvalues --   -9.93733  -9.93660  -9.93433  -9.93326  -9.93321
 Alpha  occ. eigenvalues --   -9.93122  -9.93048  -9.92984  -9.92848  -9.92462
 Alpha  occ. eigenvalues --   -9.92320  -9.92259  -9.92090  -9.91965  -9.91910
 Alpha  occ. eigenvalues --   -9.91762  -9.91710  -9.91706  -9.91645  -9.91624
 Alpha  occ. eigenvalues --   -9.91490  -9.91463  -9.91270  -9.91205  -9.91035
 Alpha  occ. eigenvalues --   -9.90946  -9.90861  -9.90794  -9.90547  -9.90442
 Alpha  occ. eigenvalues --   -9.90225  -2.92791  -1.73201  -1.72698  -1.72493
 Alpha  occ. eigenvalues --   -0.97117  -0.96473  -0.92251  -0.90836  -0.90044
 Alpha  occ. eigenvalues --   -0.88480  -0.87613  -0.86824  -0.85936  -0.85176
 Alpha  occ. eigenvalues --   -0.75841  -0.73415  -0.72398  -0.72240  -0.72064
 Alpha  occ. eigenvalues --   -0.72028  -0.71556  -0.70821  -0.70422  -0.70020
 Alpha  occ. eigenvalues --   -0.69484  -0.68874  -0.68009  -0.67742  -0.67219
 Alpha  occ. eigenvalues --   -0.66170  -0.65989  -0.65035  -0.64794  -0.64442
 Alpha  occ. eigenvalues --   -0.63964  -0.62761  -0.62298  -0.61836  -0.61128
 Alpha  occ. eigenvalues --   -0.60452  -0.60076  -0.59810  -0.59438  -0.58691
 Alpha  occ. eigenvalues --   -0.58245  -0.57850  -0.56912  -0.55655  -0.54765
 Alpha  occ. eigenvalues --   -0.54541  -0.53356  -0.53204  -0.52022  -0.51806
 Alpha  occ. eigenvalues --   -0.51596  -0.51406  -0.51313  -0.50427  -0.49839
 Alpha  occ. eigenvalues --   -0.49494  -0.49054  -0.48643  -0.48027  -0.46540
 Alpha  occ. eigenvalues --   -0.46389  -0.45945  -0.45406  -0.45172  -0.44712
 Alpha  occ. eigenvalues --   -0.44353  -0.43595  -0.43186  -0.42849  -0.42370
 Alpha  occ. eigenvalues --   -0.42172  -0.41660  -0.41337  -0.40851  -0.40742
 Alpha  occ. eigenvalues --   -0.40567  -0.40398  -0.40295  -0.40116  -0.39986
 Alpha  occ. eigenvalues --   -0.39760  -0.39411  -0.39160  -0.39099  -0.39022
 Alpha  occ. eigenvalues --   -0.38902  -0.38817  -0.38543  -0.38446  -0.38370
 Alpha  occ. eigenvalues --   -0.37981  -0.37890  -0.37735  -0.37520  -0.37266
 Alpha  occ. eigenvalues --   -0.37189  -0.36986  -0.36853  -0.36710  -0.36500
 Alpha  occ. eigenvalues --   -0.36391  -0.36256  -0.35967  -0.35682  -0.35554
 Alpha  occ. eigenvalues --   -0.35393  -0.35331  -0.35018  -0.34968  -0.34758
 Alpha  occ. eigenvalues --   -0.34724  -0.34455  -0.34323  -0.34242  -0.34163
 Alpha  occ. eigenvalues --   -0.34030  -0.33891  -0.33861  -0.33476  -0.33344
 Alpha  occ. eigenvalues --   -0.32990  -0.32839  -0.32638  -0.32537  -0.32386
 Alpha  occ. eigenvalues --   -0.32383  -0.32346  -0.32039  -0.31784  -0.31361
 Alpha  occ. eigenvalues --   -0.31111  -0.30929  -0.30915  -0.30723  -0.30471
 Alpha  occ. eigenvalues --   -0.30388  -0.30248  -0.30093  -0.29987  -0.29766
 Alpha  occ. eigenvalues --   -0.29736  -0.29536  -0.29437  -0.29320  -0.28723
 Alpha  occ. eigenvalues --   -0.28518  -0.28435  -0.28432  -0.28307  -0.28003
 Alpha  occ. eigenvalues --   -0.27630  -0.27427  -0.26962  -0.26716  -0.26620
 Alpha  occ. eigenvalues --   -0.26513  -0.26076  -0.25756  -0.25751  -0.24884
 Alpha  occ. eigenvalues --   -0.24816  -0.24312  -0.24222  -0.23971  -0.23884
 Alpha  occ. eigenvalues --   -0.23389  -0.22553  -0.22175  -0.21518  -0.21191
 Alpha  occ. eigenvalues --   -0.20922  -0.20471  -0.18461  -0.18295  -0.17681
 Alpha  occ. eigenvalues --   -0.15905
 Alpha virt. eigenvalues --   -0.11783  -0.07404  -0.06425  -0.04945  -0.04057
 Alpha virt. eigenvalues --   -0.04023  -0.03312  -0.02117  -0.01641  -0.00027
 Alpha virt. eigenvalues --    0.01124   0.01424   0.01976   0.02156   0.02918

 Mulliken charges:
               1
     1  Mg   0.703660
     2  C   -0.040643
     3  C   -0.076715
     4  C   -0.037138
     5  C   -0.053153
     6  N   -0.238349
     7  C   -0.091681
     8  C    0.092129
     9  C   -0.014488
    10  C    0.046969
    11  C    0.117560
    12  C    0.089542
    13  C    0.078314
    14  C    0.084204
    15  O   -0.151010
    16  O   -0.305373
    17  N   -0.271145
    18  C    0.134157
    19  C   -0.191674
    20  C    0.059266
    21  C    0.068067
    22  C    0.193653
    23  C   -0.088925
    24  O   -0.155728
    25  C    0.137349
    26  N   -0.178612
    27  C   -0.025802
    28  C    0.029562
    29  C    0.062816
    30  C   -0.026814
    31  C    0.136337
    32  C    0.078454
    33  C    0.055226
    34  N   -0.237858
    35  C    0.076654
    36  C   -0.168538
    37  C    0.186647
    38  C    0.094872
    39  C    0.159556
    40  C   -0.151435
    41  O   -0.142062
    42  C    0.097065
    43  C    0.149728
    44  O   -0.207563
    45  O   -0.293882
    46  C    0.231092
    47  C    0.294749
    48  C   -0.045283
    49  C   -0.140094
    50  C    0.160395
    51  C    0.110043
    52  C    0.053094
    53  C    0.107415
    54  C   -0.110364
    55  C    0.104273
    56  C    0.119476
    57  C    0.050608
    58  C    0.113996
    59  C   -0.087065
    60  C    0.102750
    61  C    0.101571
    62  C    0.055872
    63  C    0.096267
    64  C   -0.093611
    65  C    0.109200
    66  C    0.117324
    67  H   -0.052534
    68  H   -0.064383
    69  H   -0.065519
    70  H   -0.023980
    71  H   -0.023239
    72  H    0.009908
    73  H   -0.010976
    74  H   -0.005748
    75  H   -0.001288
    76  H   -0.025575
    77  H    0.030417
    78  H    0.011205
    79  H    0.010944
    80  H    0.002364
    81  H   -0.001396
    82  H   -0.008529
    83  H    0.017040
    84  H   -0.005439
    85  H   -0.014942
    86  H   -0.028478
    87  H    0.000286
    88  H    0.002323
    89  H   -0.021443
    90  H   -0.009127
    91  H   -0.016399
    92  H   -0.011890
    93  H   -0.004586
    94  H   -0.004252
    95  H    0.005962
    96  H   -0.002755
    97  H    0.011921
    98  H   -0.009832
    99  H    0.012659
   100  H    0.012320
   101  H    0.012048
   102  H   -0.023562
   103  H   -0.014065
   104  H   -0.036502
   105  H    0.023177
   106  H   -0.020310
   107  H   -0.027103
   108  H   -0.026756
   109  H   -0.030972
   110  H   -0.017918
   111  H   -0.017186
   112  H   -0.037810
   113  H   -0.017211
   114  H   -0.026924
   115  H   -0.022038
   116  H   -0.010752
   117  H   -0.013087
   118  H   -0.041056
   119  H   -0.041314
   120  H   -0.026381
   121  H   -0.026981
   122  H   -0.023943
   123  H   -0.042825
   124  H   -0.023663
   125  H   -0.017636
   126  H   -0.015688
   127  H   -0.025586
   128  H   -0.022377
   129  H   -0.035856
   130  H   -0.031030
   131  H   -0.016671
   132  H   -0.035804
   133  H   -0.058569
   134  H   -0.048813
   135  H   -0.016636
   136  H   -0.028248
   137  H   -0.013427
   138  H   -0.003202
   139  H   -0.031604
   140  H   -0.015668
 Sum of Mulliken charges =  -0.00000

 Dipole moment (field-independent basis, Debye):
    X=              0.4997    Y=              4.9900    Z=              1.1685  Tot=              5.1493
 Quadrupole moment (field-independent basis, Debye-Ang):
   XX=           -383.5251   YY=           -440.0319   ZZ=           -407.5922
   XY=             25.4725   XZ=              0.1872   YZ=             38.4430

 Normal termination of Gaussian 16 at Sat Apr 30 21:35:57 2022.
