 Gaussian 16, Revision A.03,
 Gaussian 16:  ES64L-G16RevA.03 25-Dec-2016

 -----------------------------------
 #p cam-b3lyp/Def2SVP td=(nstates=5)
 -----------------------------------

 -------------------------------------------------------
 step_901_chromophore_14 TDDFT with cam-b3lyp functional
 -------------------------------------------------------
 Symbolic Z-matrix:
 Charge =  0 Multiplicity = 1

                         Standard orientation:
 ---------------------------------------------------------------------
 Center     Atomic      Atomic             Coordinates (Angstroms)
 Number     Number       Type             X           Y           Z
 ---------------------------------------------------------------------
      1         12           0        4.990670    0.917135   -0.332533
      2          6           0        5.055372   -2.367546    0.336142
      3          6           0        3.924407    0.343118   -3.586492
      4          6           0        3.965930    4.233647   -0.582481
      5          6           0        5.837889    1.663416    3.028552
      6          7           0        4.433750   -0.823572   -1.413969
      7          6           0        4.606037   -2.078337   -1.018233
      8          6           0        4.174752   -3.064008   -2.061371
      9          6           0        4.160913   -2.216084   -3.354167
     10          6           0        4.189376   -0.751909   -2.774238
     11          6           0        5.310393   -2.490765   -4.450457
     12          6           0        2.943088   -4.011854   -1.641660
     13          6           0        1.838625   -3.240905   -0.820436
     14          6           0        0.395901   -3.743310   -0.737400
     15          8           0       -0.060029   -4.671233   -1.331714
     16          8           0       -0.344274   -2.958562    0.180029
     17          7           0        4.173075    2.099981   -1.870951
     18          6           0        3.866780    1.690903   -3.090180
     19          6           0        3.297510    2.796230   -3.881632
     20          6           0        3.440326    3.954846   -3.093787
     21          6           0        3.837794    3.481337   -1.734927
     22          6           0        2.743792    2.626953   -5.322801
     23          6           0        3.256400    5.407418   -3.517792
     24          8           0        2.996381    5.754824   -4.651455
     25          6           0        3.315427    6.609856   -2.604995
     26          7           0        4.718971    2.682027    1.136896
     27          6           0        4.331030    3.917488    0.736466
     28          6           0        4.387827    4.973053    1.918136
     29          6           0        5.177357    4.215769    3.046444
     30          6           0        5.340567    2.798213    2.353058
     31          6           0        5.057124    6.297208    1.507317
     32          6           0        4.537343    4.260188    4.527756
     33          6           0        5.377570    4.799241    5.695608
     34          7           0        5.524172   -0.118054    1.365215
     35          6           0        5.826986    0.259351    2.627510
     36          6           0        6.133314   -0.947207    3.445069
     37          6           0        5.839404   -1.991594    2.540590
     38          6           0        5.453494   -1.445820    1.309672
     39          6           0        6.464046   -0.899631    4.927527
     40          6           0        5.785247   -3.376658    2.391582
     41          8           0        6.011096   -4.239203    3.236093
     42          6           0        5.293773   -3.774896    0.919550
     43          6           0        6.446611   -4.488005    0.324195
     44          8           0        6.358427   -5.624977   -0.216434
     45          8           0        7.594464   -3.680533    0.284924
     46          6           0        8.845198   -4.377875    0.008056
     47          6           0       -1.743719   -3.318981    0.368060
     48          6           0       -2.678903   -2.127038    0.439032
     49          6           0       -3.464092   -1.683708   -0.597364
     50          6           0       -3.272043   -2.067632   -2.046644
     51          6           0       -4.239191   -0.383679   -0.410996
     52          6           0       -5.728827   -0.772162   -0.104378
     53          6           0       -6.372109   -0.031643    1.063697
     54          6           0       -7.888287    0.334666    0.627625
     55          6           0       -8.346484    1.740455    1.159827
     56          6           0       -8.819960   -0.711137    1.191806
     57          6           0       -9.754833   -1.466232    0.101598
     58          6           0      -11.070205   -1.942026    0.850191
     59          6           0      -12.199059   -0.852155    0.915844
     60          6           0      -12.446663   -0.362818    2.305874
     61          6           0      -13.563228   -1.336108    0.206452
     62          6           0      -13.831645   -0.558533   -1.156477
     63          6           0      -15.000048    0.439578   -1.013617
     64          6           0      -14.954878    1.463720    0.174862
     65          6           0      -16.126617    1.282048    1.184045
     66          6           0      -14.807458    2.930867   -0.168010
     67          1           0        3.723579    0.097445   -4.631395
     68          1           0        3.393643    5.140172   -0.795039
     69          1           0        6.090391    1.889472    4.066455
     70          1           0        5.006740   -3.767650   -2.117446
     71          1           0        3.227096   -2.339577   -3.901486
     72          1           0        5.976325   -1.650652   -4.644438
     73          1           0        4.841609   -2.798563   -5.384425
     74          1           0        5.798600   -3.412548   -4.134662
     75          1           0        3.181414   -5.012854   -1.282186
     76          1           0        2.385035   -4.363725   -2.509375
     77          1           0        1.907104   -2.206727   -1.158364
     78          1           0        2.099769   -3.371133    0.229463
     79          1           0        3.563807    2.327319   -5.974947
     80          1           0        2.360702    3.612962   -5.588902
     81          1           0        1.899233    1.939929   -5.287901
     82          1           0        4.188068    6.537384   -1.956081
     83          1           0        2.475750    6.583101   -1.911287
     84          1           0        3.321540    7.572712   -3.117144
     85          1           0        3.340666    4.961616    2.218402
     86          1           0        6.153320    4.702860    3.049300
     87          1           0        5.594752    6.182761    0.567044
     88          1           0        5.589857    6.793310    2.318772
     89          1           0        4.356921    7.066490    1.181396
     90          1           0        4.228507    3.260057    4.832541
     91          1           0        3.677247    4.928814    4.497896
     92          1           0        4.780998    5.486014    6.296242
     93          1           0        6.246477    5.320542    5.292297
     94          1           0        5.644362    4.012617    6.401592
     95          1           0        5.520064   -0.810586    5.465582
     96          1           0        7.067172   -0.079410    5.317116
     97          1           0        6.921388   -1.856380    5.178610
     98          1           0        4.387059   -4.379124    0.885302
     99          1           0        9.636830   -3.628403    0.009720
    100          1           0        8.783288   -4.943930   -0.922064
    101          1           0        9.108550   -5.107042    0.774478
    102          1           0       -1.640403   -4.065780    1.155669
    103          1           0       -2.183027   -3.928341   -0.421473
    104          1           0       -2.911762   -1.792936    1.450662
    105          1           0       -2.565524   -1.544262   -2.689927
    106          1           0       -4.258446   -2.169117   -2.500388
    107          1           0       -2.950753   -3.109474   -2.064279
    108          1           0       -4.174348    0.327348   -1.234726
    109          1           0       -3.868920    0.225104    0.413956
    110          1           0       -5.696416   -1.832957    0.143764
    111          1           0       -6.232747   -0.615244   -1.058373
    112          1           0       -5.906481    0.936741    1.244193
    113          1           0       -6.276621   -0.625520    1.972960
    114          1           0       -7.927281    0.393298   -0.460013
    115          1           0       -8.338709    2.369183    0.268893
    116          1           0       -7.655969    2.122060    1.912322
    117          1           0       -9.371433    1.756722    1.531002
    118          1           0       -9.477093   -0.293958    1.955778
    119          1           0       -8.189922   -1.370047    1.788762
    120          1           0       -9.277612   -2.318772   -0.381793
    121          1           0      -10.083217   -0.823269   -0.714159
    122          1           0      -10.775879   -2.305004    1.835020
    123          1           0      -11.459005   -2.743701    0.221611
    124          1           0      -11.897562    0.087912    0.452631
    125          1           0      -13.451345   -0.554212    2.681771
    126          1           0      -12.240540    0.707754    2.280900
    127          1           0      -11.772756   -0.716603    3.085266
    128          1           0      -14.379151   -1.340631    0.929203
    129          1           0      -13.387965   -2.357851   -0.130638
    130          1           0      -14.122063   -1.316877   -1.883674
    131          1           0      -12.986481    0.023792   -1.520937
    132          1           0      -15.960347   -0.056027   -1.158698
    133          1           0      -14.902831    1.042919   -1.916573
    134          1           0      -14.021892    1.201634    0.675482
    135          1           0      -16.891264    0.568766    0.875000
    136          1           0      -16.615894    2.251158    1.275161
    137          1           0      -15.743251    1.005770    2.166621
    138          1           0      -15.665684    3.424168   -0.624733
    139          1           0      -13.972020    2.971121   -0.865693
    140          1           0      -14.427713    3.411162    0.733253
 ---------------------------------------------------------------------

 SCF Done:  E(RCAM-B3LYP) =  -3007.11917991     A.U. after   19 cycles

 Excitation energies and oscillator strengths:

 Excited State   1:      Singlet-A      1.6715 eV  741.77 nm  f=0.3807  <S**2>=0.000
     245 -> 248       -0.17625
     246 -> 247        0.68703
     245 <- 248       -0.10930
 This state for optimization and/or second-order correction.
 Total Energy, E(TD-HF/TD-DFT) =  -3007.05775497
 Copying the excited state density for this state as the 1-particle RhoCI density.

 Excited State   2:      Singlet-A      2.2725 eV  545.59 nm  f=0.0604  <S**2>=0.000
     245 -> 247        0.61227
     246 -> 248        0.34230

 Excited State   3:      Singlet-A      3.3613 eV  368.86 nm  f=0.1401  <S**2>=0.000
     242 -> 247        0.26549
     242 -> 249        0.16027
     242 -> 251       -0.10597
     243 -> 247        0.43319
     243 -> 249        0.18748
     243 -> 251       -0.10040
     245 -> 247        0.16244
     246 -> 248       -0.32422

 Excited State   4:      Singlet-A      3.4676 eV  357.55 nm  f=0.4318  <S**2>=0.000
     241 -> 247        0.26849
     242 -> 247        0.19925
     242 -> 249        0.14216
     243 -> 247        0.18717
     245 -> 247       -0.25213
     246 -> 248        0.46640

 Excited State   5:      Singlet-A      3.5016 eV  354.08 nm  f=0.0766  <S**2>=0.000
     240 -> 247        0.17975
     240 -> 249       -0.16855
     240 -> 251       -0.16391
     241 -> 247        0.41396
     241 -> 249       -0.18789
     241 -> 251       -0.11635
     242 -> 247       -0.30105
     243 -> 247        0.12325
     245 -> 247        0.11006
     246 -> 248       -0.16992

 The electronic state is 1-A.
 Alpha  occ. eigenvalues --  -46.89840 -19.25256 -19.23394 -19.20155 -19.20063
 Alpha  occ. eigenvalues --  -19.18781 -19.18190 -14.42681 -14.42569 -14.40528
 Alpha  occ. eigenvalues --  -14.39666 -10.40000 -10.39219 -10.35337 -10.34280
 Alpha  occ. eigenvalues --  -10.31760 -10.31742 -10.31614 -10.31606 -10.31333
 Alpha  occ. eigenvalues --  -10.31332 -10.30814 -10.30560 -10.30459 -10.29110
 Alpha  occ. eigenvalues --  -10.29078 -10.28945 -10.28933 -10.28806 -10.28790
 Alpha  occ. eigenvalues --  -10.28616 -10.28585 -10.28457 -10.27980 -10.27944
 Alpha  occ. eigenvalues --  -10.27672 -10.27665 -10.27510 -10.27491 -10.27452
 Alpha  occ. eigenvalues --  -10.27189 -10.26886 -10.26879 -10.26615 -10.26274
 Alpha  occ. eigenvalues --  -10.26217 -10.26135 -10.26114 -10.25708 -10.25616
 Alpha  occ. eigenvalues --  -10.25428 -10.25424 -10.25412 -10.25345 -10.25276
 Alpha  occ. eigenvalues --  -10.25146 -10.25074 -10.25047 -10.25001 -10.24713
 Alpha  occ. eigenvalues --  -10.24603 -10.24421 -10.24366 -10.24214 -10.24031
 Alpha  occ. eigenvalues --  -10.23791  -3.18305  -1.93192  -1.92773  -1.92600
 Alpha  occ. eigenvalues --   -1.15575  -1.14860  -1.10855  -1.09054  -1.07816
 Alpha  occ. eigenvalues --   -1.06363  -1.05266  -1.04385  -1.03699  -1.02863
 Alpha  occ. eigenvalues --   -0.92852  -0.90216  -0.89160  -0.89080  -0.88728
 Alpha  occ. eigenvalues --   -0.88708  -0.88198  -0.87393  -0.86939  -0.86484
 Alpha  occ. eigenvalues --   -0.86250  -0.85228  -0.84228  -0.83910  -0.83367
 Alpha  occ. eigenvalues --   -0.82229  -0.82098  -0.81124  -0.80617  -0.80210
 Alpha  occ. eigenvalues --   -0.79674  -0.78362  -0.77851  -0.77471  -0.76524
 Alpha  occ. eigenvalues --   -0.75764  -0.75391  -0.75145  -0.74735  -0.73815
 Alpha  occ. eigenvalues --   -0.73318  -0.72826  -0.71847  -0.70418  -0.69355
 Alpha  occ. eigenvalues --   -0.69123  -0.67974  -0.67788  -0.66332  -0.65912
 Alpha  occ. eigenvalues --   -0.65751  -0.65508  -0.65456  -0.64380  -0.63818
 Alpha  occ. eigenvalues --   -0.63172  -0.62973  -0.62260  -0.61861  -0.60115
 Alpha  occ. eigenvalues --   -0.59830  -0.59568  -0.58914  -0.58545  -0.58040
 Alpha  occ. eigenvalues --   -0.57797  -0.57020  -0.56433  -0.56033  -0.55599
 Alpha  occ. eigenvalues --   -0.55377  -0.54740  -0.54241  -0.53976  -0.53498
 Alpha  occ. eigenvalues --   -0.53323  -0.53038  -0.52993  -0.52831  -0.52657
 Alpha  occ. eigenvalues --   -0.52559  -0.52294  -0.51915  -0.51716  -0.51638
 Alpha  occ. eigenvalues --   -0.51339  -0.51324  -0.51107  -0.50804  -0.50689
 Alpha  occ. eigenvalues --   -0.50358  -0.50195  -0.50117  -0.49691  -0.49542
 Alpha  occ. eigenvalues --   -0.49424  -0.49338  -0.49136  -0.49066  -0.48931
 Alpha  occ. eigenvalues --   -0.48627  -0.48560  -0.48231  -0.47917  -0.47614
 Alpha  occ. eigenvalues --   -0.47465  -0.47241  -0.47229  -0.46975  -0.46752
 Alpha  occ. eigenvalues --   -0.46641  -0.46345  -0.46264  -0.46166  -0.46044
 Alpha  occ. eigenvalues --   -0.45859  -0.45639  -0.45497  -0.45296  -0.44939
 Alpha  occ. eigenvalues --   -0.44700  -0.44564  -0.44156  -0.44106  -0.44082
 Alpha  occ. eigenvalues --   -0.44019  -0.43868  -0.43747  -0.43334  -0.42768
 Alpha  occ. eigenvalues --   -0.42676  -0.42595  -0.42429  -0.42399  -0.42120
 Alpha  occ. eigenvalues --   -0.41930  -0.41817  -0.41450  -0.41135  -0.41009
 Alpha  occ. eigenvalues --   -0.40848  -0.40833  -0.40620  -0.40346  -0.39788
 Alpha  occ. eigenvalues --   -0.39567  -0.39547  -0.39443  -0.39240  -0.39037
 Alpha  occ. eigenvalues --   -0.38507  -0.38351  -0.37945  -0.37795  -0.37336
 Alpha  occ. eigenvalues --   -0.37250  -0.36774  -0.36695  -0.36403  -0.36299
 Alpha  occ. eigenvalues --   -0.35559  -0.35178  -0.34975  -0.34762  -0.34396
 Alpha  occ. eigenvalues --   -0.34088  -0.33617  -0.33336  -0.31569  -0.30917
 Alpha  occ. eigenvalues --   -0.30572  -0.30306  -0.30142  -0.29988  -0.24665
 Alpha  occ. eigenvalues --   -0.21082
 Alpha virt. eigenvalues --   -0.08820  -0.02370   0.00076   0.01551   0.02137
 Alpha virt. eigenvalues --    0.03409   0.03770   0.04908   0.06463   0.06905
 Alpha virt. eigenvalues --    0.07761   0.08087   0.08124   0.08799   0.09013

 Mulliken charges:
               1
     1  Mg   0.834348
     2  C   -0.068765
     3  C   -0.090977
     4  C   -0.063387
     5  C   -0.058614
     6  N   -0.313232
     7  C   -0.047065
     8  C    0.037555
     9  C   -0.065509
    10  C    0.062132
    11  C    0.061648
    12  C    0.039789
    13  C    0.009237
    14  C    0.169066
    15  O   -0.192159
    16  O   -0.369222
    17  N   -0.358303
    18  C    0.146609
    19  C   -0.190462
    20  C   -0.020355
    21  C    0.103610
    22  C    0.137540
    23  C   -0.008454
    24  O   -0.195221
    25  C    0.052976
    26  N   -0.241762
    27  C    0.003601
    28  C   -0.025813
    29  C    0.012470
    30  C   -0.009388
    31  C    0.071852
    32  C    0.019415
    33  C   -0.003418
    34  N   -0.330277
    35  C    0.080081
    36  C   -0.157156
    37  C    0.099446
    38  C    0.130720
    39  C    0.109473
    40  C   -0.056897
    41  O   -0.183058
    42  C    0.027156
    43  C    0.239016
    44  O   -0.247176
    45  O   -0.355092
    46  C    0.188653
    47  C    0.256226
    48  C   -0.062080
    49  C   -0.165810
    50  C    0.097313
    51  C    0.048350
    52  C    0.003381
    53  C    0.052482
    54  C   -0.168285
    55  C    0.051071
    56  C    0.070041
    57  C    0.004030
    58  C    0.059000
    59  C   -0.139367
    60  C    0.041643
    61  C    0.044560
    62  C    0.006421
    63  C    0.043052
    64  C   -0.154593
    65  C    0.049887
    66  C    0.059961
    67  H   -0.015543
    68  H   -0.030124
    69  H   -0.032221
    70  H    0.012465
    71  H    0.012151
    72  H    0.034463
    73  H    0.013463
    74  H    0.018886
    75  H    0.029340
    76  H    0.008205
    77  H    0.058474
    78  H    0.039015
    79  H    0.036325
    80  H    0.034828
    81  H    0.025977
    82  H    0.017613
    83  H    0.042813
    84  H    0.031894
    85  H    0.020063
    86  H    0.005893
    87  H    0.025394
    88  H    0.027528
    89  H    0.003789
    90  H    0.020107
    91  H    0.011834
    92  H    0.012734
    93  H    0.016820
    94  H    0.018306
    95  H    0.031728
    96  H    0.021374
    97  H    0.038621
    98  H    0.031370
    99  H    0.036746
   100  H    0.036907
   101  H    0.034226
   102  H    0.007731
   103  H    0.017170
   104  H   -0.003751
   105  H    0.047453
   106  H    0.004713
   107  H   -0.001939
   108  H    0.004028
   109  H    0.000586
   110  H    0.010383
   111  H    0.008189
   112  H   -0.009212
   113  H    0.009859
   114  H    0.004132
   115  H    0.001764
   116  H    0.012089
   117  H    0.008213
   118  H   -0.015191
   119  H   -0.012365
   120  H    0.001401
   121  H   -0.002190
   122  H    0.003737
   123  H   -0.012550
   124  H    0.003622
   125  H    0.005924
   126  H    0.005553
   127  H    0.000352
   128  H    0.004940
   129  H   -0.006383
   130  H   -0.000821
   131  H    0.007658
   132  H   -0.007115
   133  H   -0.026912
   134  H   -0.019236
   135  H    0.007438
   136  H   -0.002671
   137  H    0.008797
   138  H    0.020127
   139  H   -0.007891
   140  H    0.008992
 Sum of Mulliken charges =  -0.00000

 Dipole moment (field-independent basis, Debye):
    X=              0.5143    Y=              5.6807    Z=              0.7953  Tot=              5.7591
 Quadrupole moment (field-independent basis, Debye-Ang):
   XX=           -384.0057   YY=           -436.5766   ZZ=           -405.3349
   XY=             27.6481   XZ=             -0.5997   YZ=             39.1160

 Normal termination of Gaussian 16 at Sat Apr 30 20:09:37 2022.
