 Gaussian 16, Revision A.03,
 Gaussian 16:  ES64L-G16RevA.03 25-Dec-2016

 ---------------------------------
 #p PBE1PBE/Def2SVP td=(nstates=5)
 ---------------------------------

 -----------------------------------------------------
 step_901_chromophore_14 TDDFT with PBE1PBE functional
 -----------------------------------------------------
 Symbolic Z-matrix:
 Charge =  0 Multiplicity = 1

                         Standard orientation:
 ---------------------------------------------------------------------
 Center     Atomic      Atomic             Coordinates (Angstroms)
 Number     Number       Type             X           Y           Z
 ---------------------------------------------------------------------
      1         12           0        4.990670    0.917135   -0.332533
      2          6           0        5.055372   -2.367546    0.336142
      3          6           0        3.924407    0.343118   -3.586492
      4          6           0        3.965930    4.233647   -0.582481
      5          6           0        5.837889    1.663416    3.028552
      6          7           0        4.433750   -0.823572   -1.413969
      7          6           0        4.606037   -2.078337   -1.018233
      8          6           0        4.174752   -3.064008   -2.061371
      9          6           0        4.160913   -2.216084   -3.354167
     10          6           0        4.189376   -0.751909   -2.774238
     11          6           0        5.310393   -2.490765   -4.450457
     12          6           0        2.943088   -4.011854   -1.641660
     13          6           0        1.838625   -3.240905   -0.820436
     14          6           0        0.395901   -3.743310   -0.737400
     15          8           0       -0.060029   -4.671233   -1.331714
     16          8           0       -0.344274   -2.958562    0.180029
     17          7           0        4.173075    2.099981   -1.870951
     18          6           0        3.866780    1.690903   -3.090180
     19          6           0        3.297510    2.796230   -3.881632
     20          6           0        3.440326    3.954846   -3.093787
     21          6           0        3.837794    3.481337   -1.734927
     22          6           0        2.743792    2.626953   -5.322801
     23          6           0        3.256400    5.407418   -3.517792
     24          8           0        2.996381    5.754824   -4.651455
     25          6           0        3.315427    6.609856   -2.604995
     26          7           0        4.718971    2.682027    1.136896
     27          6           0        4.331030    3.917488    0.736466
     28          6           0        4.387827    4.973053    1.918136
     29          6           0        5.177357    4.215769    3.046444
     30          6           0        5.340567    2.798213    2.353058
     31          6           0        5.057124    6.297208    1.507317
     32          6           0        4.537343    4.260188    4.527756
     33          6           0        5.377570    4.799241    5.695608
     34          7           0        5.524172   -0.118054    1.365215
     35          6           0        5.826986    0.259351    2.627510
     36          6           0        6.133314   -0.947207    3.445069
     37          6           0        5.839404   -1.991594    2.540590
     38          6           0        5.453494   -1.445820    1.309672
     39          6           0        6.464046   -0.899631    4.927527
     40          6           0        5.785247   -3.376658    2.391582
     41          8           0        6.011096   -4.239203    3.236093
     42          6           0        5.293773   -3.774896    0.919550
     43          6           0        6.446611   -4.488005    0.324195
     44          8           0        6.358427   -5.624977   -0.216434
     45          8           0        7.594464   -3.680533    0.284924
     46          6           0        8.845198   -4.377875    0.008056
     47          6           0       -1.743719   -3.318981    0.368060
     48          6           0       -2.678903   -2.127038    0.439032
     49          6           0       -3.464092   -1.683708   -0.597364
     50          6           0       -3.272043   -2.067632   -2.046644
     51          6           0       -4.239191   -0.383679   -0.410996
     52          6           0       -5.728827   -0.772162   -0.104378
     53          6           0       -6.372109   -0.031643    1.063697
     54          6           0       -7.888287    0.334666    0.627625
     55          6           0       -8.346484    1.740455    1.159827
     56          6           0       -8.819960   -0.711137    1.191806
     57          6           0       -9.754833   -1.466232    0.101598
     58          6           0      -11.070205   -1.942026    0.850191
     59          6           0      -12.199059   -0.852155    0.915844
     60          6           0      -12.446663   -0.362818    2.305874
     61          6           0      -13.563228   -1.336108    0.206452
     62          6           0      -13.831645   -0.558533   -1.156477
     63          6           0      -15.000048    0.439578   -1.013617
     64          6           0      -14.954878    1.463720    0.174862
     65          6           0      -16.126617    1.282048    1.184045
     66          6           0      -14.807458    2.930867   -0.168010
     67          1           0        3.723579    0.097445   -4.631395
     68          1           0        3.393643    5.140172   -0.795039
     69          1           0        6.090391    1.889472    4.066455
     70          1           0        5.006740   -3.767650   -2.117446
     71          1           0        3.227096   -2.339577   -3.901486
     72          1           0        5.976325   -1.650652   -4.644438
     73          1           0        4.841609   -2.798563   -5.384425
     74          1           0        5.798600   -3.412548   -4.134662
     75          1           0        3.181414   -5.012854   -1.282186
     76          1           0        2.385035   -4.363725   -2.509375
     77          1           0        1.907104   -2.206727   -1.158364
     78          1           0        2.099769   -3.371133    0.229463
     79          1           0        3.563807    2.327319   -5.974947
     80          1           0        2.360702    3.612962   -5.588902
     81          1           0        1.899233    1.939929   -5.287901
     82          1           0        4.188068    6.537384   -1.956081
     83          1           0        2.475750    6.583101   -1.911287
     84          1           0        3.321540    7.572712   -3.117144
     85          1           0        3.340666    4.961616    2.218402
     86          1           0        6.153320    4.702860    3.049300
     87          1           0        5.594752    6.182761    0.567044
     88          1           0        5.589857    6.793310    2.318772
     89          1           0        4.356921    7.066490    1.181396
     90          1           0        4.228507    3.260057    4.832541
     91          1           0        3.677247    4.928814    4.497896
     92          1           0        4.780998    5.486014    6.296242
     93          1           0        6.246477    5.320542    5.292297
     94          1           0        5.644362    4.012617    6.401592
     95          1           0        5.520064   -0.810586    5.465582
     96          1           0        7.067172   -0.079410    5.317116
     97          1           0        6.921388   -1.856380    5.178610
     98          1           0        4.387059   -4.379124    0.885302
     99          1           0        9.636830   -3.628403    0.009720
    100          1           0        8.783288   -4.943930   -0.922064
    101          1           0        9.108550   -5.107042    0.774478
    102          1           0       -1.640403   -4.065780    1.155669
    103          1           0       -2.183027   -3.928341   -0.421473
    104          1           0       -2.911762   -1.792936    1.450662
    105          1           0       -2.565524   -1.544262   -2.689927
    106          1           0       -4.258446   -2.169117   -2.500388
    107          1           0       -2.950753   -3.109474   -2.064279
    108          1           0       -4.174348    0.327348   -1.234726
    109          1           0       -3.868920    0.225104    0.413956
    110          1           0       -5.696416   -1.832957    0.143764
    111          1           0       -6.232747   -0.615244   -1.058373
    112          1           0       -5.906481    0.936741    1.244193
    113          1           0       -6.276621   -0.625520    1.972960
    114          1           0       -7.927281    0.393298   -0.460013
    115          1           0       -8.338709    2.369183    0.268893
    116          1           0       -7.655969    2.122060    1.912322
    117          1           0       -9.371433    1.756722    1.531002
    118          1           0       -9.477093   -0.293958    1.955778
    119          1           0       -8.189922   -1.370047    1.788762
    120          1           0       -9.277612   -2.318772   -0.381793
    121          1           0      -10.083217   -0.823269   -0.714159
    122          1           0      -10.775879   -2.305004    1.835020
    123          1           0      -11.459005   -2.743701    0.221611
    124          1           0      -11.897562    0.087912    0.452631
    125          1           0      -13.451345   -0.554212    2.681771
    126          1           0      -12.240540    0.707754    2.280900
    127          1           0      -11.772756   -0.716603    3.085266
    128          1           0      -14.379151   -1.340631    0.929203
    129          1           0      -13.387965   -2.357851   -0.130638
    130          1           0      -14.122063   -1.316877   -1.883674
    131          1           0      -12.986481    0.023792   -1.520937
    132          1           0      -15.960347   -0.056027   -1.158698
    133          1           0      -14.902831    1.042919   -1.916573
    134          1           0      -14.021892    1.201634    0.675482
    135          1           0      -16.891264    0.568766    0.875000
    136          1           0      -16.615894    2.251158    1.275161
    137          1           0      -15.743251    1.005770    2.166621
    138          1           0      -15.665684    3.424168   -0.624733
    139          1           0      -13.972020    2.971121   -0.865693
    140          1           0      -14.427713    3.411162    0.733253
 ---------------------------------------------------------------------

 SCF Done:  E(RPBE1PBE) =  -3005.30810152     A.U. after   16 cycles

 Excitation energies and oscillator strengths:

 Excited State   1:      Singlet-A      1.8275 eV  678.43 nm  f=0.3702  <S**2>=0.000
     245 -> 248       -0.17161
     246 -> 247        0.69491
     246 <- 247       -0.11412
 This state for optimization and/or second-order correction.
 Total Energy, E(TD-HF/TD-DFT) =  -3005.24094169
 Copying the excited state density for this state as the 1-particle RhoCI density.

 Excited State   2:      Singlet-A      2.2701 eV  546.17 nm  f=0.0658  <S**2>=0.000
     245 -> 247        0.63108
     246 -> 248        0.30674

 Excited State   3:      Singlet-A      2.8617 eV  433.25 nm  f=0.0007  <S**2>=0.000
     244 -> 247        0.66752
     244 -> 249       -0.16486
     246 -> 248       -0.10779

 Excited State   4:      Singlet-A      2.9691 eV  417.58 nm  f=0.0001  <S**2>=0.000
     242 -> 247        0.66859
     242 -> 249        0.15165
     242 -> 250        0.10734

 Excited State   5:      Singlet-A      3.2052 eV  386.82 nm  f=0.0093  <S**2>=0.000
     240 -> 247       -0.20726
     241 -> 247        0.65586

 The electronic state is 1-A.
 Alpha  occ. eigenvalues --  -46.93229 -19.25915 -19.24117 -19.20398 -19.20369
 Alpha  occ. eigenvalues --  -19.18874 -19.18564 -14.42281 -14.41979 -14.40043
 Alpha  occ. eigenvalues --  -14.39371 -10.37094 -10.36241 -10.32379 -10.31554
 Alpha  occ. eigenvalues --  -10.29564 -10.29392 -10.29262 -10.29190 -10.28900
 Alpha  occ. eigenvalues --  -10.28829 -10.28381 -10.28203 -10.28048 -10.26948
 Alpha  occ. eigenvalues --  -10.26928 -10.26718 -10.26714 -10.26605 -10.26456
 Alpha  occ. eigenvalues --  -10.26449 -10.26345 -10.26322 -10.25634 -10.25543
 Alpha  occ. eigenvalues --  -10.25366 -10.25184 -10.25177 -10.25126 -10.25103
 Alpha  occ. eigenvalues --  -10.24688 -10.24372 -10.24307 -10.24128 -10.23781
 Alpha  occ. eigenvalues --  -10.23608 -10.23553 -10.23375 -10.23360 -10.23078
 Alpha  occ. eigenvalues --  -10.23071 -10.23066 -10.22986 -10.22978 -10.22898
 Alpha  occ. eigenvalues --  -10.22893 -10.22694 -10.22652 -10.22619 -10.22301
 Alpha  occ. eigenvalues --  -10.22174 -10.21845 -10.21762 -10.21732 -10.21406
 Alpha  occ. eigenvalues --  -10.21189  -3.15275  -1.88102  -1.87663  -1.87491
 Alpha  occ. eigenvalues --   -1.10368  -1.09626  -1.05489  -1.03917  -1.02711
 Alpha  occ. eigenvalues --   -1.01210  -0.99983  -0.99115  -0.98256  -0.97437
 Alpha  occ. eigenvalues --   -0.87313  -0.84339  -0.83338  -0.83218  -0.82970
 Alpha  occ. eigenvalues --   -0.82949  -0.82304  -0.81725  -0.81059  -0.80851
 Alpha  occ. eigenvalues --   -0.80456  -0.79454  -0.78454  -0.78217  -0.77549
 Alpha  occ. eigenvalues --   -0.76429  -0.76260  -0.75292  -0.74898  -0.74479
 Alpha  occ. eigenvalues --   -0.73866  -0.72674  -0.72123  -0.71695  -0.70820
 Alpha  occ. eigenvalues --   -0.69948  -0.69725  -0.69219  -0.68859  -0.68052
 Alpha  occ. eigenvalues --   -0.67607  -0.67259  -0.66300  -0.64733  -0.63728
 Alpha  occ. eigenvalues --   -0.63664  -0.62335  -0.62027  -0.60573  -0.60368
 Alpha  occ. eigenvalues --   -0.60135  -0.59967  -0.59757  -0.58947  -0.57962
 Alpha  occ. eigenvalues --   -0.57730  -0.57124  -0.56821  -0.56041  -0.54735
 Alpha  occ. eigenvalues --   -0.54222  -0.54107  -0.53466  -0.53174  -0.52462
 Alpha  occ. eigenvalues --   -0.52418  -0.51436  -0.50977  -0.50448  -0.50169
 Alpha  occ. eigenvalues --   -0.49932  -0.49247  -0.48794  -0.48577  -0.48006
 Alpha  occ. eigenvalues --   -0.47795  -0.47705  -0.47438  -0.47344  -0.47153
 Alpha  occ. eigenvalues --   -0.47108  -0.46775  -0.46310  -0.46240  -0.46140
 Alpha  occ. eigenvalues --   -0.45915  -0.45774  -0.45718  -0.45339  -0.45204
 Alpha  occ. eigenvalues --   -0.45080  -0.44679  -0.44598  -0.44326  -0.44153
 Alpha  occ. eigenvalues --   -0.44025  -0.43855  -0.43774  -0.43670  -0.43481
 Alpha  occ. eigenvalues --   -0.43256  -0.43189  -0.42849  -0.42514  -0.42236
 Alpha  occ. eigenvalues --   -0.42058  -0.41927  -0.41822  -0.41669  -0.41504
 Alpha  occ. eigenvalues --   -0.41389  -0.41039  -0.40896  -0.40791  -0.40718
 Alpha  occ. eigenvalues --   -0.40472  -0.40427  -0.40192  -0.40062  -0.39624
 Alpha  occ. eigenvalues --   -0.39492  -0.39397  -0.38946  -0.38904  -0.38837
 Alpha  occ. eigenvalues --   -0.38799  -0.38555  -0.38525  -0.38241  -0.37574
 Alpha  occ. eigenvalues --   -0.37450  -0.37392  -0.37260  -0.37191  -0.36873
 Alpha  occ. eigenvalues --   -0.36784  -0.36550  -0.36342  -0.36074  -0.35734
 Alpha  occ. eigenvalues --   -0.35704  -0.35588  -0.35534  -0.35292  -0.34587
 Alpha  occ. eigenvalues --   -0.34411  -0.34377  -0.34288  -0.33994  -0.33808
 Alpha  occ. eigenvalues --   -0.33285  -0.33165  -0.32931  -0.32578  -0.32413
 Alpha  occ. eigenvalues --   -0.32082  -0.31812  -0.31588  -0.31253  -0.31250
 Alpha  occ. eigenvalues --   -0.30454  -0.30169  -0.30055  -0.29670  -0.29572
 Alpha  occ. eigenvalues --   -0.28936  -0.28675  -0.28618  -0.27186  -0.26257
 Alpha  occ. eigenvalues --   -0.25931  -0.25357  -0.25322  -0.25208  -0.21540
 Alpha  occ. eigenvalues --   -0.18783
 Alpha virt. eigenvalues --   -0.11340  -0.05818  -0.04152  -0.02393  -0.01135
 Alpha virt. eigenvalues --   -0.01025  -0.00889   0.00655   0.01811   0.02980
 Alpha virt. eigenvalues --    0.03816   0.04439   0.04854   0.04978   0.05727

 Mulliken charges:
               1
     1  Mg   0.976367
     2  C   -0.070277
     3  C   -0.071577
     4  C   -0.072477
     5  C   -0.060246
     6  N   -0.417531
     7  C    0.028457
     8  C   -0.031367
     9  C   -0.136935
    10  C    0.087811
    11  C    0.004143
    12  C   -0.006673
    13  C   -0.075129
    14  C    0.237608
    15  O   -0.227153
    16  O   -0.397644
    17  N   -0.474496
    18  C    0.169712
    19  C   -0.206372
    20  C   -0.081106
    21  C    0.137235
    22  C    0.072549
    23  C    0.050745
    24  O   -0.231274
    25  C   -0.032746
    26  N   -0.334844
    27  C    0.049661
    28  C   -0.107413
    29  C   -0.054157
    30  C    0.029704
    31  C    0.009178
    32  C   -0.044212
    33  C   -0.073901
    34  N   -0.463283
    35  C    0.106266
    36  C   -0.163708
    37  C    0.036629
    38  C    0.182460
    39  C    0.056497
    40  C    0.040420
    41  O   -0.227283
    42  C   -0.085617
    43  C    0.327491
    44  O   -0.283067
    45  O   -0.382615
    46  C    0.133611
    47  C    0.212621
    48  C   -0.068283
    49  C   -0.221303
    50  C    0.034699
    51  C   -0.007919
    52  C   -0.055440
    53  C   -0.005184
    54  C   -0.254094
    55  C   -0.009496
    56  C    0.021222
    57  C   -0.060159
    58  C   -0.000606
    59  C   -0.216965
    60  C   -0.017281
    61  C   -0.011911
    62  C   -0.063425
    63  C   -0.006339
    64  C   -0.256340
    65  C   -0.009691
    66  C   -0.006622
    67  H    0.014867
    68  H    0.005579
    69  H    0.001528
    70  H    0.056177
    71  H    0.049007
    72  H    0.060656
    73  H    0.040741
    74  H    0.046005
    75  H    0.057643
    76  H    0.041348
    77  H    0.092992
    78  H    0.073489
    79  H    0.063043
    80  H    0.063310
    81  H    0.053618
    82  H    0.047207
    83  H    0.069416
    84  H    0.059694
    85  H    0.058024
    86  H    0.044597
    87  H    0.053749
    88  H    0.054468
    89  H    0.032381
    90  H    0.051915
    91  H    0.044518
    92  H    0.040670
    93  H    0.044087
    94  H    0.045069
    95  H    0.060259
    96  H    0.047568
    97  H    0.066434
    98  H    0.068669
    99  H    0.058727
   100  H    0.058377
   101  H    0.056261
   102  H    0.035323
   103  H    0.044200
   104  H    0.025976
   105  H    0.073857
   106  H    0.034034
   107  H    0.025921
   108  H    0.035789
   109  H    0.032424
   110  H    0.044873
   111  H    0.039412
   112  H    0.024225
   113  H    0.040837
   114  H    0.040657
   115  H    0.029977
   116  H    0.038805
   117  H    0.036108
   118  H    0.020311
   119  H    0.020243
   120  H    0.033739
   121  H    0.030393
   122  H    0.036039
   123  H    0.020952
   124  H    0.039182
   125  H    0.033662
   126  H    0.031461
   127  H    0.026926
   128  H    0.037300
   129  H    0.026400
   130  H    0.032459
   131  H    0.038938
   132  H    0.024459
   133  H    0.008073
   134  H    0.032510
   135  H    0.033738
   136  H    0.025390
   137  H    0.035986
   138  H    0.047184
   139  H    0.021468
   140  H    0.037752
 Sum of Mulliken charges =  -0.00000

 Dipole moment (field-independent basis, Debye):
    X=              0.5572    Y=              5.5106    Z=              1.0154  Tot=              5.6310
 Quadrupole moment (field-independent basis, Debye-Ang):
   XX=           -380.7820   YY=           -433.7045   ZZ=           -400.9510
   XY=             26.7237   XZ=              0.9191   YZ=             40.6898

 Normal termination of Gaussian 16 at Sat Apr 30 20:39:22 2022.
