 Gaussian 16, Revision A.03,
 Gaussian 16:  ES64L-G16RevA.03 25-Dec-2016

 --------------------------------
 #p wB97XD/Def2SVP td=(nstates=5)
 --------------------------------

 ----------------------------------------------------
 step_901_chromophore_14 TDDFT with wB97XD functional
 ----------------------------------------------------
 Symbolic Z-matrix:
 Charge =  0 Multiplicity = 1

                         Standard orientation:
 ---------------------------------------------------------------------
 Center     Atomic      Atomic             Coordinates (Angstroms)
 Number     Number       Type             X           Y           Z
 ---------------------------------------------------------------------
      1         12           0        4.990670    0.917135   -0.332533
      2          6           0        5.055372   -2.367546    0.336142
      3          6           0        3.924407    0.343118   -3.586492
      4          6           0        3.965930    4.233647   -0.582481
      5          6           0        5.837889    1.663416    3.028552
      6          7           0        4.433750   -0.823572   -1.413969
      7          6           0        4.606037   -2.078337   -1.018233
      8          6           0        4.174752   -3.064008   -2.061371
      9          6           0        4.160913   -2.216084   -3.354167
     10          6           0        4.189376   -0.751909   -2.774238
     11          6           0        5.310393   -2.490765   -4.450457
     12          6           0        2.943088   -4.011854   -1.641660
     13          6           0        1.838625   -3.240905   -0.820436
     14          6           0        0.395901   -3.743310   -0.737400
     15          8           0       -0.060029   -4.671233   -1.331714
     16          8           0       -0.344274   -2.958562    0.180029
     17          7           0        4.173075    2.099981   -1.870951
     18          6           0        3.866780    1.690903   -3.090180
     19          6           0        3.297510    2.796230   -3.881632
     20          6           0        3.440326    3.954846   -3.093787
     21          6           0        3.837794    3.481337   -1.734927
     22          6           0        2.743792    2.626953   -5.322801
     23          6           0        3.256400    5.407418   -3.517792
     24          8           0        2.996381    5.754824   -4.651455
     25          6           0        3.315427    6.609856   -2.604995
     26          7           0        4.718971    2.682027    1.136896
     27          6           0        4.331030    3.917488    0.736466
     28          6           0        4.387827    4.973053    1.918136
     29          6           0        5.177357    4.215769    3.046444
     30          6           0        5.340567    2.798213    2.353058
     31          6           0        5.057124    6.297208    1.507317
     32          6           0        4.537343    4.260188    4.527756
     33          6           0        5.377570    4.799241    5.695608
     34          7           0        5.524172   -0.118054    1.365215
     35          6           0        5.826986    0.259351    2.627510
     36          6           0        6.133314   -0.947207    3.445069
     37          6           0        5.839404   -1.991594    2.540590
     38          6           0        5.453494   -1.445820    1.309672
     39          6           0        6.464046   -0.899631    4.927527
     40          6           0        5.785247   -3.376658    2.391582
     41          8           0        6.011096   -4.239203    3.236093
     42          6           0        5.293773   -3.774896    0.919550
     43          6           0        6.446611   -4.488005    0.324195
     44          8           0        6.358427   -5.624977   -0.216434
     45          8           0        7.594464   -3.680533    0.284924
     46          6           0        8.845198   -4.377875    0.008056
     47          6           0       -1.743719   -3.318981    0.368060
     48          6           0       -2.678903   -2.127038    0.439032
     49          6           0       -3.464092   -1.683708   -0.597364
     50          6           0       -3.272043   -2.067632   -2.046644
     51          6           0       -4.239191   -0.383679   -0.410996
     52          6           0       -5.728827   -0.772162   -0.104378
     53          6           0       -6.372109   -0.031643    1.063697
     54          6           0       -7.888287    0.334666    0.627625
     55          6           0       -8.346484    1.740455    1.159827
     56          6           0       -8.819960   -0.711137    1.191806
     57          6           0       -9.754833   -1.466232    0.101598
     58          6           0      -11.070205   -1.942026    0.850191
     59          6           0      -12.199059   -0.852155    0.915844
     60          6           0      -12.446663   -0.362818    2.305874
     61          6           0      -13.563228   -1.336108    0.206452
     62          6           0      -13.831645   -0.558533   -1.156477
     63          6           0      -15.000048    0.439578   -1.013617
     64          6           0      -14.954878    1.463720    0.174862
     65          6           0      -16.126617    1.282048    1.184045
     66          6           0      -14.807458    2.930867   -0.168010
     67          1           0        3.723579    0.097445   -4.631395
     68          1           0        3.393643    5.140172   -0.795039
     69          1           0        6.090391    1.889472    4.066455
     70          1           0        5.006740   -3.767650   -2.117446
     71          1           0        3.227096   -2.339577   -3.901486
     72          1           0        5.976325   -1.650652   -4.644438
     73          1           0        4.841609   -2.798563   -5.384425
     74          1           0        5.798600   -3.412548   -4.134662
     75          1           0        3.181414   -5.012854   -1.282186
     76          1           0        2.385035   -4.363725   -2.509375
     77          1           0        1.907104   -2.206727   -1.158364
     78          1           0        2.099769   -3.371133    0.229463
     79          1           0        3.563807    2.327319   -5.974947
     80          1           0        2.360702    3.612962   -5.588902
     81          1           0        1.899233    1.939929   -5.287901
     82          1           0        4.188068    6.537384   -1.956081
     83          1           0        2.475750    6.583101   -1.911287
     84          1           0        3.321540    7.572712   -3.117144
     85          1           0        3.340666    4.961616    2.218402
     86          1           0        6.153320    4.702860    3.049300
     87          1           0        5.594752    6.182761    0.567044
     88          1           0        5.589857    6.793310    2.318772
     89          1           0        4.356921    7.066490    1.181396
     90          1           0        4.228507    3.260057    4.832541
     91          1           0        3.677247    4.928814    4.497896
     92          1           0        4.780998    5.486014    6.296242
     93          1           0        6.246477    5.320542    5.292297
     94          1           0        5.644362    4.012617    6.401592
     95          1           0        5.520064   -0.810586    5.465582
     96          1           0        7.067172   -0.079410    5.317116
     97          1           0        6.921388   -1.856380    5.178610
     98          1           0        4.387059   -4.379124    0.885302
     99          1           0        9.636830   -3.628403    0.009720
    100          1           0        8.783288   -4.943930   -0.922064
    101          1           0        9.108550   -5.107042    0.774478
    102          1           0       -1.640403   -4.065780    1.155669
    103          1           0       -2.183027   -3.928341   -0.421473
    104          1           0       -2.911762   -1.792936    1.450662
    105          1           0       -2.565524   -1.544262   -2.689927
    106          1           0       -4.258446   -2.169117   -2.500388
    107          1           0       -2.950753   -3.109474   -2.064279
    108          1           0       -4.174348    0.327348   -1.234726
    109          1           0       -3.868920    0.225104    0.413956
    110          1           0       -5.696416   -1.832957    0.143764
    111          1           0       -6.232747   -0.615244   -1.058373
    112          1           0       -5.906481    0.936741    1.244193
    113          1           0       -6.276621   -0.625520    1.972960
    114          1           0       -7.927281    0.393298   -0.460013
    115          1           0       -8.338709    2.369183    0.268893
    116          1           0       -7.655969    2.122060    1.912322
    117          1           0       -9.371433    1.756722    1.531002
    118          1           0       -9.477093   -0.293958    1.955778
    119          1           0       -8.189922   -1.370047    1.788762
    120          1           0       -9.277612   -2.318772   -0.381793
    121          1           0      -10.083217   -0.823269   -0.714159
    122          1           0      -10.775879   -2.305004    1.835020
    123          1           0      -11.459005   -2.743701    0.221611
    124          1           0      -11.897562    0.087912    0.452631
    125          1           0      -13.451345   -0.554212    2.681771
    126          1           0      -12.240540    0.707754    2.280900
    127          1           0      -11.772756   -0.716603    3.085266
    128          1           0      -14.379151   -1.340631    0.929203
    129          1           0      -13.387965   -2.357851   -0.130638
    130          1           0      -14.122063   -1.316877   -1.883674
    131          1           0      -12.986481    0.023792   -1.520937
    132          1           0      -15.960347   -0.056027   -1.158698
    133          1           0      -14.902831    1.042919   -1.916573
    134          1           0      -14.021892    1.201634    0.675482
    135          1           0      -16.891264    0.568766    0.875000
    136          1           0      -16.615894    2.251158    1.275161
    137          1           0      -15.743251    1.005770    2.166621
    138          1           0      -15.665684    3.424168   -0.624733
    139          1           0      -13.972020    2.971121   -0.865693
    140          1           0      -14.427713    3.411162    0.733253
 ---------------------------------------------------------------------

 SCF Done:  E(RwB97XD) =  -3007.81947995     A.U. after   19 cycles

 Excitation energies and oscillator strengths:

 Excited State   1:      Singlet-A      1.6138 eV  768.30 nm  f=0.3788  <S**2>=0.000
     245 -> 248       -0.18124
     246 -> 247        0.68485
     245 <- 248       -0.11862
 This state for optimization and/or second-order correction.
 Total Energy, E(TD-HF/TD-DFT) =  -3007.76017548
 Copying the excited state density for this state as the 1-particle RhoCI density.

 Excited State   2:      Singlet-A      2.2186 eV  558.85 nm  f=0.0591  <S**2>=0.000
     245 -> 247        0.61099
     246 -> 248        0.34339

 Excited State   3:      Singlet-A      3.3898 eV  365.75 nm  f=0.2074  <S**2>=0.000
     243 -> 247        0.45952
     243 -> 249        0.24233
     243 -> 250        0.15549
     245 -> 247        0.19346
     246 -> 248       -0.37759

 Excited State   4:      Singlet-A      3.4868 eV  355.58 nm  f=0.3140  <S**2>=0.000
     241 -> 247        0.31598
     241 -> 249       -0.13432
     242 -> 249       -0.11075
     243 -> 247        0.29661
     243 -> 249        0.15694
     243 -> 250        0.11582
     245 -> 247       -0.20778
     246 -> 248        0.39042

 Excited State   5:      Singlet-A      3.5160 eV  352.63 nm  f=0.1403  <S**2>=0.000
     240 -> 249       -0.10455
     240 -> 250        0.11004
     241 -> 247        0.38752
     241 -> 248        0.12269
     241 -> 249       -0.24478
     241 -> 250        0.15401
     242 -> 247        0.30577
     245 -> 247        0.14479
     246 -> 248       -0.23566

 The electronic state is 1-A.
 Alpha  occ. eigenvalues --  -46.96187 -19.30453 -19.28645 -19.25050 -19.25020
 Alpha  occ. eigenvalues --  -19.23826 -19.23231 -14.47245 -14.47192 -14.45151
 Alpha  occ. eigenvalues --  -14.44220 -10.43868 -10.43001 -10.39333 -10.38276
 Alpha  occ. eigenvalues --  -10.35793 -10.35758 -10.35679 -10.35444 -10.35345
 Alpha  occ. eigenvalues --  -10.35313 -10.34685 -10.34629 -10.34462 -10.33245
 Alpha  occ. eigenvalues --  -10.33152 -10.33004 -10.32997 -10.32898 -10.32853
 Alpha  occ. eigenvalues --  -10.32649 -10.32645 -10.32584 -10.32123 -10.31943
 Alpha  occ. eigenvalues --  -10.31665 -10.31564 -10.31561 -10.31560 -10.31399
 Alpha  occ. eigenvalues --  -10.31281 -10.30776 -10.30757 -10.30486 -10.30229
 Alpha  occ. eigenvalues --  -10.30142 -10.30033 -10.29930 -10.29601 -10.29523
 Alpha  occ. eigenvalues --  -10.29370 -10.29340 -10.29333 -10.29325 -10.29211
 Alpha  occ. eigenvalues --  -10.29053 -10.29046 -10.28990 -10.28946 -10.28641
 Alpha  occ. eigenvalues --  -10.28534 -10.28239 -10.28174 -10.28122 -10.27835
 Alpha  occ. eigenvalues --  -10.27618  -3.22104  -1.95676  -1.95239  -1.95067
 Alpha  occ. eigenvalues --   -1.17710  -1.17005  -1.13097  -1.11271  -1.10020
 Alpha  occ. eigenvalues --   -1.08551  -1.07261  -1.06400  -1.05732  -1.04924
 Alpha  occ. eigenvalues --   -0.94825  -0.91998  -0.91039  -0.90892  -0.90575
 Alpha  occ. eigenvalues --   -0.90562  -0.89963  -0.89325  -0.88708  -0.88439
 Alpha  occ. eigenvalues --   -0.88229  -0.87107  -0.86107  -0.85815  -0.85201
 Alpha  occ. eigenvalues --   -0.84111  -0.83947  -0.83050  -0.82528  -0.82098
 Alpha  occ. eigenvalues --   -0.81512  -0.80286  -0.79762  -0.79401  -0.78438
 Alpha  occ. eigenvalues --   -0.77600  -0.77344  -0.76922  -0.76535  -0.75676
 Alpha  occ. eigenvalues --   -0.75212  -0.74809  -0.73841  -0.72335  -0.71278
 Alpha  occ. eigenvalues --   -0.71133  -0.69985  -0.69662  -0.68187  -0.67854
 Alpha  occ. eigenvalues --   -0.67664  -0.67479  -0.67360  -0.66379  -0.65620
 Alpha  occ. eigenvalues --   -0.65141  -0.64775  -0.64237  -0.63675  -0.62082
 Alpha  occ. eigenvalues --   -0.61716  -0.61597  -0.60908  -0.60535  -0.59916
 Alpha  occ. eigenvalues --   -0.59813  -0.58911  -0.58418  -0.57910  -0.57580
 Alpha  occ. eigenvalues --   -0.57322  -0.56649  -0.56170  -0.55909  -0.55386
 Alpha  occ. eigenvalues --   -0.55195  -0.54985  -0.54862  -0.54734  -0.54574
 Alpha  occ. eigenvalues --   -0.54438  -0.54205  -0.53868  -0.53625  -0.53519
 Alpha  occ. eigenvalues --   -0.53248  -0.53173  -0.53049  -0.52661  -0.52543
 Alpha  occ. eigenvalues --   -0.52290  -0.52154  -0.51992  -0.51612  -0.51530
 Alpha  occ. eigenvalues --   -0.51318  -0.51197  -0.51097  -0.50969  -0.50789
 Alpha  occ. eigenvalues --   -0.50529  -0.50443  -0.50131  -0.49834  -0.49540
 Alpha  occ. eigenvalues --   -0.49398  -0.49172  -0.49094  -0.48908  -0.48656
 Alpha  occ. eigenvalues --   -0.48578  -0.48277  -0.48120  -0.48052  -0.47969
 Alpha  occ. eigenvalues --   -0.47684  -0.47583  -0.47360  -0.47250  -0.46800
 Alpha  occ. eigenvalues --   -0.46648  -0.46489  -0.46098  -0.46035  -0.45978
 Alpha  occ. eigenvalues --   -0.45930  -0.45716  -0.45649  -0.45265  -0.44719
 Alpha  occ. eigenvalues --   -0.44574  -0.44521  -0.44378  -0.44294  -0.44128
 Alpha  occ. eigenvalues --   -0.43864  -0.43682  -0.43344  -0.43061  -0.42858
 Alpha  occ. eigenvalues --   -0.42735  -0.42689  -0.42540  -0.42276  -0.41652
 Alpha  occ. eigenvalues --   -0.41444  -0.41381  -0.41350  -0.41077  -0.40890
 Alpha  occ. eigenvalues --   -0.40330  -0.40198  -0.39863  -0.39619  -0.39433
 Alpha  occ. eigenvalues --   -0.39074  -0.38744  -0.38544  -0.38299  -0.38237
 Alpha  occ. eigenvalues --   -0.37501  -0.37077  -0.36957  -0.36602  -0.36434
 Alpha  occ. eigenvalues --   -0.35976  -0.35501  -0.35465  -0.33787  -0.33029
 Alpha  occ. eigenvalues --   -0.32633  -0.32423  -0.32157  -0.31989  -0.26592
 Alpha  occ. eigenvalues --   -0.22892
 Alpha virt. eigenvalues --   -0.07175  -0.00477   0.02142   0.04104   0.04857
 Alpha virt. eigenvalues --    0.05644   0.05925   0.07355   0.08748   0.09556
 Alpha virt. eigenvalues --    0.10282   0.11289   0.11565   0.11687   0.12446

 Mulliken charges:
               1
     1  Mg   0.968958
     2  C   -0.078920
     3  C   -0.097663
     4  C   -0.077420
     5  C   -0.066871
     6  N   -0.384748
     7  C   -0.004997
     8  C   -0.002998
     9  C   -0.116145
    10  C    0.080205
    11  C    0.014961
    12  C   -0.002440
    13  C   -0.049387
    14  C    0.228760
    15  O   -0.224574
    16  O   -0.397427
    17  N   -0.442225
    18  C    0.163466
    19  C   -0.202296
    20  C   -0.069385
    21  C    0.129920
    22  C    0.088845
    23  C    0.041022
    24  O   -0.226049
    25  C   -0.011214
    26  N   -0.304042
    27  C    0.035387
    28  C   -0.081596
    29  C   -0.030994
    30  C    0.012999
    31  C    0.022903
    32  C   -0.029679
    33  C   -0.057537
    34  N   -0.423306
    35  C    0.093503
    36  C   -0.163964
    37  C    0.043372
    38  C    0.163796
    39  C    0.066627
    40  C    0.022227
    41  O   -0.219297
    42  C   -0.042791
    43  C    0.304119
    44  O   -0.277239
    45  O   -0.383452
    46  C    0.147631
    47  C    0.228319
    48  C   -0.081540
    49  C   -0.199378
    50  C    0.047769
    51  C    0.003324
    52  C   -0.038743
    53  C    0.010850
    54  C   -0.225487
    55  C    0.004920
    56  C    0.037744
    57  C   -0.041554
    58  C    0.019471
    59  C   -0.191738
    60  C   -0.006322
    61  C    0.006374
    62  C   -0.041502
    63  C    0.001471
    64  C   -0.214782
    65  C    0.001565
    66  C    0.008161
    67  H    0.011386
    68  H   -0.008467
    69  H   -0.006663
    70  H    0.040604
    71  H    0.039759
    72  H    0.055475
    73  H    0.035410
    74  H    0.040369
    75  H    0.054077
    76  H    0.033727
    77  H    0.081855
    78  H    0.063170
    79  H    0.058939
    80  H    0.058703
    81  H    0.049400
    82  H    0.037267
    83  H    0.063979
    84  H    0.059570
    85  H    0.047639
    86  H    0.031226
    87  H    0.045731
    88  H    0.049501
    89  H    0.026087
    90  H    0.043991
    91  H    0.036354
    92  H    0.035154
    93  H    0.037091
    94  H    0.039467
    95  H    0.054608
    96  H    0.042651
    97  H    0.062662
    98  H    0.061546
    99  H    0.055680
   100  H    0.054436
   101  H    0.052048
   102  H    0.032571
   103  H    0.035370
   104  H    0.023203
   105  H    0.069953
   106  H    0.027586
   107  H    0.019110
   108  H    0.030267
   109  H    0.024025
   110  H    0.033824
   111  H    0.029923
   112  H    0.013734
   113  H    0.033489
   114  H    0.027266
   115  H    0.024219
   116  H    0.032874
   117  H    0.028950
   118  H    0.003103
   119  H    0.010754
   120  H    0.027006
   121  H    0.019647
   122  H    0.026441
   123  H    0.011723
   124  H    0.022313
   125  H    0.026767
   126  H    0.026337
   127  H    0.021632
   128  H    0.026560
   129  H    0.017077
   130  H    0.026028
   131  H    0.029448
   132  H    0.017142
   133  H   -0.001036
   134  H    0.004165
   135  H    0.028232
   136  H    0.019137
   137  H    0.030072
   138  H    0.042039
   139  H    0.013884
   140  H    0.031766
 Sum of Mulliken charges =  -0.00000

 Dipole moment (field-independent basis, Debye):
    X=              0.5291    Y=              5.8595    Z=              0.7331  Tot=              5.9288
 Quadrupole moment (field-independent basis, Debye-Ang):
   XX=           -380.4402   YY=           -432.6299   ZZ=           -400.6089
   XY=             27.7636   XZ=             -0.3424   YZ=             39.5762

 Normal termination of Gaussian 16 at Sat Apr 30 21:15:53 2022.
