 Gaussian 16, Revision A.03,
 Gaussian 16:  ES64L-G16RevA.03 25-Dec-2016

 --------------------
 #p ZINDO=(nstates=5)
 --------------------

 -----------------------------
 step_901_chromophore_14 ZINDO
 -----------------------------
 Symbolic Z-matrix:
 Charge =  0 Multiplicity = 1

                         Standard orientation:
 ---------------------------------------------------------------------
 Center     Atomic      Atomic             Coordinates (Angstroms)
 Number     Number       Type             X           Y           Z
 ---------------------------------------------------------------------
      1         12           0        4.990670    0.917135   -0.332533
      2          6           0        5.055372   -2.367546    0.336142
      3          6           0        3.924407    0.343118   -3.586492
      4          6           0        3.965930    4.233647   -0.582481
      5          6           0        5.837889    1.663416    3.028552
      6          7           0        4.433750   -0.823572   -1.413969
      7          6           0        4.606037   -2.078337   -1.018233
      8          6           0        4.174752   -3.064008   -2.061371
      9          6           0        4.160913   -2.216084   -3.354167
     10          6           0        4.189376   -0.751909   -2.774238
     11          6           0        5.310393   -2.490765   -4.450457
     12          6           0        2.943088   -4.011854   -1.641660
     13          6           0        1.838625   -3.240905   -0.820436
     14          6           0        0.395901   -3.743310   -0.737400
     15          8           0       -0.060029   -4.671233   -1.331714
     16          8           0       -0.344274   -2.958562    0.180029
     17          7           0        4.173075    2.099981   -1.870951
     18          6           0        3.866780    1.690903   -3.090180
     19          6           0        3.297510    2.796230   -3.881632
     20          6           0        3.440326    3.954846   -3.093787
     21          6           0        3.837794    3.481337   -1.734927
     22          6           0        2.743792    2.626953   -5.322801
     23          6           0        3.256400    5.407418   -3.517792
     24          8           0        2.996381    5.754824   -4.651455
     25          6           0        3.315427    6.609856   -2.604995
     26          7           0        4.718971    2.682027    1.136896
     27          6           0        4.331030    3.917488    0.736466
     28          6           0        4.387827    4.973053    1.918136
     29          6           0        5.177357    4.215769    3.046444
     30          6           0        5.340567    2.798213    2.353058
     31          6           0        5.057124    6.297208    1.507317
     32          6           0        4.537343    4.260188    4.527756
     33          6           0        5.377570    4.799241    5.695608
     34          7           0        5.524172   -0.118054    1.365215
     35          6           0        5.826986    0.259351    2.627510
     36          6           0        6.133314   -0.947207    3.445069
     37          6           0        5.839404   -1.991594    2.540590
     38          6           0        5.453494   -1.445820    1.309672
     39          6           0        6.464046   -0.899631    4.927527
     40          6           0        5.785247   -3.376658    2.391582
     41          8           0        6.011096   -4.239203    3.236093
     42          6           0        5.293773   -3.774896    0.919550
     43          6           0        6.446611   -4.488005    0.324195
     44          8           0        6.358427   -5.624977   -0.216434
     45          8           0        7.594464   -3.680533    0.284924
     46          6           0        8.845198   -4.377875    0.008056
     47          6           0       -1.743719   -3.318981    0.368060
     48          6           0       -2.678903   -2.127038    0.439032
     49          6           0       -3.464092   -1.683708   -0.597364
     50          6           0       -3.272043   -2.067632   -2.046644
     51          6           0       -4.239191   -0.383679   -0.410996
     52          6           0       -5.728827   -0.772162   -0.104378
     53          6           0       -6.372109   -0.031643    1.063697
     54          6           0       -7.888287    0.334666    0.627625
     55          6           0       -8.346484    1.740455    1.159827
     56          6           0       -8.819960   -0.711137    1.191806
     57          6           0       -9.754833   -1.466232    0.101598
     58          6           0      -11.070205   -1.942026    0.850191
     59          6           0      -12.199059   -0.852155    0.915844
     60          6           0      -12.446663   -0.362818    2.305874
     61          6           0      -13.563228   -1.336108    0.206452
     62          6           0      -13.831645   -0.558533   -1.156477
     63          6           0      -15.000048    0.439578   -1.013617
     64          6           0      -14.954878    1.463720    0.174862
     65          6           0      -16.126617    1.282048    1.184045
     66          6           0      -14.807458    2.930867   -0.168010
     67          1           0        3.723579    0.097445   -4.631395
     68          1           0        3.393643    5.140172   -0.795039
     69          1           0        6.090391    1.889472    4.066455
     70          1           0        5.006740   -3.767650   -2.117446
     71          1           0        3.227096   -2.339577   -3.901486
     72          1           0        5.976325   -1.650652   -4.644438
     73          1           0        4.841609   -2.798563   -5.384425
     74          1           0        5.798600   -3.412548   -4.134662
     75          1           0        3.181414   -5.012854   -1.282186
     76          1           0        2.385035   -4.363725   -2.509375
     77          1           0        1.907104   -2.206727   -1.158364
     78          1           0        2.099769   -3.371133    0.229463
     79          1           0        3.563807    2.327319   -5.974947
     80          1           0        2.360702    3.612962   -5.588902
     81          1           0        1.899233    1.939929   -5.287901
     82          1           0        4.188068    6.537384   -1.956081
     83          1           0        2.475750    6.583101   -1.911287
     84          1           0        3.321540    7.572712   -3.117144
     85          1           0        3.340666    4.961616    2.218402
     86          1           0        6.153320    4.702860    3.049300
     87          1           0        5.594752    6.182761    0.567044
     88          1           0        5.589857    6.793310    2.318772
     89          1           0        4.356921    7.066490    1.181396
     90          1           0        4.228507    3.260057    4.832541
     91          1           0        3.677247    4.928814    4.497896
     92          1           0        4.780998    5.486014    6.296242
     93          1           0        6.246477    5.320542    5.292297
     94          1           0        5.644362    4.012617    6.401592
     95          1           0        5.520064   -0.810586    5.465582
     96          1           0        7.067172   -0.079410    5.317116
     97          1           0        6.921388   -1.856380    5.178610
     98          1           0        4.387059   -4.379124    0.885302
     99          1           0        9.636830   -3.628403    0.009720
    100          1           0        8.783288   -4.943930   -0.922064
    101          1           0        9.108550   -5.107042    0.774478
    102          1           0       -1.640403   -4.065780    1.155669
    103          1           0       -2.183027   -3.928341   -0.421473
    104          1           0       -2.911762   -1.792936    1.450662
    105          1           0       -2.565524   -1.544262   -2.689927
    106          1           0       -4.258446   -2.169117   -2.500388
    107          1           0       -2.950753   -3.109474   -2.064279
    108          1           0       -4.174348    0.327348   -1.234726
    109          1           0       -3.868920    0.225104    0.413956
    110          1           0       -5.696416   -1.832957    0.143764
    111          1           0       -6.232747   -0.615244   -1.058373
    112          1           0       -5.906481    0.936741    1.244193
    113          1           0       -6.276621   -0.625520    1.972960
    114          1           0       -7.927281    0.393298   -0.460013
    115          1           0       -8.338709    2.369183    0.268893
    116          1           0       -7.655969    2.122060    1.912322
    117          1           0       -9.371433    1.756722    1.531002
    118          1           0       -9.477093   -0.293958    1.955778
    119          1           0       -8.189922   -1.370047    1.788762
    120          1           0       -9.277612   -2.318772   -0.381793
    121          1           0      -10.083217   -0.823269   -0.714159
    122          1           0      -10.775879   -2.305004    1.835020
    123          1           0      -11.459005   -2.743701    0.221611
    124          1           0      -11.897562    0.087912    0.452631
    125          1           0      -13.451345   -0.554212    2.681771
    126          1           0      -12.240540    0.707754    2.280900
    127          1           0      -11.772756   -0.716603    3.085266
    128          1           0      -14.379151   -1.340631    0.929203
    129          1           0      -13.387965   -2.357851   -0.130638
    130          1           0      -14.122063   -1.316877   -1.883674
    131          1           0      -12.986481    0.023792   -1.520937
    132          1           0      -15.960347   -0.056027   -1.158698
    133          1           0      -14.902831    1.042919   -1.916573
    134          1           0      -14.021892    1.201634    0.675482
    135          1           0      -16.891264    0.568766    0.875000
    136          1           0      -16.615894    2.251158    1.275161
    137          1           0      -15.743251    1.005770    2.166621
    138          1           0      -15.665684    3.424168   -0.624733
    139          1           0      -13.972020    2.971121   -0.865693
    140          1           0      -14.427713    3.411162    0.733253
 ---------------------------------------------------------------------

 SCF Done:  E(RZINDO/S) =  -473.847731494     A.U. after   20 cycles

 Excitation energies and oscillator strengths:

 Excited State   1:      Singlet-A      1.2499 eV  991.95 nm  f=0.5937  <S**2>=0.000
     175 ->178         0.18083
     176 ->177         0.66498
 This state for optimization and/or second-order correction.
 Total Energy, E(CIS/TDA) =  -473.801798275
 Copying the excited state density for this state as the 1-particle RhoCI density.

 Excited State   2:      Singlet-A      1.9008 eV  652.28 nm  f=0.0118  <S**2>=0.000
     175 ->177         0.50864
     176 ->178        -0.46453

 Excited State   3:      Singlet-A      2.8087 eV  441.44 nm  f=0.0016  <S**2>=0.000
     168 ->177         0.25360
     168 ->178        -0.15712
     168 ->179        -0.32945
     168 ->180        -0.22549
     168 ->181         0.19467
     168 ->186        -0.21911
     168 ->187         0.10297
     168 ->194         0.12606
     169 ->177         0.13740
     169 ->179        -0.16071
     169 ->180        -0.10973
     169 ->186        -0.10090

 Excited State   4:      Singlet-A      2.9119 eV  425.78 nm  f=0.1262  <S**2>=0.000
     170 ->177         0.19386
     170 ->179         0.22734
     170 ->180        -0.14271
     170 ->181         0.12027
     170 ->186         0.12349
     170 ->187         0.10326
     171 ->177         0.25189
     171 ->179         0.24301
     171 ->180        -0.14987
     171 ->181         0.13057
     171 ->186         0.13525
     171 ->187         0.10368
     175 ->177         0.15692
     176 ->178         0.18698

 Excited State   5:      Singlet-A      2.9664 eV  417.97 nm  f=0.9327  <S**2>=0.000
     170 ->177        -0.13612
     171 ->179        -0.10109
     175 ->177         0.39152
     176 ->178         0.45062
     176 ->179         0.10371
     176 ->180         0.16178

 The electronic state is 1-A.
 Alpha  occ. eigenvalues --   -1.85644  -1.81235  -1.78480  -1.71776  -1.70901
 Alpha  occ. eigenvalues --   -1.69687  -1.64252  -1.61403  -1.60500  -1.57264
 Alpha  occ. eigenvalues --   -1.54055  -1.50485  -1.47527  -1.46281  -1.45796
 Alpha  occ. eigenvalues --   -1.44672  -1.41943  -1.40241  -1.38136  -1.36702
 Alpha  occ. eigenvalues --   -1.35725  -1.33240  -1.32525  -1.31629  -1.29182
 Alpha  occ. eigenvalues --   -1.28225  -1.27044  -1.21822  -1.20391  -1.18169
 Alpha  occ. eigenvalues --   -1.16082  -1.15110  -1.14688  -1.14070  -1.13377
 Alpha  occ. eigenvalues --   -1.12844  -1.10652  -1.08813  -1.05611  -1.04207
 Alpha  occ. eigenvalues --   -1.03256  -1.01468  -0.98956  -0.97168  -0.96189
 Alpha  occ. eigenvalues --   -0.95505  -0.95255  -0.94099  -0.93348  -0.91759
 Alpha  occ. eigenvalues --   -0.90960  -0.90657  -0.90204  -0.88490  -0.86114
 Alpha  occ. eigenvalues --   -0.85390  -0.84186  -0.83765  -0.82609  -0.80481
 Alpha  occ. eigenvalues --   -0.80402  -0.79162  -0.78219  -0.76842  -0.76683
 Alpha  occ. eigenvalues --   -0.76156  -0.75079  -0.74300  -0.74142  -0.73153
 Alpha  occ. eigenvalues --   -0.72425  -0.71978  -0.71659  -0.71348  -0.70523
 Alpha  occ. eigenvalues --   -0.70120  -0.69472  -0.68989  -0.68419  -0.67944
 Alpha  occ. eigenvalues --   -0.67486  -0.66457  -0.66413  -0.65608  -0.65398
 Alpha  occ. eigenvalues --   -0.64922  -0.64773  -0.64613  -0.64149  -0.63405
 Alpha  occ. eigenvalues --   -0.63154  -0.63090  -0.62576  -0.62190  -0.62007
 Alpha  occ. eigenvalues --   -0.61863  -0.61614  -0.61479  -0.60923  -0.60711
 Alpha  occ. eigenvalues --   -0.60083  -0.59826  -0.58955  -0.58954  -0.58659
 Alpha  occ. eigenvalues --   -0.58122  -0.57582  -0.57488  -0.57011  -0.56912
 Alpha  occ. eigenvalues --   -0.56807  -0.56370  -0.56257  -0.55925  -0.55387
 Alpha  occ. eigenvalues --   -0.55083  -0.54102  -0.53968  -0.53512  -0.53279
 Alpha  occ. eigenvalues --   -0.53090  -0.52825  -0.52696  -0.52076  -0.51398
 Alpha  occ. eigenvalues --   -0.51327  -0.50979  -0.50793  -0.50368  -0.50316
 Alpha  occ. eigenvalues --   -0.50053  -0.49915  -0.49592  -0.49239  -0.48865
 Alpha  occ. eigenvalues --   -0.48610  -0.48285  -0.48239  -0.47996  -0.47825
 Alpha  occ. eigenvalues --   -0.47786  -0.47201  -0.47153  -0.46952  -0.46277
 Alpha  occ. eigenvalues --   -0.46228  -0.46133  -0.46045  -0.46025  -0.45459
 Alpha  occ. eigenvalues --   -0.45418  -0.45313  -0.44729  -0.44557  -0.44415
 Alpha  occ. eigenvalues --   -0.44273  -0.43757  -0.42963  -0.42696  -0.42450
 Alpha  occ. eigenvalues --   -0.41813  -0.41548  -0.41460  -0.39495  -0.38905
 Alpha  occ. eigenvalues --   -0.38569  -0.37703  -0.35810  -0.35188  -0.34303
 Alpha  occ. eigenvalues --   -0.34065  -0.33295  -0.32547  -0.32371  -0.27333
 Alpha  occ. eigenvalues --   -0.22022
 Alpha virt. eigenvalues --   -0.08790  -0.02938  -0.01034   0.00681   0.00996
 Alpha virt. eigenvalues --    0.02107   0.02238   0.02642   0.03457   0.04271
 Alpha virt. eigenvalues --    0.05670   0.06028   0.06502   0.06978   0.07267

 Mulliken charges:
               1
     1  Mg   0.431579
     2  C   -0.073610
     3  C   -0.095334
     4  C   -0.080790
     5  C   -0.063669
     6  N   -0.282948
     7  C    0.134197
     8  C    0.013150
     9  C   -0.000614
    10  C    0.135179
    11  C   -0.054146
    12  C   -0.033211
    13  C    0.001392
    14  C    0.466899
    15  O   -0.495994
    16  O   -0.286997
    17  N   -0.317105
    18  C    0.150912
    19  C    0.031736
    20  C   -0.034296
    21  C    0.113809
    22  C   -0.039468
    23  C    0.326334
    24  O   -0.513816
    25  C   -0.021375
    26  N   -0.268081
    27  C    0.144531
    28  C    0.005284
    29  C   -0.004293
    30  C    0.083629
    31  C   -0.050785
    32  C   -0.030905
    33  C   -0.056448
    34  N   -0.302129
    35  C    0.071653
    36  C    0.020380
    37  C   -0.045775
    38  C    0.115653
    39  C   -0.034068
    40  C    0.327843
    41  O   -0.540671
    42  C    0.053289
    43  C    0.487846
    44  O   -0.535422
    45  O   -0.270472
    46  C    0.078117
    47  C    0.095970
    48  C   -0.082325
    49  C    0.010467
    50  C   -0.046185
    51  C   -0.028945
    52  C   -0.033535
    53  C   -0.035610
    54  C   -0.020654
    55  C   -0.064083
    56  C   -0.037495
    57  C   -0.046184
    58  C   -0.039511
    59  C   -0.014815
    60  C   -0.056301
    61  C   -0.044924
    62  C   -0.034599
    63  C   -0.038411
    64  C   -0.011275
    65  C   -0.059811
    66  C   -0.050090
    67  H    0.038792
    68  H    0.029540
    69  H    0.022534
    70  H    0.029735
    71  H    0.028330
    72  H    0.035519
    73  H    0.018984
    74  H    0.027669
    75  H    0.048691
    76  H    0.021219
    77  H    0.050239
    78  H    0.041584
    79  H    0.040967
    80  H    0.040238
    81  H    0.034622
    82  H    0.023729
    83  H    0.035095
    84  H    0.043279
    85  H    0.041952
    86  H    0.030863
    87  H    0.029573
    88  H    0.029037
    89  H    0.009069
    90  H    0.027931
    91  H    0.019284
    92  H    0.017325
    93  H    0.022653
    94  H    0.022467
    95  H    0.030488
    96  H    0.030004
    97  H    0.033085
    98  H    0.062384
    99  H    0.030714
   100  H    0.046114
   101  H    0.043244
   102  H    0.040599
   103  H    0.043630
   104  H    0.030212
   105  H    0.043605
   106  H    0.020766
   107  H    0.016204
   108  H    0.021392
   109  H    0.015366
   110  H    0.022789
   111  H    0.023776
   112  H    0.015457
   113  H    0.030464
   114  H    0.027768
   115  H    0.010917
   116  H    0.023546
   117  H    0.022235
   118  H    0.019404
   119  H    0.018937
   120  H    0.021412
   121  H    0.022397
   122  H    0.027142
   123  H    0.013970
   124  H    0.024033
   125  H    0.018815
   126  H    0.010622
   127  H    0.013186
   128  H    0.033150
   129  H    0.012907
   130  H    0.016801
   131  H    0.028528
   132  H    0.021919
   133  H    0.000474
   134  H    0.019510
   135  H    0.021313
   136  H    0.015011
   137  H    0.018478
   138  H    0.029481
   139  H    0.005745
   140  H    0.018407
 Sum of Mulliken charges =  -0.00000

 Dipole moment (field-independent basis, Debye):
    X=             -0.5234    Y=              8.9525    Z=             -0.3421  Tot=              8.9743
 N-N= 4.314538355480D+03 E-N= 0.000000000000D+00  KE=-9.302349799450D+03
 Leave Link  601 at Sat Apr 30 21:36:04 2022, MaxMem=  6710886400 cpu:               0.8 elap:               0.0
 (Enter /sw/apps/gaussian-16.0/g16/l9999.exe)
 1\1\GINC-BP1-COMPUTE198\SP\RZINDO CIS\STO-3G\C55H74Mg1N4O6\OF15641\30-
 Apr-2022\0\\#p ZINDO=(nstates=5)\\step_901_chromophore_14 ZINDO\\0,1\M
 g,0,46.226,44.233,43.514\C,0,42.972,43.426,43.54\C,0,47.132,40.997,42.
 641\C,0,49.353,45.38,42.505\C,0,45.435,47.628,44.162\N,0,45.133,42.48,
 43.022\C,0,43.826,42.306,43.171\C,0,43.395,40.919,42.802\C,0,44.716,40
 .118,42.864\C,0,45.788,41.272,42.858\C,0,44.91,39.073,44.076\C,0,42.39
 ,40.824,41.548\C,0,42.761,41.837,40.397\C,0,42.308,41.619,38.952\O,0,4

 Normal termination of Gaussian 16 at Sat Apr 30 21:36:04 2022.
