 Gaussian 16, Revision A.03,
 Gaussian 16:  ES64L-G16RevA.03 25-Dec-2016

 ------------------------------
 #p blyp/Def2SVP td=(nstates=5)
 ------------------------------

 --------------------------------------------------
 step_1651_chromophore_4 TDDFT with blyp functional
 --------------------------------------------------
 Symbolic Z-matrix:
 Charge =  0 Multiplicity = 1

                         Standard orientation:
 ---------------------------------------------------------------------
 Center     Atomic      Atomic             Coordinates (Angstroms)
 Number     Number       Type             X           Y           Z
 ---------------------------------------------------------------------
      1         12           0        5.897647    0.729348    0.356679
      2          6           0        3.930563   -2.164122    0.450055
      3          6           0        2.967308    2.393799   -0.692096
      4          6           0        7.759377    3.273915   -0.048028
      5          6           0        8.719233   -1.428823    0.272351
      6          7           0        3.768382    0.171886   -0.223815
      7          6           0        3.154423   -1.042778    0.066821
      8          6           0        1.582822   -0.930130   -0.242385
      9          6           0        1.438000    0.431672   -0.961571
     10          6           0        2.796157    1.051599   -0.628363
     11          6           0        1.299046    0.412715   -2.534005
     12          6           0        0.789543   -1.213118    1.096150
     13          6           0       -0.484892   -2.044311    1.086285
     14          6           0       -1.175847   -2.287215   -0.208285
     15          8           0       -0.875349   -3.143672   -1.003444
     16          8           0       -2.194652   -1.413929   -0.323373
     17          7           0        5.392395    2.529055   -0.196145
     18          6           0        4.134805    3.127947   -0.427847
     19          6           0        4.384908    4.570654   -0.564973
     20          6           0        5.808810    4.852211   -0.274714
     21          6           0        6.391094    3.501653   -0.159887
     22          6           0        3.204969    5.606374   -0.830106
     23          6           0        6.456980    6.170343   -0.098068
     24          8           0        7.658326    6.301967    0.117309
     25          6           0        5.677219    7.421795   -0.152512
     26          7           0        7.922207    0.927225    0.121460
     27          6           0        8.506977    2.087702   -0.017784
     28          6           0       10.043996    2.001662   -0.358922
     29          6           0       10.269862    0.516496   -0.111338
     30          6           0        8.923987   -0.058695    0.162144
     31          6           0       10.414615    2.590232   -1.776197
     32          6           0       11.395025    0.122645    0.841515
     33          6           0       10.984174   -0.054655    2.369568
     34          7           0        6.327151   -1.309227    0.541001
     35          6           0        7.502736   -2.064197    0.446696
     36          6           0        7.286752   -3.458131    0.768566
     37          6           0        5.877144   -3.480396    0.858823
     38          6           0        5.313090   -2.185889    0.643125
     39          6           0        8.223108   -4.604428    0.745244
     40          6           0        4.825463   -4.425544    1.019951
     41          8           0        4.870955   -5.663477    1.113894
     42          6           0        3.460877   -3.547846    0.806351
     43          6           0        2.584504   -4.123448   -0.209448
     44          8           0        2.796835   -4.020344   -1.381216
     45          8           0        1.626313   -4.888759    0.449946
     46          6           0        0.941527   -5.799627   -0.494190
     47          6           0       -3.115417   -1.552411   -1.421617
     48          6           0       -4.479974   -1.222309   -1.018409
     49          6           0       -5.459816   -2.137803   -0.880493
     50          6           0       -5.370428   -3.630666   -1.062960
     51          6           0       -6.844623   -1.750390   -0.359257
     52          6           0       -7.713297   -0.714365   -1.038212
     53          6           0       -8.010806    0.426076    0.046653
     54          6           0       -9.575527    0.765474    0.349018
     55          6           0      -10.030006    1.877799   -0.501620
     56          6           0       -9.839582    0.993988    1.865252
     57          6           0      -11.264439    0.742282    2.248483
     58          6           0      -12.100917    2.004890    2.631398
     59          6           0      -13.596799    1.970936    2.229494
     60          6           0      -14.337306    2.712510    3.349195
     61          6           0      -13.910592    2.477984    0.818171
     62          6           0      -14.756837    1.615235   -0.092670
     63          6           0      -14.044985    1.199754   -1.403718
     64          6           0      -13.576482   -0.333431   -1.432498
     65          6           0      -12.573727   -0.526634   -2.595284
     66          6           0      -14.808262   -1.204980   -1.628010
     67          1           0        2.042600    2.947605   -0.864736
     68          1           0        8.346818    4.194340   -0.072918
     69          1           0        9.676120   -1.945024    0.171946
     70          1           0        1.302667   -1.706405   -0.953961
     71          1           0        0.767708    1.121822   -0.449197
     72          1           0        1.258316   -0.609867   -2.908906
     73          1           0        2.193794    0.849622   -2.979036
     74          1           0        0.575403    1.118383   -2.941149
     75          1           0        0.427333   -0.257649    1.476097
     76          1           0        1.303668   -1.676410    1.937620
     77          1           0       -1.252858   -1.547234    1.679211
     78          1           0       -0.217424   -3.041867    1.436320
     79          1           0        3.415209    6.353208   -1.595682
     80          1           0        2.996398    6.074742    0.131798
     81          1           0        2.294362    5.060154   -1.073828
     82          1           0        4.844029    7.255310    0.529731
     83          1           0        5.363092    7.491190   -1.194125
     84          1           0        6.322783    8.281621    0.024146
     85          1           0       10.685190    2.595772    0.293017
     86          1           0       10.546101    0.119773   -1.088372
     87          1           0       11.051326    1.851041   -2.260945
     88          1           0       10.964834    3.519134   -1.629012
     89          1           0        9.532892    2.769680   -2.392614
     90          1           0       12.194246    0.861286    0.895131
     91          1           0       11.801934   -0.843279    0.540926
     92          1           0       11.042240   -1.059524    2.786763
     93          1           0        9.909572    0.121796    2.416364
     94          1           0       11.476290    0.629380    3.060883
     95          1           0        9.171667   -4.226389    0.362983
     96          1           0        7.805340   -5.448435    0.196022
     97          1           0        8.367048   -5.115252    1.697466
     98          1           0        2.906266   -3.352903    1.724392
     99          1           0       -0.007387   -5.313721   -0.723331
    100          1           0        0.788828   -6.614661    0.213458
    101          1           0        1.517650   -6.065556   -1.380119
    102          1           0       -2.980103   -2.460575   -2.010118
    103          1           0       -2.872042   -0.829881   -2.201208
    104          1           0       -4.750087   -0.194974   -0.774886
    105          1           0       -5.597113   -4.169345   -0.142891
    106          1           0       -4.392632   -3.954226   -1.420095
    107          1           0       -6.203627   -4.040866   -1.633039
    108          1           0       -6.656648   -1.531645    0.691572
    109          1           0       -7.553403   -2.578109   -0.391136
    110          1           0       -8.700005   -1.093914   -1.303719
    111          1           0       -7.301844   -0.252178   -1.935571
    112          1           0       -7.456677    1.265425   -0.374198
    113          1           0       -7.632704    0.139142    1.027957
    114          1           0       -9.975380   -0.225409    0.131530
    115          1           0      -10.519407    1.368109   -1.331089
    116          1           0       -9.215087    2.483887   -0.896548
    117          1           0      -10.735164    2.525578    0.020136
    118          1           0       -9.562460    2.030888    2.054767
    119          1           0       -9.245761    0.314107    2.476012
    120          1           0      -11.347903    0.112005    3.133856
    121          1           0      -11.780075    0.303566    1.393808
    122          1           0      -11.626147    2.946009    2.354254
    123          1           0      -11.950695    2.012228    3.710911
    124          1           0      -13.716665    0.899943    2.390912
    125          1           0      -14.954798    3.500454    2.916916
    126          1           0      -13.700442    3.244444    4.055552
    127          1           0      -14.888533    2.099979    4.063358
    128          1           0      -13.006298    2.786209    0.293135
    129          1           0      -14.492472    3.380825    1.001136
    130          1           0      -15.688793    2.144474   -0.290006
    131          1           0      -15.079595    0.728334    0.453345
    132          1           0      -13.128863    1.729791   -1.664101
    133          1           0      -14.678106    1.384057   -2.272051
    134          1           0      -13.077961   -0.566576   -0.491093
    135          1           0      -11.589232   -0.769564   -2.195840
    136          1           0      -12.490269    0.419676   -3.130240
    137          1           0      -13.056382   -1.279020   -3.217980
    138          1           0      -15.349522   -0.945386   -2.539086
    139          1           0      -15.518319   -1.027659   -0.820241
    140          1           0      -14.516148   -2.254528   -1.638005
 ---------------------------------------------------------------------

 SCF Done:  E(RB-LYP) =  -3007.34441511     A.U. after   22 cycles

 Excitation energies and oscillator strengths:

 Excited State   1:      Singlet-A      1.8052 eV  686.82 nm  f=0.1588  <S**2>=0.000
     244 -> 247        0.46346
     245 -> 247        0.15070
     245 -> 248       -0.13607
     246 -> 247        0.49212
     246 <- 247       -0.10446
 This state for optimization and/or second-order correction.
 Total Energy, E(TD-HF/TD-DFT) =  -3007.27807577
 Copying the excited state density for this state as the 1-particle RhoCI density.

 Excited State   2:      Singlet-A      1.8272 eV  678.53 nm  f=0.1435  <S**2>=0.000
     244 -> 247        0.52874
     245 -> 248        0.13126
     246 -> 247       -0.45192

 Excited State   3:      Singlet-A      1.8888 eV  656.43 nm  f=0.0439  <S**2>=0.000
     243 -> 247        0.53495
     245 -> 247        0.41215
     246 -> 247       -0.16264
     246 -> 248        0.10276

 Excited State   4:      Singlet-A      2.0411 eV  607.44 nm  f=0.0544  <S**2>=0.000
     243 -> 247       -0.44414
     245 -> 247        0.48589
     246 -> 248        0.21149

 Excited State   5:      Singlet-A      2.4898 eV  497.97 nm  f=0.0031  <S**2>=0.000
     242 -> 247        0.68640

 The electronic state is 1-A.
 Alpha  occ. eigenvalues --  -46.25659 -18.82549 -18.80631 -18.77038 -18.75941
 Alpha  occ. eigenvalues --  -18.75403 -18.74674 -14.02916 -14.02812 -14.00829
 Alpha  occ. eigenvalues --  -14.00428 -10.03838 -10.02114  -9.99102  -9.98997
 Alpha  occ. eigenvalues --   -9.97581  -9.96814  -9.96119  -9.96002  -9.95895
 Alpha  occ. eigenvalues --   -9.95822  -9.95598  -9.95275  -9.95274  -9.94874
 Alpha  occ. eigenvalues --   -9.94607  -9.94327  -9.94158  -9.93785  -9.93743
 Alpha  occ. eigenvalues --   -9.93692  -9.93547  -9.93403  -9.93190  -9.93081
 Alpha  occ. eigenvalues --   -9.93006  -9.92862  -9.92590  -9.92548  -9.92515
 Alpha  occ. eigenvalues --   -9.92484  -9.92326  -9.92315  -9.92292  -9.92264
 Alpha  occ. eigenvalues --   -9.92167  -9.92079  -9.92062  -9.92051  -9.91900
 Alpha  occ. eigenvalues --   -9.91811  -9.91491  -9.91417  -9.91404  -9.91259
 Alpha  occ. eigenvalues --   -9.91258  -9.91222  -9.91015  -9.91011  -9.90994
 Alpha  occ. eigenvalues --   -9.90978  -9.90944  -9.90849  -9.90663  -9.90568
 Alpha  occ. eigenvalues --   -9.90516  -2.90671  -1.71054  -1.70612  -1.70353
 Alpha  occ. eigenvalues --   -0.99301  -0.96409  -0.91285  -0.90972  -0.89715
 Alpha  occ. eigenvalues --   -0.89607  -0.86824  -0.85464  -0.84715  -0.83289
 Alpha  occ. eigenvalues --   -0.75055  -0.74261  -0.73533  -0.73108  -0.72753
 Alpha  occ. eigenvalues --   -0.72265  -0.71407  -0.71169  -0.70693  -0.70143
 Alpha  occ. eigenvalues --   -0.69790  -0.69237  -0.68693  -0.67473  -0.66880
 Alpha  occ. eigenvalues --   -0.66688  -0.65921  -0.65444  -0.64926  -0.64706
 Alpha  occ. eigenvalues --   -0.63833  -0.62629  -0.62353  -0.61492  -0.60447
 Alpha  occ. eigenvalues --   -0.60295  -0.59970  -0.59753  -0.59256  -0.59161
 Alpha  occ. eigenvalues --   -0.58795  -0.57735  -0.56639  -0.55828  -0.55426
 Alpha  occ. eigenvalues --   -0.54156  -0.53728  -0.52904  -0.52703  -0.51574
 Alpha  occ. eigenvalues --   -0.51060  -0.50672  -0.50388  -0.50237  -0.50069
 Alpha  occ. eigenvalues --   -0.49519  -0.49006  -0.48878  -0.46939  -0.46746
 Alpha  occ. eigenvalues --   -0.46214  -0.45732  -0.45513  -0.44653  -0.44010
 Alpha  occ. eigenvalues --   -0.43718  -0.43600  -0.42846  -0.42767  -0.42566
 Alpha  occ. eigenvalues --   -0.42216  -0.42136  -0.41752  -0.41542  -0.41378
 Alpha  occ. eigenvalues --   -0.40888  -0.40688  -0.40421  -0.40309  -0.40083
 Alpha  occ. eigenvalues --   -0.39704  -0.39502  -0.39357  -0.39254  -0.39037
 Alpha  occ. eigenvalues --   -0.38901  -0.38792  -0.38490  -0.38136  -0.38024
 Alpha  occ. eigenvalues --   -0.37854  -0.37608  -0.37450  -0.37234  -0.37068
 Alpha  occ. eigenvalues --   -0.36927  -0.36788  -0.36615  -0.36467  -0.36408
 Alpha  occ. eigenvalues --   -0.36275  -0.36236  -0.36025  -0.35739  -0.35284
 Alpha  occ. eigenvalues --   -0.35235  -0.35047  -0.34797  -0.34642  -0.34498
 Alpha  occ. eigenvalues --   -0.34367  -0.34212  -0.34093  -0.33855  -0.33703
 Alpha  occ. eigenvalues --   -0.33620  -0.33542  -0.33363  -0.33240  -0.32945
 Alpha  occ. eigenvalues --   -0.32820  -0.32584  -0.32362  -0.32188  -0.32096
 Alpha  occ. eigenvalues --   -0.31956  -0.31875  -0.31581  -0.31471  -0.31407
 Alpha  occ. eigenvalues --   -0.31271  -0.31094  -0.30977  -0.30759  -0.30733
 Alpha  occ. eigenvalues --   -0.30560  -0.30257  -0.30061  -0.29924  -0.29778
 Alpha  occ. eigenvalues --   -0.29646  -0.29501  -0.29404  -0.29356  -0.29094
 Alpha  occ. eigenvalues --   -0.28976  -0.28798  -0.28574  -0.28308  -0.28043
 Alpha  occ. eigenvalues --   -0.27605  -0.27380  -0.27270  -0.26568  -0.26366
 Alpha  occ. eigenvalues --   -0.26257  -0.25560  -0.25493  -0.25257  -0.25133
 Alpha  occ. eigenvalues --   -0.24812  -0.24543  -0.23750  -0.23632  -0.23454
 Alpha  occ. eigenvalues --   -0.23343  -0.22487  -0.21755  -0.21244  -0.21003
 Alpha  occ. eigenvalues --   -0.20354  -0.19960  -0.18365  -0.17956  -0.16983
 Alpha  occ. eigenvalues --   -0.15675
 Alpha virt. eigenvalues --   -0.11365  -0.06662  -0.05936  -0.04377  -0.03202
 Alpha virt. eigenvalues --   -0.02463  -0.02274  -0.01499  -0.01394   0.00992
 Alpha virt. eigenvalues --    0.01279   0.01549   0.02009   0.02616   0.02892

 Mulliken charges:
               1
     1  Mg   0.719401
     2  C    0.001268
     3  C   -0.050476
     4  C   -0.061727
     5  C   -0.099526
     6  N   -0.201108
     7  C   -0.063096
     8  C    0.025307
     9  C    0.032132
    10  C   -0.025282
    11  C    0.144307
    12  C    0.112319
    13  C    0.144722
    14  C    0.023572
    15  O   -0.178851
    16  O   -0.243052
    17  N   -0.379357
    18  C    0.161648
    19  C   -0.161420
    20  C    0.053430
    21  C    0.140897
    22  C    0.146930
    23  C   -0.119546
    24  O   -0.173873
    25  C    0.176855
    26  N   -0.231789
    27  C    0.032096
    28  C    0.002102
    29  C    0.094840
    30  C   -0.012164
    31  C    0.122327
    32  C    0.087241
    33  C    0.033891
    34  N   -0.272315
    35  C    0.151903
    36  C   -0.137694
    37  C    0.079869
    38  C    0.101516
    39  C    0.184275
    40  C   -0.026097
    41  O   -0.154551
    42  C    0.044625
    43  C    0.104116
    44  O   -0.156986
    45  O   -0.294652
    46  C    0.206642
    47  C    0.327550
    48  C   -0.088830
    49  C   -0.115438
    50  C    0.153349
    51  C    0.103486
    52  C    0.080790
    53  C    0.031664
    54  C   -0.121573
    55  C    0.160528
    56  C    0.124098
    57  C    0.071589
    58  C    0.026412
    59  C   -0.059340
    60  C    0.111301
    61  C    0.167632
    62  C    0.105435
    63  C    0.067633
    64  C   -0.143060
    65  C    0.125984
    66  C    0.115733
    67  H   -0.068702
    68  H   -0.049823
    69  H   -0.068726
    70  H    0.015721
    71  H   -0.033084
    72  H    0.015421
    73  H   -0.009090
    74  H   -0.009120
    75  H   -0.030973
    76  H   -0.006387
    77  H   -0.010617
    78  H    0.001202
    79  H    0.009845
    80  H    0.008256
    81  H   -0.019877
    82  H    0.005423
    83  H    0.000076
    84  H   -0.008574
    85  H   -0.027394
    86  H   -0.031267
    87  H   -0.013350
    88  H    0.002328
    89  H    0.007013
    90  H   -0.016847
    91  H   -0.015544
    92  H   -0.011122
    93  H   -0.004907
    94  H   -0.005221
    95  H   -0.010587
    96  H    0.007863
    97  H   -0.002237
    98  H   -0.008228
    99  H    0.020847
   100  H    0.004876
   101  H    0.029258
   102  H   -0.009210
   103  H   -0.024854
   104  H   -0.043054
   105  H   -0.010435
   106  H   -0.005586
   107  H   -0.011391
   108  H    0.002726
   109  H   -0.040063
   110  H   -0.026983
   111  H   -0.021606
   112  H   -0.027032
   113  H   -0.030709
   114  H   -0.037867
   115  H   -0.016897
   116  H   -0.018030
   117  H   -0.007159
   118  H   -0.031540
   119  H   -0.046287
   120  H   -0.027021
   121  H   -0.021787
   122  H   -0.040687
   123  H   -0.043197
   124  H   -0.039012
   125  H   -0.028351
   126  H   -0.028773
   127  H   -0.019395
   128  H   -0.035772
   129  H   -0.047490
   130  H   -0.039023
   131  H   -0.025787
   132  H   -0.030594
   133  H   -0.041609
   134  H   -0.023554
   135  H    0.001432
   136  H   -0.020027
   137  H   -0.022462
   138  H   -0.019467
   139  H   -0.024086
   140  H   -0.013425
 Sum of Mulliken charges =  -0.00000

 Dipole moment (field-independent basis, Debye):
    X=             -4.2215    Y=              3.0547    Z=              0.6179  Tot=              5.2473
 Quadrupole moment (field-independent basis, Debye-Ang):
   XX=           -370.2995   YY=           -434.6628   ZZ=           -405.0978
   XY=              2.8411   XZ=             -0.5265   YZ=             -5.5636

 Normal termination of Gaussian 16 at Wed May  4 12:00:03 2022.
