 Gaussian 16, Revision A.03,
 Gaussian 16:  ES64L-G16RevA.03 25-Dec-2016

 -----------------------------------
 #p cam-b3lyp/Def2SVP td=(nstates=5)
 -----------------------------------

 -------------------------------------------------------
 step_1651_chromophore_4 TDDFT with cam-b3lyp functional
 -------------------------------------------------------
 Symbolic Z-matrix:
 Charge =  0 Multiplicity = 1

                         Standard orientation:
 ---------------------------------------------------------------------
 Center     Atomic      Atomic             Coordinates (Angstroms)
 Number     Number       Type             X           Y           Z
 ---------------------------------------------------------------------
      1         12           0        5.897647    0.729348    0.356679
      2          6           0        3.930563   -2.164122    0.450055
      3          6           0        2.967308    2.393799   -0.692096
      4          6           0        7.759377    3.273915   -0.048028
      5          6           0        8.719233   -1.428823    0.272351
      6          7           0        3.768382    0.171886   -0.223815
      7          6           0        3.154423   -1.042778    0.066821
      8          6           0        1.582822   -0.930130   -0.242385
      9          6           0        1.438000    0.431672   -0.961571
     10          6           0        2.796157    1.051599   -0.628363
     11          6           0        1.299046    0.412715   -2.534005
     12          6           0        0.789543   -1.213118    1.096150
     13          6           0       -0.484892   -2.044311    1.086285
     14          6           0       -1.175847   -2.287215   -0.208285
     15          8           0       -0.875349   -3.143672   -1.003444
     16          8           0       -2.194652   -1.413929   -0.323373
     17          7           0        5.392395    2.529055   -0.196145
     18          6           0        4.134805    3.127947   -0.427847
     19          6           0        4.384908    4.570654   -0.564973
     20          6           0        5.808810    4.852211   -0.274714
     21          6           0        6.391094    3.501653   -0.159887
     22          6           0        3.204969    5.606374   -0.830106
     23          6           0        6.456980    6.170343   -0.098068
     24          8           0        7.658326    6.301967    0.117309
     25          6           0        5.677219    7.421795   -0.152512
     26          7           0        7.922207    0.927225    0.121460
     27          6           0        8.506977    2.087702   -0.017784
     28          6           0       10.043996    2.001662   -0.358922
     29          6           0       10.269862    0.516496   -0.111338
     30          6           0        8.923987   -0.058695    0.162144
     31          6           0       10.414615    2.590232   -1.776197
     32          6           0       11.395025    0.122645    0.841515
     33          6           0       10.984174   -0.054655    2.369568
     34          7           0        6.327151   -1.309227    0.541001
     35          6           0        7.502736   -2.064197    0.446696
     36          6           0        7.286752   -3.458131    0.768566
     37          6           0        5.877144   -3.480396    0.858823
     38          6           0        5.313090   -2.185889    0.643125
     39          6           0        8.223108   -4.604428    0.745244
     40          6           0        4.825463   -4.425544    1.019951
     41          8           0        4.870955   -5.663477    1.113894
     42          6           0        3.460877   -3.547846    0.806351
     43          6           0        2.584504   -4.123448   -0.209448
     44          8           0        2.796835   -4.020344   -1.381216
     45          8           0        1.626313   -4.888759    0.449946
     46          6           0        0.941527   -5.799627   -0.494190
     47          6           0       -3.115417   -1.552411   -1.421617
     48          6           0       -4.479974   -1.222309   -1.018409
     49          6           0       -5.459816   -2.137803   -0.880493
     50          6           0       -5.370428   -3.630666   -1.062960
     51          6           0       -6.844623   -1.750390   -0.359257
     52          6           0       -7.713297   -0.714365   -1.038212
     53          6           0       -8.010806    0.426076    0.046653
     54          6           0       -9.575527    0.765474    0.349018
     55          6           0      -10.030006    1.877799   -0.501620
     56          6           0       -9.839582    0.993988    1.865252
     57          6           0      -11.264439    0.742282    2.248483
     58          6           0      -12.100917    2.004890    2.631398
     59          6           0      -13.596799    1.970936    2.229494
     60          6           0      -14.337306    2.712510    3.349195
     61          6           0      -13.910592    2.477984    0.818171
     62          6           0      -14.756837    1.615235   -0.092670
     63          6           0      -14.044985    1.199754   -1.403718
     64          6           0      -13.576482   -0.333431   -1.432498
     65          6           0      -12.573727   -0.526634   -2.595284
     66          6           0      -14.808262   -1.204980   -1.628010
     67          1           0        2.042600    2.947605   -0.864736
     68          1           0        8.346818    4.194340   -0.072918
     69          1           0        9.676120   -1.945024    0.171946
     70          1           0        1.302667   -1.706405   -0.953961
     71          1           0        0.767708    1.121822   -0.449197
     72          1           0        1.258316   -0.609867   -2.908906
     73          1           0        2.193794    0.849622   -2.979036
     74          1           0        0.575403    1.118383   -2.941149
     75          1           0        0.427333   -0.257649    1.476097
     76          1           0        1.303668   -1.676410    1.937620
     77          1           0       -1.252858   -1.547234    1.679211
     78          1           0       -0.217424   -3.041867    1.436320
     79          1           0        3.415209    6.353208   -1.595682
     80          1           0        2.996398    6.074742    0.131798
     81          1           0        2.294362    5.060154   -1.073828
     82          1           0        4.844029    7.255310    0.529731
     83          1           0        5.363092    7.491190   -1.194125
     84          1           0        6.322783    8.281621    0.024146
     85          1           0       10.685190    2.595772    0.293017
     86          1           0       10.546101    0.119773   -1.088372
     87          1           0       11.051326    1.851041   -2.260945
     88          1           0       10.964834    3.519134   -1.629012
     89          1           0        9.532892    2.769680   -2.392614
     90          1           0       12.194246    0.861286    0.895131
     91          1           0       11.801934   -0.843279    0.540926
     92          1           0       11.042240   -1.059524    2.786763
     93          1           0        9.909572    0.121796    2.416364
     94          1           0       11.476290    0.629380    3.060883
     95          1           0        9.171667   -4.226389    0.362983
     96          1           0        7.805340   -5.448435    0.196022
     97          1           0        8.367048   -5.115252    1.697466
     98          1           0        2.906266   -3.352903    1.724392
     99          1           0       -0.007387   -5.313721   -0.723331
    100          1           0        0.788828   -6.614661    0.213458
    101          1           0        1.517650   -6.065556   -1.380119
    102          1           0       -2.980103   -2.460575   -2.010118
    103          1           0       -2.872042   -0.829881   -2.201208
    104          1           0       -4.750087   -0.194974   -0.774886
    105          1           0       -5.597113   -4.169345   -0.142891
    106          1           0       -4.392632   -3.954226   -1.420095
    107          1           0       -6.203627   -4.040866   -1.633039
    108          1           0       -6.656648   -1.531645    0.691572
    109          1           0       -7.553403   -2.578109   -0.391136
    110          1           0       -8.700005   -1.093914   -1.303719
    111          1           0       -7.301844   -0.252178   -1.935571
    112          1           0       -7.456677    1.265425   -0.374198
    113          1           0       -7.632704    0.139142    1.027957
    114          1           0       -9.975380   -0.225409    0.131530
    115          1           0      -10.519407    1.368109   -1.331089
    116          1           0       -9.215087    2.483887   -0.896548
    117          1           0      -10.735164    2.525578    0.020136
    118          1           0       -9.562460    2.030888    2.054767
    119          1           0       -9.245761    0.314107    2.476012
    120          1           0      -11.347903    0.112005    3.133856
    121          1           0      -11.780075    0.303566    1.393808
    122          1           0      -11.626147    2.946009    2.354254
    123          1           0      -11.950695    2.012228    3.710911
    124          1           0      -13.716665    0.899943    2.390912
    125          1           0      -14.954798    3.500454    2.916916
    126          1           0      -13.700442    3.244444    4.055552
    127          1           0      -14.888533    2.099979    4.063358
    128          1           0      -13.006298    2.786209    0.293135
    129          1           0      -14.492472    3.380825    1.001136
    130          1           0      -15.688793    2.144474   -0.290006
    131          1           0      -15.079595    0.728334    0.453345
    132          1           0      -13.128863    1.729791   -1.664101
    133          1           0      -14.678106    1.384057   -2.272051
    134          1           0      -13.077961   -0.566576   -0.491093
    135          1           0      -11.589232   -0.769564   -2.195840
    136          1           0      -12.490269    0.419676   -3.130240
    137          1           0      -13.056382   -1.279020   -3.217980
    138          1           0      -15.349522   -0.945386   -2.539086
    139          1           0      -15.518319   -1.027659   -0.820241
    140          1           0      -14.516148   -2.254528   -1.638005
 ---------------------------------------------------------------------

 SCF Done:  E(RCAM-B3LYP) =  -3007.14387400     A.U. after   17 cycles

 Excitation energies and oscillator strengths:

 Excited State   1:      Singlet-A      1.7117 eV  724.31 nm  f=0.3919  <S**2>=0.000
     245 -> 248       -0.18213
     246 -> 247        0.68325
     245 <- 248       -0.10764
 This state for optimization and/or second-order correction.
 Total Energy, E(TD-HF/TD-DFT) =  -3007.08096850
 Copying the excited state density for this state as the 1-particle RhoCI density.

 Excited State   2:      Singlet-A      2.2231 eV  557.71 nm  f=0.1134  <S**2>=0.000
     245 -> 247        0.64043
     246 -> 248        0.28293

 Excited State   3:      Singlet-A      3.3132 eV  374.22 nm  f=0.0021  <S**2>=0.000
     242 -> 247        0.17682
     242 -> 249        0.12788
     243 -> 247       -0.20351
     244 -> 247        0.60647
     246 -> 248       -0.10086

 Excited State   4:      Singlet-A      3.4236 eV  362.15 nm  f=0.0412  <S**2>=0.000
     241 -> 249        0.10949
     242 -> 247        0.31270
     242 -> 249        0.13624
     243 -> 247        0.50908
     246 -> 248       -0.24348

 Excited State   5:      Singlet-A      3.4848 eV  355.78 nm  f=0.0108  <S**2>=0.000
     241 -> 247        0.43391
     241 -> 249       -0.14619
     241 -> 251        0.12952
     242 -> 247        0.30482
     242 -> 249        0.19434
     243 -> 247       -0.16817
     244 -> 247       -0.22211

 The electronic state is 1-A.
 Alpha  occ. eigenvalues --  -46.87089 -19.25409 -19.23509 -19.19989 -19.19061
 Alpha  occ. eigenvalues --  -19.18321 -19.18043 -14.41819 -14.41676 -14.39369
 Alpha  occ. eigenvalues --  -14.38726 -10.39041 -10.37533 -10.34395 -10.34330
 Alpha  occ. eigenvalues --  -10.31604 -10.31288 -10.30705 -10.30616 -10.30521
 Alpha  occ. eigenvalues --  -10.30094 -10.30009 -10.29919 -10.29221 -10.29199
 Alpha  occ. eigenvalues --  -10.28732 -10.28332 -10.28283 -10.27927 -10.27760
 Alpha  occ. eigenvalues --  -10.27735 -10.27633 -10.27592 -10.27503 -10.27347
 Alpha  occ. eigenvalues --  -10.26825 -10.26818 -10.26690 -10.26442 -10.26396
 Alpha  occ. eigenvalues --  -10.26257 -10.26208 -10.26121 -10.26008 -10.25887
 Alpha  occ. eigenvalues --  -10.25840 -10.25829 -10.25827 -10.25756 -10.25747
 Alpha  occ. eigenvalues --  -10.25674 -10.25509 -10.25376 -10.25203 -10.24985
 Alpha  occ. eigenvalues --  -10.24978 -10.24859 -10.24674 -10.24649 -10.24648
 Alpha  occ. eigenvalues --  -10.24603 -10.24538 -10.24448 -10.24371 -10.24324
 Alpha  occ. eigenvalues --  -10.24167  -3.16019  -1.90874  -1.90526  -1.90307
 Alpha  occ. eigenvalues --   -1.17788  -1.14988  -1.09548  -1.09188  -1.07812
 Alpha  occ. eigenvalues --   -1.07548  -1.04549  -1.02997  -1.02259  -1.00853
 Alpha  occ. eigenvalues --   -0.92094  -0.91148  -0.90375  -0.89799  -0.89489
 Alpha  occ. eigenvalues --   -0.88983  -0.88074  -0.87789  -0.87215  -0.86557
 Alpha  occ. eigenvalues --   -0.86216  -0.86050  -0.85007  -0.83614  -0.82979
 Alpha  occ. eigenvalues --   -0.82820  -0.81872  -0.81739  -0.80820  -0.80580
 Alpha  occ. eigenvalues --   -0.79609  -0.78300  -0.78032  -0.77019  -0.75777
 Alpha  occ. eigenvalues --   -0.75640  -0.75264  -0.75038  -0.74529  -0.74408
 Alpha  occ. eigenvalues --   -0.73897  -0.72732  -0.71543  -0.70653  -0.70072
 Alpha  occ. eigenvalues --   -0.68776  -0.68357  -0.67376  -0.67187  -0.65770
 Alpha  occ. eigenvalues --   -0.65243  -0.64736  -0.64276  -0.64233  -0.64127
 Alpha  occ. eigenvalues --   -0.63398  -0.62922  -0.62806  -0.60524  -0.60335
 Alpha  occ. eigenvalues --   -0.59905  -0.59197  -0.59028  -0.57951  -0.57570
 Alpha  occ. eigenvalues --   -0.57034  -0.56894  -0.56198  -0.55803  -0.55606
 Alpha  occ. eigenvalues --   -0.55394  -0.55010  -0.54737  -0.54569  -0.54425
 Alpha  occ. eigenvalues --   -0.53910  -0.53533  -0.53354  -0.53065  -0.52873
 Alpha  occ. eigenvalues --   -0.52359  -0.52247  -0.52046  -0.51842  -0.51809
 Alpha  occ. eigenvalues --   -0.51678  -0.51395  -0.51064  -0.50653  -0.50319
 Alpha  occ. eigenvalues --   -0.50311  -0.50025  -0.49821  -0.49620  -0.49308
 Alpha  occ. eigenvalues --   -0.49061  -0.49036  -0.48924  -0.48786  -0.48670
 Alpha  occ. eigenvalues --   -0.48554  -0.48306  -0.48204  -0.48143  -0.47882
 Alpha  occ. eigenvalues --   -0.47234  -0.47160  -0.46829  -0.46650  -0.46375
 Alpha  occ. eigenvalues --   -0.46252  -0.46151  -0.45801  -0.45608  -0.45419
 Alpha  occ. eigenvalues --   -0.45244  -0.45194  -0.45080  -0.45045  -0.44776
 Alpha  occ. eigenvalues --   -0.44505  -0.44222  -0.44080  -0.43930  -0.43754
 Alpha  occ. eigenvalues --   -0.43581  -0.43527  -0.43259  -0.43140  -0.42931
 Alpha  occ. eigenvalues --   -0.42696  -0.42491  -0.42390  -0.42220  -0.42198
 Alpha  occ. eigenvalues --   -0.42000  -0.41878  -0.41651  -0.41577  -0.41251
 Alpha  occ. eigenvalues --   -0.41123  -0.40898  -0.40582  -0.40425  -0.40171
 Alpha  occ. eigenvalues --   -0.40130  -0.39849  -0.39641  -0.39292  -0.39112
 Alpha  occ. eigenvalues --   -0.38469  -0.38243  -0.38057  -0.37537  -0.37268
 Alpha  occ. eigenvalues --   -0.36812  -0.36689  -0.36521  -0.36149  -0.35718
 Alpha  occ. eigenvalues --   -0.35445  -0.35182  -0.35023  -0.34486  -0.34258
 Alpha  occ. eigenvalues --   -0.33688  -0.33673  -0.33024  -0.30861  -0.30779
 Alpha  occ. eigenvalues --   -0.30474  -0.30071  -0.29806  -0.28987  -0.23764
 Alpha  occ. eigenvalues --   -0.20949
 Alpha virt. eigenvalues --   -0.08456  -0.01471   0.00496   0.02270   0.02728
 Alpha virt. eigenvalues --    0.04259   0.05304   0.05875   0.06236   0.07387
 Alpha virt. eigenvalues --    0.07462   0.08269   0.08895   0.09279   0.09300

 Mulliken charges:
               1
     1  Mg   0.853144
     2  C   -0.023423
     3  C   -0.066410
     4  C   -0.086823
     5  C   -0.096807
     6  N   -0.266370
     7  C   -0.020579
     8  C   -0.026097
     9  C   -0.022286
    10  C   -0.006300
    11  C    0.085722
    12  C    0.063281
    13  C    0.074252
    14  C    0.106851
    15  O   -0.222419
    16  O   -0.307553
    17  N   -0.469524
    18  C    0.172480
    19  C   -0.164208
    20  C   -0.020124
    21  C    0.171137
    22  C    0.094998
    23  C   -0.036734
    24  O   -0.215887
    25  C    0.091877
    26  N   -0.304040
    27  C    0.050966
    28  C   -0.042589
    29  C    0.031777
    30  C   -0.003541
    31  C    0.065775
    32  C    0.028296
    33  C   -0.024352
    34  N   -0.359846
    35  C    0.149027
    36  C   -0.128095
    37  C   -0.000378
    38  C    0.133052
    39  C    0.130868
    40  C    0.069625
    41  O   -0.196016
    42  C   -0.031557
    43  C    0.189226
    44  O   -0.191444
    45  O   -0.356739
    46  C    0.166668
    47  C    0.286403
    48  C   -0.107617
    49  C   -0.136576
    50  C    0.087757
    51  C    0.044236
    52  C    0.025031
    53  C   -0.009425
    54  C   -0.173719
    55  C    0.104452
    56  C    0.067034
    57  C    0.021306
    58  C   -0.018674
    59  C   -0.120407
    60  C    0.052402
    61  C    0.111423
    62  C    0.047769
    63  C    0.014663
    64  C   -0.195677
    65  C    0.066076
    66  C    0.055665
    67  H   -0.034335
    68  H   -0.006181
    69  H   -0.033375
    70  H    0.046961
    71  H    0.002664
    72  H    0.040700
    73  H    0.018535
    74  H    0.015478
    75  H   -0.000339
    76  H    0.023269
    77  H    0.024971
    78  H    0.031905
    79  H    0.035755
    80  H    0.034210
    81  H    0.008522
    82  H    0.031012
    83  H    0.027432
    84  H    0.028904
    85  H    0.008059
    86  H    0.006294
    87  H    0.010861
    88  H    0.025636
    89  H    0.032253
    90  H    0.012124
    91  H    0.012100
    92  H    0.013160
    93  H    0.017401
    94  H    0.018511
    95  H    0.011535
    96  H    0.035488
    97  H    0.024991
    98  H    0.033036
    99  H    0.043564
   100  H    0.029330
   101  H    0.054182
   102  H    0.025458
   103  H    0.002519
   104  H   -0.009196
   105  H    0.015672
   106  H    0.018570
   107  H    0.014541
   108  H    0.031411
   109  H   -0.007851
   110  H   -0.000399
   111  H    0.007961
   112  H   -0.001158
   113  H   -0.004271
   114  H   -0.009861
   115  H    0.002382
   116  H    0.008017
   117  H    0.012002
   118  H   -0.002913
   119  H   -0.014559
   120  H    0.002255
   121  H   -0.001224
   122  H   -0.013915
   123  H   -0.012159
   124  H   -0.006913
   125  H   -0.004121
   126  H   -0.003255
   127  H    0.006072
   128  H   -0.009226
   129  H   -0.016040
   130  H   -0.007296
   131  H    0.000349
   132  H   -0.005170
   133  H   -0.011811
   134  H    0.004118
   135  H    0.019363
   136  H    0.004636
   137  H    0.004415
   138  H    0.004404
   139  H    0.000249
   140  H    0.011322
 Sum of Mulliken charges =  -0.00000

 Dipole moment (field-independent basis, Debye):
    X=             -4.5237    Y=              3.9473    Z=              0.6091  Tot=              6.0346
 Quadrupole moment (field-independent basis, Debye-Ang):
   XX=           -370.4626   YY=           -429.9416   ZZ=           -404.8955
   XY=              7.0003   XZ=             -1.0452   YZ=             -5.8915

 Normal termination of Gaussian 16 at Wed May  4 11:02:14 2022.
