 Gaussian 16, Revision A.03,
 Gaussian 16:  ES64L-G16RevA.03 25-Dec-2016

 ---------------------------------
 #p PBE1PBE/Def2SVP td=(nstates=5)
 ---------------------------------

 -----------------------------------------------------
 step_1651_chromophore_4 TDDFT with PBE1PBE functional
 -----------------------------------------------------
 Symbolic Z-matrix:
 Charge =  0 Multiplicity = 1

                         Standard orientation:
 ---------------------------------------------------------------------
 Center     Atomic      Atomic             Coordinates (Angstroms)
 Number     Number       Type             X           Y           Z
 ---------------------------------------------------------------------
      1         12           0        5.897647    0.729348    0.356679
      2          6           0        3.930563   -2.164122    0.450055
      3          6           0        2.967308    2.393799   -0.692096
      4          6           0        7.759377    3.273915   -0.048028
      5          6           0        8.719233   -1.428823    0.272351
      6          7           0        3.768382    0.171886   -0.223815
      7          6           0        3.154423   -1.042778    0.066821
      8          6           0        1.582822   -0.930130   -0.242385
      9          6           0        1.438000    0.431672   -0.961571
     10          6           0        2.796157    1.051599   -0.628363
     11          6           0        1.299046    0.412715   -2.534005
     12          6           0        0.789543   -1.213118    1.096150
     13          6           0       -0.484892   -2.044311    1.086285
     14          6           0       -1.175847   -2.287215   -0.208285
     15          8           0       -0.875349   -3.143672   -1.003444
     16          8           0       -2.194652   -1.413929   -0.323373
     17          7           0        5.392395    2.529055   -0.196145
     18          6           0        4.134805    3.127947   -0.427847
     19          6           0        4.384908    4.570654   -0.564973
     20          6           0        5.808810    4.852211   -0.274714
     21          6           0        6.391094    3.501653   -0.159887
     22          6           0        3.204969    5.606374   -0.830106
     23          6           0        6.456980    6.170343   -0.098068
     24          8           0        7.658326    6.301967    0.117309
     25          6           0        5.677219    7.421795   -0.152512
     26          7           0        7.922207    0.927225    0.121460
     27          6           0        8.506977    2.087702   -0.017784
     28          6           0       10.043996    2.001662   -0.358922
     29          6           0       10.269862    0.516496   -0.111338
     30          6           0        8.923987   -0.058695    0.162144
     31          6           0       10.414615    2.590232   -1.776197
     32          6           0       11.395025    0.122645    0.841515
     33          6           0       10.984174   -0.054655    2.369568
     34          7           0        6.327151   -1.309227    0.541001
     35          6           0        7.502736   -2.064197    0.446696
     36          6           0        7.286752   -3.458131    0.768566
     37          6           0        5.877144   -3.480396    0.858823
     38          6           0        5.313090   -2.185889    0.643125
     39          6           0        8.223108   -4.604428    0.745244
     40          6           0        4.825463   -4.425544    1.019951
     41          8           0        4.870955   -5.663477    1.113894
     42          6           0        3.460877   -3.547846    0.806351
     43          6           0        2.584504   -4.123448   -0.209448
     44          8           0        2.796835   -4.020344   -1.381216
     45          8           0        1.626313   -4.888759    0.449946
     46          6           0        0.941527   -5.799627   -0.494190
     47          6           0       -3.115417   -1.552411   -1.421617
     48          6           0       -4.479974   -1.222309   -1.018409
     49          6           0       -5.459816   -2.137803   -0.880493
     50          6           0       -5.370428   -3.630666   -1.062960
     51          6           0       -6.844623   -1.750390   -0.359257
     52          6           0       -7.713297   -0.714365   -1.038212
     53          6           0       -8.010806    0.426076    0.046653
     54          6           0       -9.575527    0.765474    0.349018
     55          6           0      -10.030006    1.877799   -0.501620
     56          6           0       -9.839582    0.993988    1.865252
     57          6           0      -11.264439    0.742282    2.248483
     58          6           0      -12.100917    2.004890    2.631398
     59          6           0      -13.596799    1.970936    2.229494
     60          6           0      -14.337306    2.712510    3.349195
     61          6           0      -13.910592    2.477984    0.818171
     62          6           0      -14.756837    1.615235   -0.092670
     63          6           0      -14.044985    1.199754   -1.403718
     64          6           0      -13.576482   -0.333431   -1.432498
     65          6           0      -12.573727   -0.526634   -2.595284
     66          6           0      -14.808262   -1.204980   -1.628010
     67          1           0        2.042600    2.947605   -0.864736
     68          1           0        8.346818    4.194340   -0.072918
     69          1           0        9.676120   -1.945024    0.171946
     70          1           0        1.302667   -1.706405   -0.953961
     71          1           0        0.767708    1.121822   -0.449197
     72          1           0        1.258316   -0.609867   -2.908906
     73          1           0        2.193794    0.849622   -2.979036
     74          1           0        0.575403    1.118383   -2.941149
     75          1           0        0.427333   -0.257649    1.476097
     76          1           0        1.303668   -1.676410    1.937620
     77          1           0       -1.252858   -1.547234    1.679211
     78          1           0       -0.217424   -3.041867    1.436320
     79          1           0        3.415209    6.353208   -1.595682
     80          1           0        2.996398    6.074742    0.131798
     81          1           0        2.294362    5.060154   -1.073828
     82          1           0        4.844029    7.255310    0.529731
     83          1           0        5.363092    7.491190   -1.194125
     84          1           0        6.322783    8.281621    0.024146
     85          1           0       10.685190    2.595772    0.293017
     86          1           0       10.546101    0.119773   -1.088372
     87          1           0       11.051326    1.851041   -2.260945
     88          1           0       10.964834    3.519134   -1.629012
     89          1           0        9.532892    2.769680   -2.392614
     90          1           0       12.194246    0.861286    0.895131
     91          1           0       11.801934   -0.843279    0.540926
     92          1           0       11.042240   -1.059524    2.786763
     93          1           0        9.909572    0.121796    2.416364
     94          1           0       11.476290    0.629380    3.060883
     95          1           0        9.171667   -4.226389    0.362983
     96          1           0        7.805340   -5.448435    0.196022
     97          1           0        8.367048   -5.115252    1.697466
     98          1           0        2.906266   -3.352903    1.724392
     99          1           0       -0.007387   -5.313721   -0.723331
    100          1           0        0.788828   -6.614661    0.213458
    101          1           0        1.517650   -6.065556   -1.380119
    102          1           0       -2.980103   -2.460575   -2.010118
    103          1           0       -2.872042   -0.829881   -2.201208
    104          1           0       -4.750087   -0.194974   -0.774886
    105          1           0       -5.597113   -4.169345   -0.142891
    106          1           0       -4.392632   -3.954226   -1.420095
    107          1           0       -6.203627   -4.040866   -1.633039
    108          1           0       -6.656648   -1.531645    0.691572
    109          1           0       -7.553403   -2.578109   -0.391136
    110          1           0       -8.700005   -1.093914   -1.303719
    111          1           0       -7.301844   -0.252178   -1.935571
    112          1           0       -7.456677    1.265425   -0.374198
    113          1           0       -7.632704    0.139142    1.027957
    114          1           0       -9.975380   -0.225409    0.131530
    115          1           0      -10.519407    1.368109   -1.331089
    116          1           0       -9.215087    2.483887   -0.896548
    117          1           0      -10.735164    2.525578    0.020136
    118          1           0       -9.562460    2.030888    2.054767
    119          1           0       -9.245761    0.314107    2.476012
    120          1           0      -11.347903    0.112005    3.133856
    121          1           0      -11.780075    0.303566    1.393808
    122          1           0      -11.626147    2.946009    2.354254
    123          1           0      -11.950695    2.012228    3.710911
    124          1           0      -13.716665    0.899943    2.390912
    125          1           0      -14.954798    3.500454    2.916916
    126          1           0      -13.700442    3.244444    4.055552
    127          1           0      -14.888533    2.099979    4.063358
    128          1           0      -13.006298    2.786209    0.293135
    129          1           0      -14.492472    3.380825    1.001136
    130          1           0      -15.688793    2.144474   -0.290006
    131          1           0      -15.079595    0.728334    0.453345
    132          1           0      -13.128863    1.729791   -1.664101
    133          1           0      -14.678106    1.384057   -2.272051
    134          1           0      -13.077961   -0.566576   -0.491093
    135          1           0      -11.589232   -0.769564   -2.195840
    136          1           0      -12.490269    0.419676   -3.130240
    137          1           0      -13.056382   -1.279020   -3.217980
    138          1           0      -15.349522   -0.945386   -2.539086
    139          1           0      -15.518319   -1.027659   -0.820241
    140          1           0      -14.516148   -2.254528   -1.638005
 ---------------------------------------------------------------------

 SCF Done:  E(RPBE1PBE) =  -3005.33353817     A.U. after   15 cycles

 Excitation energies and oscillator strengths:

 Excited State   1:      Singlet-A      1.8638 eV  665.22 nm  f=0.3801  <S**2>=0.000
     245 -> 248       -0.17544
     246 -> 247        0.68999
     246 <- 247       -0.10547
 This state for optimization and/or second-order correction.
 Total Energy, E(TD-HF/TD-DFT) =  -3005.26504501
 Copying the excited state density for this state as the 1-particle RhoCI density.

 Excited State   2:      Singlet-A      2.2136 eV  560.11 nm  f=0.1102  <S**2>=0.000
     245 -> 247        0.65150
     246 -> 248        0.25220

 Excited State   3:      Singlet-A      2.8892 eV  429.13 nm  f=0.0005  <S**2>=0.000
     242 -> 247        0.30738
     242 -> 249        0.12371
     244 -> 247        0.59940

 Excited State   4:      Singlet-A      2.9333 eV  422.68 nm  f=0.0008  <S**2>=0.000
     241 -> 247        0.12978
     243 -> 247        0.66221
     243 -> 249       -0.12582

 Excited State   5:      Singlet-A      3.0548 eV  405.86 nm  f=0.0015  <S**2>=0.000
     241 -> 247        0.12556
     242 -> 247        0.59335
     244 -> 247       -0.32190

 The electronic state is 1-A.
 Alpha  occ. eigenvalues --  -46.90522 -19.26066 -19.24204 -19.20219 -19.19270
 Alpha  occ. eigenvalues --  -19.18712 -19.18145 -14.41308 -14.41218 -14.39021
 Alpha  occ. eigenvalues --  -14.38471 -10.36012 -10.34522 -10.31642 -10.31295
 Alpha  occ. eigenvalues --  -10.29174 -10.28958 -10.28309 -10.28171 -10.28084
 Alpha  occ. eigenvalues --  -10.27922 -10.27726 -10.27466 -10.27131 -10.26572
 Alpha  occ. eigenvalues --  -10.26475 -10.26111 -10.26087 -10.25570 -10.25546
 Alpha  occ. eigenvalues --  -10.25459 -10.25234 -10.25205 -10.25079 -10.25055
 Alpha  occ. eigenvalues --  -10.24673 -10.24498 -10.24367 -10.23965 -10.23933
 Alpha  occ. eigenvalues --  -10.23913 -10.23676 -10.23540 -10.23514 -10.23498
 Alpha  occ. eigenvalues --  -10.23483 -10.23465 -10.23373 -10.23327 -10.23281
 Alpha  occ. eigenvalues --  -10.23208 -10.22971 -10.22854 -10.22836 -10.22572
 Alpha  occ. eigenvalues --  -10.22447 -10.22384 -10.22233 -10.22227 -10.22196
 Alpha  occ. eigenvalues --  -10.22184 -10.22003 -10.21961 -10.21884 -10.21833
 Alpha  occ. eigenvalues --  -10.21575  -3.13019  -1.85815  -1.85447  -1.85232
 Alpha  occ. eigenvalues --   -1.12578  -1.09744  -1.04145  -1.04019  -1.02672
 Alpha  occ. eigenvalues --   -1.02408  -0.99168  -0.97704  -0.96907  -0.95411
 Alpha  occ. eigenvalues --   -0.86514  -0.85296  -0.84471  -0.84144  -0.83678
 Alpha  occ. eigenvalues --   -0.83106  -0.82402  -0.81897  -0.81549  -0.80980
 Alpha  occ. eigenvalues --   -0.80430  -0.80178  -0.79217  -0.77815  -0.77301
 Alpha  occ. eigenvalues --   -0.77062  -0.76071  -0.75838  -0.75041  -0.74849
 Alpha  occ. eigenvalues --   -0.73969  -0.72608  -0.72250  -0.71294  -0.69954
 Alpha  occ. eigenvalues --   -0.69765  -0.69581  -0.69221  -0.68759  -0.68688
 Alpha  occ. eigenvalues --   -0.68181  -0.67223  -0.65907  -0.64996  -0.64421
 Alpha  occ. eigenvalues --   -0.63054  -0.62758  -0.61796  -0.61431  -0.60313
 Alpha  occ. eigenvalues --   -0.59524  -0.59220  -0.58752  -0.58651  -0.58206
 Alpha  occ. eigenvalues --   -0.57992  -0.57103  -0.56997  -0.55070  -0.54763
 Alpha  occ. eigenvalues --   -0.54391  -0.53828  -0.53583  -0.52606  -0.52042
 Alpha  occ. eigenvalues --   -0.51585  -0.51298  -0.50740  -0.50327  -0.50153
 Alpha  occ. eigenvalues --   -0.49961  -0.49387  -0.49189  -0.49064  -0.48828
 Alpha  occ. eigenvalues --   -0.48362  -0.48034  -0.47911  -0.47340  -0.47230
 Alpha  occ. eigenvalues --   -0.46979  -0.46870  -0.46598  -0.46389  -0.46377
 Alpha  occ. eigenvalues --   -0.46284  -0.45906  -0.45668  -0.45297  -0.44873
 Alpha  occ. eigenvalues --   -0.44830  -0.44550  -0.44439  -0.44203  -0.43883
 Alpha  occ. eigenvalues --   -0.43647  -0.43582  -0.43506  -0.43380  -0.43259
 Alpha  occ. eigenvalues --   -0.43139  -0.42939  -0.42794  -0.42740  -0.42438
 Alpha  occ. eigenvalues --   -0.41911  -0.41820  -0.41545  -0.41327  -0.41119
 Alpha  occ. eigenvalues --   -0.40921  -0.40873  -0.40376  -0.40283  -0.40101
 Alpha  occ. eigenvalues --   -0.39961  -0.39873  -0.39860  -0.39826  -0.39552
 Alpha  occ. eigenvalues --   -0.39217  -0.39009  -0.38778  -0.38637  -0.38477
 Alpha  occ. eigenvalues --   -0.38385  -0.38313  -0.38079  -0.37955  -0.37692
 Alpha  occ. eigenvalues --   -0.37460  -0.37254  -0.37152  -0.37057  -0.37001
 Alpha  occ. eigenvalues --   -0.36769  -0.36667  -0.36541  -0.36368  -0.36069
 Alpha  occ. eigenvalues --   -0.35964  -0.35763  -0.35345  -0.35309  -0.35067
 Alpha  occ. eigenvalues --   -0.34918  -0.34682  -0.34523  -0.34071  -0.34030
 Alpha  occ. eigenvalues --   -0.33415  -0.33053  -0.32867  -0.32570  -0.32082
 Alpha  occ. eigenvalues --   -0.31887  -0.31735  -0.31478  -0.31010  -0.30588
 Alpha  occ. eigenvalues --   -0.30300  -0.30114  -0.29950  -0.29629  -0.29203
 Alpha  occ. eigenvalues --   -0.28835  -0.28692  -0.28247  -0.26438  -0.26146
 Alpha  occ. eigenvalues --   -0.25415  -0.25240  -0.25017  -0.24656  -0.20685
 Alpha  occ. eigenvalues --   -0.18594
 Alpha virt. eigenvalues --   -0.10943  -0.04992  -0.03691  -0.01859  -0.00236
 Alpha virt. eigenvalues --   -0.00138   0.00835   0.01419   0.01627   0.03943
 Alpha virt. eigenvalues --    0.04095   0.04497   0.04986   0.05578   0.05837

 Mulliken charges:
               1
     1  Mg   1.006759
     2  C   -0.035654
     3  C   -0.062046
     4  C   -0.077860
     5  C   -0.082001
     6  N   -0.361397
     7  C    0.055831
     8  C   -0.095949
     9  C   -0.100352
    10  C    0.023684
    11  C    0.033509
    12  C    0.019638
    13  C   -0.006930
    14  C    0.181627
    15  O   -0.259412
    16  O   -0.340595
    17  N   -0.583837
    18  C    0.197849
    19  C   -0.182386
    20  C   -0.070862
    21  C    0.195182
    22  C    0.033081
    23  C    0.010637
    24  O   -0.254689
    25  C    0.014670
    26  N   -0.413782
    27  C    0.086296
    28  C   -0.107350
    29  C   -0.045635
    30  C    0.026933
    31  C    0.007305
    32  C   -0.037399
    33  C   -0.094267
    34  N   -0.484460
    35  C    0.160649
    36  C   -0.132192
    37  C   -0.054375
    38  C    0.180636
    39  C    0.075736
    40  C    0.158564
    41  O   -0.239774
    42  C   -0.141310
    43  C    0.281549
    44  O   -0.227188
    45  O   -0.388400
    46  C    0.109471
    47  C    0.244271
    48  C   -0.121207
    49  C   -0.177129
    50  C    0.023575
    51  C   -0.017144
    52  C   -0.040923
    53  C   -0.056013
    54  C   -0.265533
    55  C    0.038531
    56  C    0.012473
    57  C   -0.054936
    58  C   -0.063308
    59  C   -0.215187
    60  C   -0.003619
    61  C    0.054228
    62  C   -0.014022
    63  C   -0.042377
    64  C   -0.294280
    65  C    0.001572
    66  C   -0.006741
    67  H   -0.003140
    68  H    0.026179
    69  H   -0.001402
    70  H    0.087085
    71  H    0.038605
    72  H    0.066531
    73  H    0.046632
    74  H    0.042359
    75  H    0.033075
    76  H    0.054475
    77  H    0.057360
    78  H    0.065358
    79  H    0.061902
    80  H    0.061638
    81  H    0.036482
    82  H    0.058013
    83  H    0.055372
    84  H    0.056020
    85  H    0.045094
    86  H    0.046493
    87  H    0.038113
    88  H    0.052192
    89  H    0.060265
    90  H    0.045178
    91  H    0.043557
    92  H    0.040544
    93  H    0.049449
    94  H    0.046312
    95  H    0.039798
    96  H    0.063002
    97  H    0.053171
    98  H    0.072319
    99  H    0.068755
   100  H    0.052067
   101  H    0.074987
   102  H    0.050169
   103  H    0.030443
   104  H    0.021640
   105  H    0.044146
   106  H    0.045641
   107  H    0.042730
   108  H    0.063567
   109  H    0.023420
   110  H    0.034053
   111  H    0.039668
   112  H    0.030957
   113  H    0.027204
   114  H    0.029926
   115  H    0.035149
   116  H    0.035154
   117  H    0.042206
   118  H    0.030722
   119  H    0.017881
   120  H    0.035187
   121  H    0.042481
   122  H    0.017486
   123  H    0.021630
   124  H    0.031758
   125  H    0.022754
   126  H    0.023385
   127  H    0.033360
   128  H    0.026534
   129  H    0.017452
   130  H    0.025505
   131  H    0.032402
   132  H    0.027674
   133  H    0.021105
   134  H    0.046794
   135  H    0.048369
   136  H    0.031485
   137  H    0.033070
   138  H    0.032189
   139  H    0.029167
   140  H    0.039959
 Sum of Mulliken charges =  -0.00000

 Dipole moment (field-independent basis, Debye):
    X=             -4.4304    Y=              3.5841    Z=              0.6367  Tot=              5.7340
 Quadrupole moment (field-independent basis, Debye-Ang):
   XX=           -363.4332   YY=           -427.6535   ZZ=           -402.3754
   XY=              4.6984   XZ=             -1.0916   YZ=             -6.0884

 Normal termination of Gaussian 16 at Wed May  4 11:18:15 2022.
