 Gaussian 16, Revision A.03,
 Gaussian 16:  ES64L-G16RevA.03 25-Dec-2016

 --------------------------------
 #p wB97XD/Def2SVP td=(nstates=5)
 --------------------------------

 ----------------------------------------------------
 step_1651_chromophore_4 TDDFT with wB97XD functional
 ----------------------------------------------------
 Symbolic Z-matrix:
 Charge =  0 Multiplicity = 1

                         Standard orientation:
 ---------------------------------------------------------------------
 Center     Atomic      Atomic             Coordinates (Angstroms)
 Number     Number       Type             X           Y           Z
 ---------------------------------------------------------------------
      1         12           0        5.897647    0.729348    0.356679
      2          6           0        3.930563   -2.164122    0.450055
      3          6           0        2.967308    2.393799   -0.692096
      4          6           0        7.759377    3.273915   -0.048028
      5          6           0        8.719233   -1.428823    0.272351
      6          7           0        3.768382    0.171886   -0.223815
      7          6           0        3.154423   -1.042778    0.066821
      8          6           0        1.582822   -0.930130   -0.242385
      9          6           0        1.438000    0.431672   -0.961571
     10          6           0        2.796157    1.051599   -0.628363
     11          6           0        1.299046    0.412715   -2.534005
     12          6           0        0.789543   -1.213118    1.096150
     13          6           0       -0.484892   -2.044311    1.086285
     14          6           0       -1.175847   -2.287215   -0.208285
     15          8           0       -0.875349   -3.143672   -1.003444
     16          8           0       -2.194652   -1.413929   -0.323373
     17          7           0        5.392395    2.529055   -0.196145
     18          6           0        4.134805    3.127947   -0.427847
     19          6           0        4.384908    4.570654   -0.564973
     20          6           0        5.808810    4.852211   -0.274714
     21          6           0        6.391094    3.501653   -0.159887
     22          6           0        3.204969    5.606374   -0.830106
     23          6           0        6.456980    6.170343   -0.098068
     24          8           0        7.658326    6.301967    0.117309
     25          6           0        5.677219    7.421795   -0.152512
     26          7           0        7.922207    0.927225    0.121460
     27          6           0        8.506977    2.087702   -0.017784
     28          6           0       10.043996    2.001662   -0.358922
     29          6           0       10.269862    0.516496   -0.111338
     30          6           0        8.923987   -0.058695    0.162144
     31          6           0       10.414615    2.590232   -1.776197
     32          6           0       11.395025    0.122645    0.841515
     33          6           0       10.984174   -0.054655    2.369568
     34          7           0        6.327151   -1.309227    0.541001
     35          6           0        7.502736   -2.064197    0.446696
     36          6           0        7.286752   -3.458131    0.768566
     37          6           0        5.877144   -3.480396    0.858823
     38          6           0        5.313090   -2.185889    0.643125
     39          6           0        8.223108   -4.604428    0.745244
     40          6           0        4.825463   -4.425544    1.019951
     41          8           0        4.870955   -5.663477    1.113894
     42          6           0        3.460877   -3.547846    0.806351
     43          6           0        2.584504   -4.123448   -0.209448
     44          8           0        2.796835   -4.020344   -1.381216
     45          8           0        1.626313   -4.888759    0.449946
     46          6           0        0.941527   -5.799627   -0.494190
     47          6           0       -3.115417   -1.552411   -1.421617
     48          6           0       -4.479974   -1.222309   -1.018409
     49          6           0       -5.459816   -2.137803   -0.880493
     50          6           0       -5.370428   -3.630666   -1.062960
     51          6           0       -6.844623   -1.750390   -0.359257
     52          6           0       -7.713297   -0.714365   -1.038212
     53          6           0       -8.010806    0.426076    0.046653
     54          6           0       -9.575527    0.765474    0.349018
     55          6           0      -10.030006    1.877799   -0.501620
     56          6           0       -9.839582    0.993988    1.865252
     57          6           0      -11.264439    0.742282    2.248483
     58          6           0      -12.100917    2.004890    2.631398
     59          6           0      -13.596799    1.970936    2.229494
     60          6           0      -14.337306    2.712510    3.349195
     61          6           0      -13.910592    2.477984    0.818171
     62          6           0      -14.756837    1.615235   -0.092670
     63          6           0      -14.044985    1.199754   -1.403718
     64          6           0      -13.576482   -0.333431   -1.432498
     65          6           0      -12.573727   -0.526634   -2.595284
     66          6           0      -14.808262   -1.204980   -1.628010
     67          1           0        2.042600    2.947605   -0.864736
     68          1           0        8.346818    4.194340   -0.072918
     69          1           0        9.676120   -1.945024    0.171946
     70          1           0        1.302667   -1.706405   -0.953961
     71          1           0        0.767708    1.121822   -0.449197
     72          1           0        1.258316   -0.609867   -2.908906
     73          1           0        2.193794    0.849622   -2.979036
     74          1           0        0.575403    1.118383   -2.941149
     75          1           0        0.427333   -0.257649    1.476097
     76          1           0        1.303668   -1.676410    1.937620
     77          1           0       -1.252858   -1.547234    1.679211
     78          1           0       -0.217424   -3.041867    1.436320
     79          1           0        3.415209    6.353208   -1.595682
     80          1           0        2.996398    6.074742    0.131798
     81          1           0        2.294362    5.060154   -1.073828
     82          1           0        4.844029    7.255310    0.529731
     83          1           0        5.363092    7.491190   -1.194125
     84          1           0        6.322783    8.281621    0.024146
     85          1           0       10.685190    2.595772    0.293017
     86          1           0       10.546101    0.119773   -1.088372
     87          1           0       11.051326    1.851041   -2.260945
     88          1           0       10.964834    3.519134   -1.629012
     89          1           0        9.532892    2.769680   -2.392614
     90          1           0       12.194246    0.861286    0.895131
     91          1           0       11.801934   -0.843279    0.540926
     92          1           0       11.042240   -1.059524    2.786763
     93          1           0        9.909572    0.121796    2.416364
     94          1           0       11.476290    0.629380    3.060883
     95          1           0        9.171667   -4.226389    0.362983
     96          1           0        7.805340   -5.448435    0.196022
     97          1           0        8.367048   -5.115252    1.697466
     98          1           0        2.906266   -3.352903    1.724392
     99          1           0       -0.007387   -5.313721   -0.723331
    100          1           0        0.788828   -6.614661    0.213458
    101          1           0        1.517650   -6.065556   -1.380119
    102          1           0       -2.980103   -2.460575   -2.010118
    103          1           0       -2.872042   -0.829881   -2.201208
    104          1           0       -4.750087   -0.194974   -0.774886
    105          1           0       -5.597113   -4.169345   -0.142891
    106          1           0       -4.392632   -3.954226   -1.420095
    107          1           0       -6.203627   -4.040866   -1.633039
    108          1           0       -6.656648   -1.531645    0.691572
    109          1           0       -7.553403   -2.578109   -0.391136
    110          1           0       -8.700005   -1.093914   -1.303719
    111          1           0       -7.301844   -0.252178   -1.935571
    112          1           0       -7.456677    1.265425   -0.374198
    113          1           0       -7.632704    0.139142    1.027957
    114          1           0       -9.975380   -0.225409    0.131530
    115          1           0      -10.519407    1.368109   -1.331089
    116          1           0       -9.215087    2.483887   -0.896548
    117          1           0      -10.735164    2.525578    0.020136
    118          1           0       -9.562460    2.030888    2.054767
    119          1           0       -9.245761    0.314107    2.476012
    120          1           0      -11.347903    0.112005    3.133856
    121          1           0      -11.780075    0.303566    1.393808
    122          1           0      -11.626147    2.946009    2.354254
    123          1           0      -11.950695    2.012228    3.710911
    124          1           0      -13.716665    0.899943    2.390912
    125          1           0      -14.954798    3.500454    2.916916
    126          1           0      -13.700442    3.244444    4.055552
    127          1           0      -14.888533    2.099979    4.063358
    128          1           0      -13.006298    2.786209    0.293135
    129          1           0      -14.492472    3.380825    1.001136
    130          1           0      -15.688793    2.144474   -0.290006
    131          1           0      -15.079595    0.728334    0.453345
    132          1           0      -13.128863    1.729791   -1.664101
    133          1           0      -14.678106    1.384057   -2.272051
    134          1           0      -13.077961   -0.566576   -0.491093
    135          1           0      -11.589232   -0.769564   -2.195840
    136          1           0      -12.490269    0.419676   -3.130240
    137          1           0      -13.056382   -1.279020   -3.217980
    138          1           0      -15.349522   -0.945386   -2.539086
    139          1           0      -15.518319   -1.027659   -0.820241
    140          1           0      -14.516148   -2.254528   -1.638005
 ---------------------------------------------------------------------

 SCF Done:  E(RwB97XD) =  -3007.84465950     A.U. after   19 cycles

 Excitation energies and oscillator strengths:

 Excited State   1:      Singlet-A      1.6571 eV  748.20 nm  f=0.3906  <S**2>=0.000
     245 -> 248       -0.18712
     246 -> 247        0.68123
     245 <- 248       -0.11655
 This state for optimization and/or second-order correction.
 Total Energy, E(TD-HF/TD-DFT) =  -3007.78376201
 Copying the excited state density for this state as the 1-particle RhoCI density.

 Excited State   2:      Singlet-A      2.1681 eV  571.86 nm  f=0.1094  <S**2>=0.000
     245 -> 247        0.63826
     246 -> 248        0.28531

 Excited State   3:      Singlet-A      3.3363 eV  371.62 nm  f=0.0019  <S**2>=0.000
     242 -> 247        0.12923
     242 -> 249        0.11361
     243 -> 247       -0.25303
     244 -> 247        0.59722
     244 -> 249        0.10235

 Excited State   4:      Singlet-A      3.4370 eV  360.73 nm  f=0.0658  <S**2>=0.000
     241 -> 249        0.10510
     242 -> 247        0.20327
     242 -> 249        0.11914
     243 -> 247        0.53273
     246 -> 248       -0.29760

 Excited State   5:      Singlet-A      3.5055 eV  353.68 nm  f=0.0692  <S**2>=0.000
     241 -> 247        0.50848
     241 -> 248       -0.11967
     241 -> 249       -0.23812
     241 -> 250       -0.18527
     242 -> 247        0.15022
     242 -> 249        0.11448
     246 -> 248       -0.19754

 The electronic state is 1-A.
 Alpha  occ. eigenvalues --  -46.93468 -19.30618 -19.28712 -19.24884 -19.23949
 Alpha  occ. eigenvalues --  -19.23364 -19.23105 -14.46417 -14.46285 -14.44031
 Alpha  occ. eigenvalues --  -14.43317 -10.42794 -10.41338 -10.38406 -10.38305
 Alpha  occ. eigenvalues --  -10.35466 -10.35323 -10.34731 -10.34723 -10.34619
 Alpha  occ. eigenvalues --  -10.34175 -10.34121 -10.33985 -10.33183 -10.32943
 Alpha  occ. eigenvalues --  -10.32811 -10.32385 -10.32250 -10.31925 -10.31793
 Alpha  occ. eigenvalues --  -10.31729 -10.31719 -10.31664 -10.31563 -10.31445
 Alpha  occ. eigenvalues --  -10.30835 -10.30823 -10.30620 -10.30432 -10.30319
 Alpha  occ. eigenvalues --  -10.30244 -10.30071 -10.29953 -10.29862 -10.29818
 Alpha  occ. eigenvalues --  -10.29814 -10.29772 -10.29690 -10.29688 -10.29656
 Alpha  occ. eigenvalues --  -10.29563 -10.29495 -10.29449 -10.29172 -10.28927
 Alpha  occ. eigenvalues --  -10.28787 -10.28769 -10.28594 -10.28580 -10.28559
 Alpha  occ. eigenvalues --  -10.28424 -10.28370 -10.28336 -10.28321 -10.28274
 Alpha  occ. eigenvalues --  -10.28001  -3.19797  -1.93346  -1.92981  -1.92761
 Alpha  occ. eigenvalues --   -1.19938  -1.17104  -1.11787  -1.11339  -1.10028
 Alpha  occ. eigenvalues --   -1.09724  -1.06542  -1.04994  -1.04273  -1.02923
 Alpha  occ. eigenvalues --   -0.94041  -0.92958  -0.92139  -0.91666  -0.91309
 Alpha  occ. eigenvalues --   -0.90765  -0.90034  -0.89561  -0.89119  -0.88484
 Alpha  occ. eigenvalues --   -0.88155  -0.87968  -0.86861  -0.85465  -0.84882
 Alpha  occ. eigenvalues --   -0.84701  -0.83777  -0.83643  -0.82675  -0.82471
 Alpha  occ. eigenvalues --   -0.81564  -0.80257  -0.79930  -0.78924  -0.77610
 Alpha  occ. eigenvalues --   -0.77455  -0.77190  -0.76885  -0.76358  -0.76328
 Alpha  occ. eigenvalues --   -0.75791  -0.74725  -0.73481  -0.72581  -0.71961
 Alpha  occ. eigenvalues --   -0.70674  -0.70322  -0.69370  -0.69073  -0.67754
 Alpha  occ. eigenvalues --   -0.67122  -0.66730  -0.66204  -0.66150  -0.65915
 Alpha  occ. eigenvalues --   -0.65394  -0.64749  -0.64639  -0.62479  -0.62252
 Alpha  occ. eigenvalues --   -0.61915  -0.61175  -0.61001  -0.59935  -0.59490
 Alpha  occ. eigenvalues --   -0.58990  -0.58791  -0.58151  -0.57714  -0.57515
 Alpha  occ. eigenvalues --   -0.57368  -0.56866  -0.56677  -0.56473  -0.56307
 Alpha  occ. eigenvalues --   -0.55831  -0.55421  -0.55263  -0.55006  -0.54735
 Alpha  occ. eigenvalues --   -0.54252  -0.54171  -0.53970  -0.53733  -0.53707
 Alpha  occ. eigenvalues --   -0.53613  -0.53257  -0.52969  -0.52583  -0.52225
 Alpha  occ. eigenvalues --   -0.52203  -0.51965  -0.51761  -0.51523  -0.51214
 Alpha  occ. eigenvalues --   -0.50975  -0.50958  -0.50826  -0.50741  -0.50605
 Alpha  occ. eigenvalues --   -0.50437  -0.50218  -0.50085  -0.50036  -0.49820
 Alpha  occ. eigenvalues --   -0.49152  -0.49089  -0.48743  -0.48586  -0.48284
 Alpha  occ. eigenvalues --   -0.48121  -0.48064  -0.47635  -0.47481  -0.47301
 Alpha  occ. eigenvalues --   -0.47146  -0.47065  -0.46999  -0.46945  -0.46674
 Alpha  occ. eigenvalues --   -0.46401  -0.46143  -0.46001  -0.45811  -0.45651
 Alpha  occ. eigenvalues --   -0.45509  -0.45424  -0.45159  -0.45079  -0.44812
 Alpha  occ. eigenvalues --   -0.44582  -0.44403  -0.44273  -0.44160  -0.44121
 Alpha  occ. eigenvalues --   -0.43873  -0.43771  -0.43609  -0.43554  -0.43182
 Alpha  occ. eigenvalues --   -0.43012  -0.42873  -0.42432  -0.42344  -0.42044
 Alpha  occ. eigenvalues --   -0.41977  -0.41722  -0.41528  -0.41138  -0.41018
 Alpha  occ. eigenvalues --   -0.40365  -0.40082  -0.39894  -0.39456  -0.39109
 Alpha  occ. eigenvalues --   -0.38951  -0.38619  -0.38482  -0.37999  -0.37575
 Alpha  occ. eigenvalues --   -0.37307  -0.37145  -0.36875  -0.36445  -0.36197
 Alpha  occ. eigenvalues --   -0.35691  -0.35529  -0.35166  -0.33008  -0.32862
 Alpha  occ. eigenvalues --   -0.32457  -0.32068  -0.32010  -0.31115  -0.25694
 Alpha  occ. eigenvalues --   -0.22754
 Alpha virt. eigenvalues --   -0.06802   0.00452   0.02549   0.04598   0.05661
 Alpha virt. eigenvalues --    0.06520   0.07617   0.08201   0.08434   0.10330
 Alpha virt. eigenvalues --    0.10651   0.11213   0.11782   0.12275   0.12562

 Mulliken charges:
               1
     1  Mg   0.993509
     2  C   -0.033526
     3  C   -0.080346
     4  C   -0.094331
     5  C   -0.100704
     6  N   -0.330019
     7  C    0.020754
     8  C   -0.066105
     9  C   -0.075746
    10  C    0.017977
    11  C    0.040397
    12  C    0.024586
    13  C    0.014748
    14  C    0.164523
    15  O   -0.253625
    16  O   -0.338515
    17  N   -0.555063
    18  C    0.191789
    19  C   -0.177656
    20  C   -0.064364
    21  C    0.191371
    22  C    0.048707
    23  C    0.010062
    24  O   -0.248245
    25  C    0.028838
    26  N   -0.377970
    27  C    0.072613
    28  C   -0.089881
    29  C   -0.018430
    30  C    0.018282
    31  C    0.018560
    32  C   -0.024565
    33  C   -0.075864
    34  N   -0.446686
    35  C    0.155421
    36  C   -0.134392
    37  C   -0.048092
    38  C    0.163084
    39  C    0.087548
    40  C    0.140644
    41  O   -0.231183
    42  C   -0.098982
    43  C    0.253905
    44  O   -0.220744
    45  O   -0.385236
    46  C    0.125990
    47  C    0.256755
    48  C   -0.130565
    49  C   -0.164273
    50  C    0.037858
    51  C    0.001704
    52  C   -0.024929
    53  C   -0.039671
    54  C   -0.227834
    55  C    0.060858
    56  C    0.025794
    57  C   -0.021415
    58  C   -0.052604
    59  C   -0.181616
    60  C    0.008779
    61  C    0.073352
    62  C    0.001385
    63  C   -0.020914
    64  C   -0.258740
    65  C    0.015310
    66  C    0.005784
    67  H   -0.009912
    68  H    0.021601
    69  H   -0.008834
    70  H    0.067776
    71  H    0.029199
    72  H    0.063426
    73  H    0.039505
    74  H    0.037676
    75  H    0.025191
    76  H    0.046904
    77  H    0.052357
    78  H    0.057234
    79  H    0.057664
    80  H    0.056189
    81  H    0.032559
    82  H    0.050931
    83  H    0.048874
    84  H    0.056084
    85  H    0.035873
    86  H    0.033661
    87  H    0.032203
    88  H    0.047425
    89  H    0.053946
    90  H    0.037705
    91  H    0.036625
    92  H    0.035196
    93  H    0.036804
    94  H    0.041368
    95  H    0.033120
    96  H    0.058561
    97  H    0.048229
    98  H    0.061456
    99  H    0.062373
   100  H    0.048700
   101  H    0.071452
   102  H    0.045113
   103  H    0.025792
   104  H    0.018955
   105  H    0.038089
   106  H    0.040050
   107  H    0.036789
   108  H    0.054235
   109  H    0.016852
   110  H    0.023453
   111  H    0.032951
   112  H    0.021389
   113  H    0.014351
   114  H    0.011506
   115  H    0.020769
   116  H    0.030497
   117  H    0.028815
   118  H    0.020457
   119  H    0.011014
   120  H    0.028620
   121  H    0.014673
   122  H    0.007262
   123  H    0.012314
   124  H    0.017623
   125  H    0.016083
   126  H    0.016560
   127  H    0.028655
   128  H    0.010819
   129  H    0.008670
   130  H    0.019927
   131  H    0.019551
   132  H    0.012047
   133  H    0.012501
   134  H    0.031158
   135  H    0.040766
   136  H    0.025371
   137  H    0.027694
   138  H    0.025088
   139  H    0.022212
   140  H    0.034150
 Sum of Mulliken charges =  -0.00000

 Dipole moment (field-independent basis, Debye):
    X=             -4.5702    Y=              4.0946    Z=              0.6231  Tot=              6.1677
 Quadrupole moment (field-independent basis, Debye-Ang):
   XX=           -365.6066   YY=           -425.1743   ZZ=           -401.9618
   XY=              7.5776   XZ=             -1.0913   YZ=             -6.0479

 Normal termination of Gaussian 16 at Wed May  4 11:46:15 2022.
