 Gaussian 16, Revision A.03,
 Gaussian 16:  ES64L-G16RevA.03 25-Dec-2016

 --------------------
 #p ZINDO=(nstates=5)
 --------------------

 -----------------------------
 step_1651_chromophore_4 ZINDO
 -----------------------------
 Symbolic Z-matrix:
 Charge =  0 Multiplicity = 1

                         Standard orientation:
 ---------------------------------------------------------------------
 Center     Atomic      Atomic             Coordinates (Angstroms)
 Number     Number       Type             X           Y           Z
 ---------------------------------------------------------------------
      1         12           0        5.897647    0.729348    0.356679
      2          6           0        3.930563   -2.164122    0.450055
      3          6           0        2.967308    2.393799   -0.692096
      4          6           0        7.759377    3.273915   -0.048028
      5          6           0        8.719233   -1.428823    0.272351
      6          7           0        3.768382    0.171886   -0.223815
      7          6           0        3.154423   -1.042778    0.066821
      8          6           0        1.582822   -0.930130   -0.242385
      9          6           0        1.438000    0.431672   -0.961571
     10          6           0        2.796157    1.051599   -0.628363
     11          6           0        1.299046    0.412715   -2.534005
     12          6           0        0.789543   -1.213118    1.096150
     13          6           0       -0.484892   -2.044311    1.086285
     14          6           0       -1.175847   -2.287215   -0.208285
     15          8           0       -0.875349   -3.143672   -1.003444
     16          8           0       -2.194652   -1.413929   -0.323373
     17          7           0        5.392395    2.529055   -0.196145
     18          6           0        4.134805    3.127947   -0.427847
     19          6           0        4.384908    4.570654   -0.564973
     20          6           0        5.808810    4.852211   -0.274714
     21          6           0        6.391094    3.501653   -0.159887
     22          6           0        3.204969    5.606374   -0.830106
     23          6           0        6.456980    6.170343   -0.098068
     24          8           0        7.658326    6.301967    0.117309
     25          6           0        5.677219    7.421795   -0.152512
     26          7           0        7.922207    0.927225    0.121460
     27          6           0        8.506977    2.087702   -0.017784
     28          6           0       10.043996    2.001662   -0.358922
     29          6           0       10.269862    0.516496   -0.111338
     30          6           0        8.923987   -0.058695    0.162144
     31          6           0       10.414615    2.590232   -1.776197
     32          6           0       11.395025    0.122645    0.841515
     33          6           0       10.984174   -0.054655    2.369568
     34          7           0        6.327151   -1.309227    0.541001
     35          6           0        7.502736   -2.064197    0.446696
     36          6           0        7.286752   -3.458131    0.768566
     37          6           0        5.877144   -3.480396    0.858823
     38          6           0        5.313090   -2.185889    0.643125
     39          6           0        8.223108   -4.604428    0.745244
     40          6           0        4.825463   -4.425544    1.019951
     41          8           0        4.870955   -5.663477    1.113894
     42          6           0        3.460877   -3.547846    0.806351
     43          6           0        2.584504   -4.123448   -0.209448
     44          8           0        2.796835   -4.020344   -1.381216
     45          8           0        1.626313   -4.888759    0.449946
     46          6           0        0.941527   -5.799627   -0.494190
     47          6           0       -3.115417   -1.552411   -1.421617
     48          6           0       -4.479974   -1.222309   -1.018409
     49          6           0       -5.459816   -2.137803   -0.880493
     50          6           0       -5.370428   -3.630666   -1.062960
     51          6           0       -6.844623   -1.750390   -0.359257
     52          6           0       -7.713297   -0.714365   -1.038212
     53          6           0       -8.010806    0.426076    0.046653
     54          6           0       -9.575527    0.765474    0.349018
     55          6           0      -10.030006    1.877799   -0.501620
     56          6           0       -9.839582    0.993988    1.865252
     57          6           0      -11.264439    0.742282    2.248483
     58          6           0      -12.100917    2.004890    2.631398
     59          6           0      -13.596799    1.970936    2.229494
     60          6           0      -14.337306    2.712510    3.349195
     61          6           0      -13.910592    2.477984    0.818171
     62          6           0      -14.756837    1.615235   -0.092670
     63          6           0      -14.044985    1.199754   -1.403718
     64          6           0      -13.576482   -0.333431   -1.432498
     65          6           0      -12.573727   -0.526634   -2.595284
     66          6           0      -14.808262   -1.204980   -1.628010
     67          1           0        2.042600    2.947605   -0.864736
     68          1           0        8.346818    4.194340   -0.072918
     69          1           0        9.676120   -1.945024    0.171946
     70          1           0        1.302667   -1.706405   -0.953961
     71          1           0        0.767708    1.121822   -0.449197
     72          1           0        1.258316   -0.609867   -2.908906
     73          1           0        2.193794    0.849622   -2.979036
     74          1           0        0.575403    1.118383   -2.941149
     75          1           0        0.427333   -0.257649    1.476097
     76          1           0        1.303668   -1.676410    1.937620
     77          1           0       -1.252858   -1.547234    1.679211
     78          1           0       -0.217424   -3.041867    1.436320
     79          1           0        3.415209    6.353208   -1.595682
     80          1           0        2.996398    6.074742    0.131798
     81          1           0        2.294362    5.060154   -1.073828
     82          1           0        4.844029    7.255310    0.529731
     83          1           0        5.363092    7.491190   -1.194125
     84          1           0        6.322783    8.281621    0.024146
     85          1           0       10.685190    2.595772    0.293017
     86          1           0       10.546101    0.119773   -1.088372
     87          1           0       11.051326    1.851041   -2.260945
     88          1           0       10.964834    3.519134   -1.629012
     89          1           0        9.532892    2.769680   -2.392614
     90          1           0       12.194246    0.861286    0.895131
     91          1           0       11.801934   -0.843279    0.540926
     92          1           0       11.042240   -1.059524    2.786763
     93          1           0        9.909572    0.121796    2.416364
     94          1           0       11.476290    0.629380    3.060883
     95          1           0        9.171667   -4.226389    0.362983
     96          1           0        7.805340   -5.448435    0.196022
     97          1           0        8.367048   -5.115252    1.697466
     98          1           0        2.906266   -3.352903    1.724392
     99          1           0       -0.007387   -5.313721   -0.723331
    100          1           0        0.788828   -6.614661    0.213458
    101          1           0        1.517650   -6.065556   -1.380119
    102          1           0       -2.980103   -2.460575   -2.010118
    103          1           0       -2.872042   -0.829881   -2.201208
    104          1           0       -4.750087   -0.194974   -0.774886
    105          1           0       -5.597113   -4.169345   -0.142891
    106          1           0       -4.392632   -3.954226   -1.420095
    107          1           0       -6.203627   -4.040866   -1.633039
    108          1           0       -6.656648   -1.531645    0.691572
    109          1           0       -7.553403   -2.578109   -0.391136
    110          1           0       -8.700005   -1.093914   -1.303719
    111          1           0       -7.301844   -0.252178   -1.935571
    112          1           0       -7.456677    1.265425   -0.374198
    113          1           0       -7.632704    0.139142    1.027957
    114          1           0       -9.975380   -0.225409    0.131530
    115          1           0      -10.519407    1.368109   -1.331089
    116          1           0       -9.215087    2.483887   -0.896548
    117          1           0      -10.735164    2.525578    0.020136
    118          1           0       -9.562460    2.030888    2.054767
    119          1           0       -9.245761    0.314107    2.476012
    120          1           0      -11.347903    0.112005    3.133856
    121          1           0      -11.780075    0.303566    1.393808
    122          1           0      -11.626147    2.946009    2.354254
    123          1           0      -11.950695    2.012228    3.710911
    124          1           0      -13.716665    0.899943    2.390912
    125          1           0      -14.954798    3.500454    2.916916
    126          1           0      -13.700442    3.244444    4.055552
    127          1           0      -14.888533    2.099979    4.063358
    128          1           0      -13.006298    2.786209    0.293135
    129          1           0      -14.492472    3.380825    1.001136
    130          1           0      -15.688793    2.144474   -0.290006
    131          1           0      -15.079595    0.728334    0.453345
    132          1           0      -13.128863    1.729791   -1.664101
    133          1           0      -14.678106    1.384057   -2.272051
    134          1           0      -13.077961   -0.566576   -0.491093
    135          1           0      -11.589232   -0.769564   -2.195840
    136          1           0      -12.490269    0.419676   -3.130240
    137          1           0      -13.056382   -1.279020   -3.217980
    138          1           0      -15.349522   -0.945386   -2.539086
    139          1           0      -15.518319   -1.027659   -0.820241
    140          1           0      -14.516148   -2.254528   -1.638005
 ---------------------------------------------------------------------

 SCF Done:  E(RZINDO/S) =  -474.463936533     A.U. after   20 cycles

 Excitation energies and oscillator strengths:

 Excited State   1:      Singlet-A      1.2346 eV 1004.27 nm  f=0.5996  <S**2>=0.000
     175 ->178        -0.19244
     176 ->177         0.66256
 This state for optimization and/or second-order correction.
 Total Energy, E(CIS/TDA) =  -474.418566786
 Copying the excited state density for this state as the 1-particle RhoCI density.

 Excited State   2:      Singlet-A      1.9089 eV  649.49 nm  f=0.0490  <S**2>=0.000
     175 ->177         0.54858
     176 ->178         0.42206

 Excited State   3:      Singlet-A      2.8429 eV  436.12 nm  f=0.0005  <S**2>=0.000
     169 ->177         0.35528
     169 ->178        -0.12667
     169 ->179        -0.35432
     169 ->180        -0.31015
     169 ->186        -0.22790

 Excited State   4:      Singlet-A      2.9466 eV  420.78 nm  f=0.3468  <S**2>=0.000
     170 ->177         0.16998
     170 ->179         0.19550
     170 ->180        -0.15635
     173 ->177        -0.16667
     175 ->177         0.23015
     176 ->178        -0.32183
     176 ->179         0.34662
     176 ->180        -0.13489

 Excited State   5:      Singlet-A      2.9946 eV  414.03 nm  f=0.0642  <S**2>=0.000
     170 ->177        -0.26291
     170 ->179        -0.29865
     170 ->180         0.26106
     170 ->186        -0.11742
     170 ->187        -0.11992
     176 ->178        -0.11405
     176 ->179         0.38109

 The electronic state is 1-A.
 Alpha  occ. eigenvalues --   -1.84041  -1.81217  -1.78973  -1.75667  -1.71747
 Alpha  occ. eigenvalues --   -1.69098  -1.66733  -1.60448  -1.60284  -1.56347
 Alpha  occ. eigenvalues --   -1.56195  -1.53159  -1.49575  -1.48963  -1.47769
 Alpha  occ. eigenvalues --   -1.44403  -1.43709  -1.39785  -1.39131  -1.37808
 Alpha  occ. eigenvalues --   -1.35972  -1.34522  -1.33100  -1.32958  -1.28786
 Alpha  occ. eigenvalues --   -1.28304  -1.24843  -1.23399  -1.21239  -1.18134
 Alpha  occ. eigenvalues --   -1.16818  -1.16405  -1.14650  -1.13968  -1.12819
 Alpha  occ. eigenvalues --   -1.11744  -1.11473  -1.10368  -1.04799  -1.04323
 Alpha  occ. eigenvalues --   -1.02047  -1.00458  -0.99600  -0.98754  -0.98040
 Alpha  occ. eigenvalues --   -0.96290  -0.94717  -0.94512  -0.93815  -0.93160
 Alpha  occ. eigenvalues --   -0.89807  -0.89462  -0.88303  -0.86718  -0.86573
 Alpha  occ. eigenvalues --   -0.85315  -0.85077  -0.82538  -0.80932  -0.80057
 Alpha  occ. eigenvalues --   -0.79798  -0.78432  -0.77958  -0.77207  -0.76797
 Alpha  occ. eigenvalues --   -0.76253  -0.75179  -0.74535  -0.74121  -0.73951
 Alpha  occ. eigenvalues --   -0.73626  -0.72965  -0.71883  -0.71413  -0.70629
 Alpha  occ. eigenvalues --   -0.69868  -0.69160  -0.68549  -0.68132  -0.67774
 Alpha  occ. eigenvalues --   -0.67490  -0.67136  -0.66733  -0.65903  -0.65211
 Alpha  occ. eigenvalues --   -0.65000  -0.63637  -0.63574  -0.63303  -0.63120
 Alpha  occ. eigenvalues --   -0.62722  -0.62345  -0.62225  -0.61767  -0.61396
 Alpha  occ. eigenvalues --   -0.61204  -0.60913  -0.60653  -0.60232  -0.59649
 Alpha  occ. eigenvalues --   -0.59515  -0.59260  -0.58578  -0.58435  -0.57950
 Alpha  occ. eigenvalues --   -0.57828  -0.57213  -0.57190  -0.56361  -0.55981
 Alpha  occ. eigenvalues --   -0.55797  -0.55350  -0.54894  -0.54559  -0.54322
 Alpha  occ. eigenvalues --   -0.53987  -0.53715  -0.53148  -0.52819  -0.52539
 Alpha  occ. eigenvalues --   -0.52049  -0.51879  -0.51830  -0.51625  -0.51293
 Alpha  occ. eigenvalues --   -0.51102  -0.50866  -0.50615  -0.50276  -0.50229
 Alpha  occ. eigenvalues --   -0.50025  -0.49614  -0.49409  -0.49159  -0.48882
 Alpha  occ. eigenvalues --   -0.48641  -0.48266  -0.48143  -0.47692  -0.47432
 Alpha  occ. eigenvalues --   -0.47038  -0.46848  -0.46817  -0.46591  -0.46265
 Alpha  occ. eigenvalues --   -0.46130  -0.45541  -0.45417  -0.45282  -0.45176
 Alpha  occ. eigenvalues --   -0.44768  -0.44495  -0.43955  -0.43818  -0.43421
 Alpha  occ. eigenvalues --   -0.43298  -0.43015  -0.42784  -0.42097  -0.41611
 Alpha  occ. eigenvalues --   -0.41403  -0.40826  -0.40642  -0.38758  -0.38346
 Alpha  occ. eigenvalues --   -0.37467  -0.36965  -0.34804  -0.34714  -0.34229
 Alpha  occ. eigenvalues --   -0.33022  -0.32780  -0.31849  -0.31721  -0.26300
 Alpha  occ. eigenvalues --   -0.21492
 Alpha virt. eigenvalues --   -0.08309  -0.01797  -0.00379   0.01461   0.02195
 Alpha virt. eigenvalues --    0.02486   0.02978   0.03604   0.04465   0.05375
 Alpha virt. eigenvalues --    0.06597   0.07245   0.07535   0.08311   0.08800

 Mulliken charges:
               1
     1  Mg   0.429584
     2  C   -0.027271
     3  C   -0.076257
     4  C   -0.067353
     5  C   -0.054987
     6  N   -0.301166
     7  C    0.098258
     8  C    0.015452
     9  C    0.006076
    10  C    0.158398
    11  C   -0.048810
    12  C   -0.020655
    13  C    0.001695
    14  C    0.475982
    15  O   -0.522319
    16  O   -0.265464
    17  N   -0.337993
    18  C    0.113705
    19  C   -0.006874
    20  C   -0.049277
    21  C    0.147892
    22  C   -0.048575
    23  C    0.334939
    24  O   -0.539763
    25  C   -0.028830
    26  N   -0.251168
    27  C    0.160491
    28  C   -0.000479
    29  C    0.015965
    30  C    0.094342
    31  C   -0.050894
    32  C   -0.025522
    33  C   -0.069221
    34  N   -0.328737
    35  C    0.086846
    36  C    0.028572
    37  C   -0.055281
    38  C    0.120592
    39  C   -0.033237
    40  C    0.321181
    41  O   -0.529500
    42  C    0.046564
    43  C    0.493449
    44  O   -0.506704
    45  O   -0.280817
    46  C    0.066144
    47  C    0.109536
    48  C   -0.085942
    49  C    0.001222
    50  C   -0.045002
    51  C   -0.025266
    52  C   -0.033511
    53  C   -0.063740
    54  C   -0.015899
    55  C   -0.047670
    56  C   -0.029335
    57  C   -0.038883
    58  C   -0.044728
    59  C   -0.007387
    60  C   -0.060420
    61  C   -0.025875
    62  C   -0.029239
    63  C   -0.040681
    64  C   -0.019259
    65  C   -0.064886
    66  C   -0.051222
    67  H    0.020135
    68  H    0.043200
    69  H    0.027206
    70  H    0.049365
    71  H    0.032945
    72  H    0.040767
    73  H    0.019463
    74  H    0.026680
    75  H    0.013754
    76  H    0.032065
    77  H    0.033388
    78  H    0.043839
    79  H    0.035746
    80  H    0.029196
    81  H    0.022619
    82  H    0.041769
    83  H    0.037184
    84  H    0.043717
    85  H    0.031365
    86  H    0.022563
    87  H    0.020731
    88  H    0.025986
    89  H    0.029334
    90  H    0.021482
    91  H    0.020273
    92  H    0.021620
    93  H    0.017199
    94  H    0.021940
    95  H    0.023276
    96  H    0.041869
    97  H    0.036035
    98  H    0.046193
    99  H    0.049792
   100  H    0.029826
   101  H    0.061833
   102  H    0.056395
   103  H    0.024184
   104  H    0.034518
   105  H    0.025867
   106  H    0.027099
   107  H    0.028414
   108  H    0.030305
   109  H    0.012311
   110  H    0.019572
   111  H    0.023585
   112  H    0.017642
   113  H    0.020785
   114  H    0.020917
   115  H    0.015937
   116  H    0.022561
   117  H    0.020915
   118  H    0.019784
   119  H    0.014789
   120  H    0.019529
   121  H    0.017632
   122  H    0.015057
   123  H    0.008066
   124  H    0.023768
   125  H    0.015880
   126  H    0.012814
   127  H    0.018992
   128  H    0.022652
   129  H    0.014920
   130  H    0.016058
   131  H    0.019851
   132  H    0.018066
   133  H    0.015996
   134  H    0.023237
   135  H    0.023235
   136  H    0.019761
   137  H    0.026490
   138  H    0.020435
   139  H    0.011653
   140  H    0.015183
 Sum of Mulliken charges =  -0.00000

 Dipole moment (field-independent basis, Debye):
    X=             -5.9399    Y=              6.8423    Z=              1.5198  Tot=              9.1875
 N-N= 4.303125496639D+03 E-N= 0.000000000000D+00  KE=-9.281370107603D+03
 Leave Link  601 at Wed May  4 12:00:10 2022, MaxMem=  6710886400 cpu:               0.8 elap:               0.0
 (Enter /sw/apps/gaussian-16.0/g16/l9999.exe)
 1\1\GINC-BP1-COMPUTE098\SP\RZINDO CIS\STO-3G\C55H74Mg1N4O6\OF15641\04-
 May-2022\0\\#p ZINDO=(nstates=5)\\step_1651_chromophore_4 ZINDO\\0,1\M
 g,0,9.306,3.516,28.318\C,0,10.947,1.944,30.98\C,0,7.611,5.385,30.786\C
 ,0,7.585,4.696,25.92\C,0,10.297,0.744,26.328\N,0,9.154,3.547,30.589\C,
 0,10.052,2.933,31.457\C,0,9.767,3.433,32.956\C,0,8.445,4.228,32.842\C,
 0,8.372,4.402,31.324\C,0,7.119,3.504,33.3\C,0,11.074,4.134,33.505\C,0,
 11.531,3.917,34.94\C,0,10.572,3.344,35.922\O,0,10.336,2.168,36.054\O,0

 Normal termination of Gaussian 16 at Wed May  4 12:00:10 2022.
