 Gaussian 16, Revision A.03,
 Gaussian 16:  ES64L-G16RevA.03 25-Dec-2016

 ------------------------------
 #p blyp/Def2SVP td=(nstates=5)
 ------------------------------

 --------------------------------------------------
 step_1051_chromophore_2 TDDFT with blyp functional
 --------------------------------------------------
 Symbolic Z-matrix:
 Charge =  0 Multiplicity = 1

                         Standard orientation:
 ---------------------------------------------------------------------
 Center     Atomic      Atomic             Coordinates (Angstroms)
 Number     Number       Type             X           Y           Z
 ---------------------------------------------------------------------
      1         12           0       -4.485398    1.156453    0.510386
      2          6           0       -5.015053   -2.398680    0.242076
      3          6           0       -2.155709    0.452440    2.966394
      4          6           0       -3.575814    4.385715    0.442264
      5          6           0       -6.638107    1.589143   -2.116011
      6          7           0       -3.711802   -0.721595    1.435090
      7          6           0       -3.998805   -2.020561    1.115013
      8          6           0       -3.208335   -3.058139    1.969053
      9          6           0       -2.611443   -2.076268    3.091647
     10          6           0       -2.830480   -0.655839    2.481016
     11          6           0       -3.235787   -2.125518    4.561775
     12          6           0       -2.183851   -3.990008    1.283719
     13          6           0       -1.748754   -3.688789   -0.166509
     14          6           0       -0.352681   -4.066744   -0.643888
     15          8           0        0.475855   -4.725371   -0.010313
     16          8           0       -0.043822   -3.516981   -1.947315
     17          7           0       -2.977256    2.259150    1.520887
     18          6           0       -2.205264    1.743576    2.534895
     19          6           0       -1.391478    2.874607    2.979343
     20          6           0       -1.723139    4.015285    2.299351
     21          6           0       -2.777266    3.578075    1.341706
     22          6           0       -0.385743    2.742093    4.143452
     23          6           0       -1.150953    5.390395    2.499831
     24          8           0       -0.299582    5.603259    3.384909
     25          6           0       -1.552499    6.539667    1.671795
     26          7           0       -4.927291    2.761410   -0.713033
     27          6           0       -4.607767    4.046266   -0.435031
     28          6           0       -5.194982    5.011116   -1.520248
     29          6           0       -6.317176    4.070659   -2.187764
     30          6           0       -5.816683    2.715978   -1.762244
     31          6           0       -5.712840    6.457895   -1.119632
     32          6           0       -6.468161    4.253821   -3.717638
     33          6           0       -7.548734    5.195418   -4.219357
     34          7           0       -5.712535   -0.040689   -0.625009
     35          6           0       -6.577558    0.283458   -1.638669
     36          6           0       -7.305145   -0.939230   -2.004436
     37          6           0       -6.762457   -2.012450   -1.271778
     38          6           0       -5.756335   -1.421848   -0.488856
     39          6           0       -8.381942   -0.983566   -3.021181
     40          6           0       -6.812982   -3.433458   -1.083158
     41          8           0       -7.572138   -4.251710   -1.558305
     42          6           0       -5.639553   -3.709277   -0.039559
     43          6           0       -6.213275   -4.467789    1.077817
     44          8           0       -6.361867   -5.705548    1.032002
     45          8           0       -6.477201   -3.650320    2.174107
     46          6           0       -6.882488   -4.304437    3.434386
     47          6           0        1.343403   -3.701370   -2.431538
     48          6           0        2.319177   -2.518653   -2.231756
     49          6           0        3.315770   -2.107543   -3.024453
     50          6           0        3.835873   -2.854350   -4.239531
     51          6           0        4.154906   -0.852361   -2.708546
     52          6           0        5.291713   -1.106973   -1.655040
     53          6           0        6.753937   -0.784820   -2.153909
     54          6           0        7.275996    0.450477   -1.435364
     55          6           0        7.939982    1.443334   -2.341954
     56          6           0        8.387726   -0.020479   -0.413111
     57          6           0        7.990379   -0.072410    1.058727
     58          6           0        9.218941    0.444389    2.011161
     59          6           0       10.547017   -0.205129    1.579568
     60          6           0       11.186347   -0.871639    2.841332
     61          6           0       11.567059    0.838665    0.945360
     62          6           0       12.312486    0.368558   -0.385285
     63          6           0       13.740209   -0.217261   -0.266986
     64          6           0       14.815402    0.650655   -0.852395
     65          6           0       15.868941   -0.290864   -1.449029
     66          6           0       15.466484    1.578037    0.199947
     67          1           0       -1.500432    0.238626    3.813593
     68          1           0       -3.532340    5.464973    0.604321
     69          1           0       -7.303360    1.595058   -2.981748
     70          1           0       -3.914238   -3.760782    2.415297
     71          1           0       -1.550011   -2.265565    3.246192
     72          1           0       -2.419486   -2.048453    5.279429
     73          1           0       -3.721567   -3.079758    4.765419
     74          1           0       -3.941484   -1.333285    4.811303
     75          1           0       -2.749455   -4.906695    1.448533
     76          1           0       -1.277158   -4.167171    1.863328
     77          1           0       -1.851472   -2.612936   -0.306845
     78          1           0       -2.480670   -4.072623   -0.876825
     79          1           0        0.436990    3.452734    4.223732
     80          1           0       -0.050006    1.706340    4.200535
     81          1           0       -0.871239    3.025589    5.077026
     82          1           0       -2.619347    6.726108    1.797800
     83          1           0       -1.328239    6.415004    0.611716
     84          1           0       -1.007295    7.464094    1.860978
     85          1           0       -4.419710    5.156459   -2.273814
     86          1           0       -7.284424    4.121626   -1.688627
     87          1           0       -5.093382    7.190569   -1.635894
     88          1           0       -5.586003    6.577281   -0.043929
     89          1           0       -6.741129    6.441662   -1.480788
     90          1           0       -6.550817    3.298227   -4.235966
     91          1           0       -5.521001    4.654209   -4.078994
     92          1           0       -7.110686    5.958560   -4.862474
     93          1           0       -8.014692    5.708831   -3.378253
     94          1           0       -8.333083    4.668005   -4.761646
     95          1           0       -9.340782   -0.743262   -2.561832
     96          1           0       -8.534707   -2.044345   -3.221122
     97          1           0       -8.122427   -0.491462   -3.958314
     98          1           0       -5.009036   -4.356059   -0.648615
     99          1           0       -6.353056   -3.773507    4.225284
    100          1           0       -6.571178   -5.346771    3.508022
    101          1           0       -7.965854   -4.196317    3.391904
    102          1           0        1.272267   -4.042768   -3.464555
    103          1           0        1.701892   -4.680371   -2.113941
    104          1           0        2.046618   -1.779400   -1.477619
    105          1           0        3.325679   -3.815468   -4.309776
    106          1           0        4.901262   -3.000661   -4.062236
    107          1           0        3.765861   -2.334781   -5.195676
    108          1           0        3.483509   -0.091852   -2.309736
    109          1           0        4.470582   -0.297471   -3.592452
    110          1           0        5.187142   -2.124369   -1.275156
    111          1           0        4.956214   -0.476851   -0.831527
    112          1           0        6.665026   -0.600652   -3.224592
    113          1           0        7.277034   -1.725615   -1.979649
    114          1           0        6.461832    0.985021   -0.944755
    115          1           0        8.804729    0.924781   -2.755003
    116          1           0        8.356984    2.306582   -1.824263
    117          1           0        7.281549    1.764328   -3.149627
    118          1           0        9.159568    0.747890   -0.389148
    119          1           0        8.865395   -0.971539   -0.648583
    120          1           0        7.711270   -1.092430    1.321485
    121          1           0        7.032960    0.437824    1.161227
    122          1           0        8.937115    0.119219    3.012489
    123          1           0        9.106110    1.524467    1.919987
    124          1           0       10.401524   -1.133925    1.027071
    125          1           0       10.493887   -1.486253    3.416538
    126          1           0       11.573110   -0.040178    3.431468
    127          1           0       12.000305   -1.525017    2.529238
    128          1           0       12.372475    0.992317    1.663141
    129          1           0       11.088673    1.810271    0.825105
    130          1           0       12.221280    1.204526   -1.080055
    131          1           0       11.778177   -0.488566   -0.793037
    132          1           0       13.727634   -1.185432   -0.768331
    133          1           0       14.041991   -0.402288    0.763716
    134          1           0       14.430735    1.226113   -1.695230
    135          1           0       15.537179   -0.430784   -2.478328
    136          1           0       15.971341   -1.291339   -1.029689
    137          1           0       16.849171    0.166278   -1.580376
    138          1           0       15.528424    2.549341   -0.290050
    139          1           0       16.474436    1.267134    0.473223
    140          1           0       14.773815    1.635345    1.038479
 ---------------------------------------------------------------------

 SCF Done:  E(RB-LYP) =  -3007.37112723     A.U. after   21 cycles

 Excitation energies and oscillator strengths:

 Excited State   1:      Singlet-A      1.7857 eV  694.31 nm  f=0.2338  <S**2>=0.000
     244 -> 247        0.26565
     245 -> 248        0.17567
     246 -> 247        0.63896
     246 <- 247       -0.13673
 This state for optimization and/or second-order correction.
 Total Energy, E(TD-HF/TD-DFT) =  -3007.30550286
 Copying the excited state density for this state as the 1-particle RhoCI density.

 Excited State   2:      Singlet-A      1.8186 eV  681.75 nm  f=0.0438  <S**2>=0.000
     244 -> 247        0.65386
     246 -> 247       -0.25795

 Excited State   3:      Singlet-A      2.0251 eV  612.25 nm  f=0.0465  <S**2>=0.000
     243 -> 247        0.11782
     245 -> 247        0.62309
     246 -> 248       -0.28534

 Excited State   4:      Singlet-A      2.1709 eV  571.11 nm  f=0.0016  <S**2>=0.000
     243 -> 247        0.69541

 Excited State   5:      Singlet-A      2.1811 eV  568.44 nm  f=0.0000  <S**2>=0.000
     242 -> 247        0.70691

 The electronic state is 1-A.
 Alpha  occ. eigenvalues --  -46.27117 -18.82519 -18.81292 -18.77533 -18.77031
 Alpha  occ. eigenvalues --  -18.76567 -18.75320 -14.03967 -14.03672 -14.01606
 Alpha  occ. eigenvalues --  -14.01198 -10.04780 -10.04221 -10.00649  -9.99951
 Alpha  occ. eigenvalues --   -9.98425  -9.97700  -9.97128  -9.97069  -9.96987
 Alpha  occ. eigenvalues --   -9.96956  -9.96821  -9.95694  -9.95558  -9.95058
 Alpha  occ. eigenvalues --   -9.94927  -9.94645  -9.94469  -9.94466  -9.94462
 Alpha  occ. eigenvalues --   -9.94301  -9.94119  -9.93792  -9.93665  -9.93397
 Alpha  occ. eigenvalues --   -9.93283  -9.93260  -9.93204  -9.93142  -9.93120
 Alpha  occ. eigenvalues --   -9.92960  -9.92744  -9.92515  -9.92296  -9.92283
 Alpha  occ. eigenvalues --   -9.92142  -9.92115  -9.91982  -9.91820  -9.91704
 Alpha  occ. eigenvalues --   -9.91630  -9.91561  -9.91555  -9.91501  -9.91392
 Alpha  occ. eigenvalues --   -9.91343  -9.91293  -9.91175  -9.91147  -9.90637
 Alpha  occ. eigenvalues --   -9.90634  -9.90596  -9.90537  -9.90468  -9.90262
 Alpha  occ. eigenvalues --   -9.90247  -2.91816  -1.72247  -1.71682  -1.71536
 Alpha  occ. eigenvalues --   -0.96766  -0.95457  -0.92850  -0.90444  -0.88924
 Alpha  occ. eigenvalues --   -0.88700  -0.86844  -0.86117  -0.85963  -0.85054
 Alpha  occ. eigenvalues --   -0.76699  -0.73212  -0.72981  -0.72663  -0.72557
 Alpha  occ. eigenvalues --   -0.72122  -0.71978  -0.71021  -0.70764  -0.70268
 Alpha  occ. eigenvalues --   -0.69714  -0.68983  -0.68026  -0.67690  -0.67047
 Alpha  occ. eigenvalues --   -0.66550  -0.65986  -0.65625  -0.65309  -0.64491
 Alpha  occ. eigenvalues --   -0.63975  -0.63014  -0.62669  -0.61990  -0.61500
 Alpha  occ. eigenvalues --   -0.60426  -0.60096  -0.60059  -0.59076  -0.58648
 Alpha  occ. eigenvalues --   -0.58228  -0.57613  -0.57412  -0.56258  -0.55017
 Alpha  occ. eigenvalues --   -0.54575  -0.53200  -0.53032  -0.52328  -0.51842
 Alpha  occ. eigenvalues --   -0.51596  -0.51236  -0.51042  -0.50949  -0.49922
 Alpha  occ. eigenvalues --   -0.49683  -0.48927  -0.48725  -0.48303  -0.46844
 Alpha  occ. eigenvalues --   -0.46280  -0.46132  -0.45699  -0.44933  -0.44763
 Alpha  occ. eigenvalues --   -0.44413  -0.43897  -0.43626  -0.43103  -0.42677
 Alpha  occ. eigenvalues --   -0.42251  -0.42136  -0.41459  -0.41294  -0.41066
 Alpha  occ. eigenvalues --   -0.40742  -0.40605  -0.40430  -0.40231  -0.39973
 Alpha  occ. eigenvalues --   -0.39785  -0.39493  -0.39366  -0.39243  -0.39154
 Alpha  occ. eigenvalues --   -0.39129  -0.38940  -0.38850  -0.38737  -0.38219
 Alpha  occ. eigenvalues --   -0.38189  -0.37895  -0.37790  -0.37745  -0.37638
 Alpha  occ. eigenvalues --   -0.37398  -0.37074  -0.36758  -0.36545  -0.36342
 Alpha  occ. eigenvalues --   -0.36272  -0.36193  -0.36117  -0.35976  -0.35766
 Alpha  occ. eigenvalues --   -0.35414  -0.35174  -0.35121  -0.35002  -0.34928
 Alpha  occ. eigenvalues --   -0.34814  -0.34712  -0.34157  -0.34103  -0.33970
 Alpha  occ. eigenvalues --   -0.33832  -0.33733  -0.33485  -0.33054  -0.33002
 Alpha  occ. eigenvalues --   -0.32944  -0.32715  -0.32690  -0.32467  -0.32305
 Alpha  occ. eigenvalues --   -0.32179  -0.32023  -0.31958  -0.31860  -0.31633
 Alpha  occ. eigenvalues --   -0.31447  -0.31149  -0.31065  -0.30669  -0.30577
 Alpha  occ. eigenvalues --   -0.30267  -0.30211  -0.30149  -0.29992  -0.29962
 Alpha  occ. eigenvalues --   -0.29875  -0.29452  -0.29281  -0.28953  -0.28876
 Alpha  occ. eigenvalues --   -0.28658  -0.28507  -0.28333  -0.28237  -0.27333
 Alpha  occ. eigenvalues --   -0.27315  -0.27086  -0.26894  -0.26808  -0.26370
 Alpha  occ. eigenvalues --   -0.26137  -0.26089  -0.25701  -0.25597  -0.25470
 Alpha  occ. eigenvalues --   -0.25041  -0.24579  -0.24500  -0.24384  -0.23864
 Alpha  occ. eigenvalues --   -0.23442  -0.22694  -0.22231  -0.21789  -0.21239
 Alpha  occ. eigenvalues --   -0.20855  -0.19925  -0.19775  -0.18511  -0.17970
 Alpha  occ. eigenvalues --   -0.16158
 Alpha virt. eigenvalues --   -0.11909  -0.07836  -0.06860  -0.05390  -0.03595
 Alpha virt. eigenvalues --   -0.03117  -0.02661  -0.01949  -0.01366  -0.00497
 Alpha virt. eigenvalues --    0.00530   0.01381   0.01851   0.02198   0.02886

 Mulliken charges:
               1
     1  Mg   0.694980
     2  C    0.042449
     3  C   -0.068213
     4  C   -0.033866
     5  C   -0.080198
     6  N   -0.194994
     7  C   -0.098265
     8  C    0.024539
     9  C   -0.012431
    10  C    0.029032
    11  C    0.097792
    12  C    0.119360
    13  C    0.111680
    14  C    0.117056
    15  O   -0.182092
    16  O   -0.316764
    17  N   -0.267928
    18  C    0.161069
    19  C   -0.132988
    20  C    0.071719
    21  C    0.090137
    22  C    0.165766
    23  C   -0.076699
    24  O   -0.182847
    25  C    0.141762
    26  N   -0.242512
    27  C    0.006484
    28  C   -0.007098
    29  C    0.002264
    30  C    0.059048
    31  C    0.144738
    32  C    0.093644
    33  C    0.078464
    34  N   -0.286863
    35  C    0.093330
    36  C   -0.189534
    37  C    0.120123
    38  C    0.073916
    39  C    0.175807
    40  C   -0.099745
    41  O   -0.094632
    42  C    0.070185
    43  C    0.131470
    44  O   -0.190727
    45  O   -0.299129
    46  C    0.211639
    47  C    0.294660
    48  C   -0.012915
    49  C   -0.167074
    50  C    0.146394
    51  C    0.095129
    52  C    0.046975
    53  C    0.151061
    54  C   -0.021036
    55  C    0.097311
    56  C    0.078221
    57  C    0.013493
    58  C    0.117454
    59  C   -0.063924
    60  C    0.071594
    61  C    0.110379
    62  C    0.071214
    63  C    0.094638
    64  C   -0.103544
    65  C    0.094453
    66  C    0.130610
    67  H   -0.060664
    68  H   -0.080361
    69  H   -0.058955
    70  H   -0.034181
    71  H   -0.022709
    72  H   -0.005983
    73  H   -0.008521
    74  H    0.002484
    75  H   -0.018307
    76  H   -0.013487
    77  H    0.019850
    78  H    0.006683
    79  H    0.001104
    80  H   -0.009987
    81  H   -0.007206
    82  H    0.023304
    83  H    0.004102
    84  H   -0.018235
    85  H   -0.011688
    86  H   -0.016301
    87  H   -0.005466
    88  H    0.002828
    89  H   -0.003358
    90  H   -0.019369
    91  H   -0.039994
    92  H   -0.007440
    93  H   -0.015047
    94  H   -0.004908
    95  H    0.001335
    96  H   -0.012236
    97  H    0.011595
    98  H    0.011031
    99  H    0.020464
   100  H    0.023578
   101  H    0.030064
   102  H   -0.018464
   103  H   -0.008824
   104  H   -0.044064
   105  H   -0.021182
   106  H   -0.006686
   107  H   -0.000114
   108  H   -0.039187
   109  H   -0.035992
   110  H   -0.023650
   111  H   -0.022237
   112  H   -0.038689
   113  H   -0.026607
   114  H   -0.033506
   115  H   -0.021419
   116  H   -0.015027
   117  H   -0.022794
   118  H   -0.041910
   119  H   -0.024053
   120  H   -0.045224
   121  H   -0.041142
   122  H   -0.034437
   123  H   -0.017703
   124  H   -0.024080
   125  H   -0.011369
   126  H   -0.015586
   127  H   -0.018815
   128  H   -0.035640
   129  H   -0.031145
   130  H   -0.025294
   131  H   -0.031293
   132  H   -0.039917
   133  H   -0.031825
   134  H   -0.036378
   135  H   -0.031472
   136  H   -0.008091
   137  H   -0.029728
   138  H   -0.020160
   139  H   -0.009974
   140  H   -0.016357
 Sum of Mulliken charges =  -0.00000

 Dipole moment (field-independent basis, Debye):
    X=             -0.9929    Y=              4.9578    Z=             -0.8454  Tot=              5.1265
 Quadrupole moment (field-independent basis, Debye-Ang):
   XX=           -399.9200   YY=           -433.7835   ZZ=           -391.1002
   XY=            -48.7126   XZ=            -19.4297   YZ=            -29.2062

 Normal termination of Gaussian 16 at Wed Apr 27 04:06:24 2022.
