 Gaussian 16, Revision A.03,
 Gaussian 16:  ES64L-G16RevA.03 25-Dec-2016

 -----------------------------------
 #p cam-b3lyp/Def2SVP td=(nstates=5)
 -----------------------------------

 -------------------------------------------------------
 step_1051_chromophore_2 TDDFT with cam-b3lyp functional
 -------------------------------------------------------
 Symbolic Z-matrix:
 Charge =  0 Multiplicity = 1

                         Standard orientation:
 ---------------------------------------------------------------------
 Center     Atomic      Atomic             Coordinates (Angstroms)
 Number     Number       Type             X           Y           Z
 ---------------------------------------------------------------------
      1         12           0       -4.485398    1.156453    0.510386
      2          6           0       -5.015053   -2.398680    0.242076
      3          6           0       -2.155709    0.452440    2.966394
      4          6           0       -3.575814    4.385715    0.442264
      5          6           0       -6.638107    1.589143   -2.116011
      6          7           0       -3.711802   -0.721595    1.435090
      7          6           0       -3.998805   -2.020561    1.115013
      8          6           0       -3.208335   -3.058139    1.969053
      9          6           0       -2.611443   -2.076268    3.091647
     10          6           0       -2.830480   -0.655839    2.481016
     11          6           0       -3.235787   -2.125518    4.561775
     12          6           0       -2.183851   -3.990008    1.283719
     13          6           0       -1.748754   -3.688789   -0.166509
     14          6           0       -0.352681   -4.066744   -0.643888
     15          8           0        0.475855   -4.725371   -0.010313
     16          8           0       -0.043822   -3.516981   -1.947315
     17          7           0       -2.977256    2.259150    1.520887
     18          6           0       -2.205264    1.743576    2.534895
     19          6           0       -1.391478    2.874607    2.979343
     20          6           0       -1.723139    4.015285    2.299351
     21          6           0       -2.777266    3.578075    1.341706
     22          6           0       -0.385743    2.742093    4.143452
     23          6           0       -1.150953    5.390395    2.499831
     24          8           0       -0.299582    5.603259    3.384909
     25          6           0       -1.552499    6.539667    1.671795
     26          7           0       -4.927291    2.761410   -0.713033
     27          6           0       -4.607767    4.046266   -0.435031
     28          6           0       -5.194982    5.011116   -1.520248
     29          6           0       -6.317176    4.070659   -2.187764
     30          6           0       -5.816683    2.715978   -1.762244
     31          6           0       -5.712840    6.457895   -1.119632
     32          6           0       -6.468161    4.253821   -3.717638
     33          6           0       -7.548734    5.195418   -4.219357
     34          7           0       -5.712535   -0.040689   -0.625009
     35          6           0       -6.577558    0.283458   -1.638669
     36          6           0       -7.305145   -0.939230   -2.004436
     37          6           0       -6.762457   -2.012450   -1.271778
     38          6           0       -5.756335   -1.421848   -0.488856
     39          6           0       -8.381942   -0.983566   -3.021181
     40          6           0       -6.812982   -3.433458   -1.083158
     41          8           0       -7.572138   -4.251710   -1.558305
     42          6           0       -5.639553   -3.709277   -0.039559
     43          6           0       -6.213275   -4.467789    1.077817
     44          8           0       -6.361867   -5.705548    1.032002
     45          8           0       -6.477201   -3.650320    2.174107
     46          6           0       -6.882488   -4.304437    3.434386
     47          6           0        1.343403   -3.701370   -2.431538
     48          6           0        2.319177   -2.518653   -2.231756
     49          6           0        3.315770   -2.107543   -3.024453
     50          6           0        3.835873   -2.854350   -4.239531
     51          6           0        4.154906   -0.852361   -2.708546
     52          6           0        5.291713   -1.106973   -1.655040
     53          6           0        6.753937   -0.784820   -2.153909
     54          6           0        7.275996    0.450477   -1.435364
     55          6           0        7.939982    1.443334   -2.341954
     56          6           0        8.387726   -0.020479   -0.413111
     57          6           0        7.990379   -0.072410    1.058727
     58          6           0        9.218941    0.444389    2.011161
     59          6           0       10.547017   -0.205129    1.579568
     60          6           0       11.186347   -0.871639    2.841332
     61          6           0       11.567059    0.838665    0.945360
     62          6           0       12.312486    0.368558   -0.385285
     63          6           0       13.740209   -0.217261   -0.266986
     64          6           0       14.815402    0.650655   -0.852395
     65          6           0       15.868941   -0.290864   -1.449029
     66          6           0       15.466484    1.578037    0.199947
     67          1           0       -1.500432    0.238626    3.813593
     68          1           0       -3.532340    5.464973    0.604321
     69          1           0       -7.303360    1.595058   -2.981748
     70          1           0       -3.914238   -3.760782    2.415297
     71          1           0       -1.550011   -2.265565    3.246192
     72          1           0       -2.419486   -2.048453    5.279429
     73          1           0       -3.721567   -3.079758    4.765419
     74          1           0       -3.941484   -1.333285    4.811303
     75          1           0       -2.749455   -4.906695    1.448533
     76          1           0       -1.277158   -4.167171    1.863328
     77          1           0       -1.851472   -2.612936   -0.306845
     78          1           0       -2.480670   -4.072623   -0.876825
     79          1           0        0.436990    3.452734    4.223732
     80          1           0       -0.050006    1.706340    4.200535
     81          1           0       -0.871239    3.025589    5.077026
     82          1           0       -2.619347    6.726108    1.797800
     83          1           0       -1.328239    6.415004    0.611716
     84          1           0       -1.007295    7.464094    1.860978
     85          1           0       -4.419710    5.156459   -2.273814
     86          1           0       -7.284424    4.121626   -1.688627
     87          1           0       -5.093382    7.190569   -1.635894
     88          1           0       -5.586003    6.577281   -0.043929
     89          1           0       -6.741129    6.441662   -1.480788
     90          1           0       -6.550817    3.298227   -4.235966
     91          1           0       -5.521001    4.654209   -4.078994
     92          1           0       -7.110686    5.958560   -4.862474
     93          1           0       -8.014692    5.708831   -3.378253
     94          1           0       -8.333083    4.668005   -4.761646
     95          1           0       -9.340782   -0.743262   -2.561832
     96          1           0       -8.534707   -2.044345   -3.221122
     97          1           0       -8.122427   -0.491462   -3.958314
     98          1           0       -5.009036   -4.356059   -0.648615
     99          1           0       -6.353056   -3.773507    4.225284
    100          1           0       -6.571178   -5.346771    3.508022
    101          1           0       -7.965854   -4.196317    3.391904
    102          1           0        1.272267   -4.042768   -3.464555
    103          1           0        1.701892   -4.680371   -2.113941
    104          1           0        2.046618   -1.779400   -1.477619
    105          1           0        3.325679   -3.815468   -4.309776
    106          1           0        4.901262   -3.000661   -4.062236
    107          1           0        3.765861   -2.334781   -5.195676
    108          1           0        3.483509   -0.091852   -2.309736
    109          1           0        4.470582   -0.297471   -3.592452
    110          1           0        5.187142   -2.124369   -1.275156
    111          1           0        4.956214   -0.476851   -0.831527
    112          1           0        6.665026   -0.600652   -3.224592
    113          1           0        7.277034   -1.725615   -1.979649
    114          1           0        6.461832    0.985021   -0.944755
    115          1           0        8.804729    0.924781   -2.755003
    116          1           0        8.356984    2.306582   -1.824263
    117          1           0        7.281549    1.764328   -3.149627
    118          1           0        9.159568    0.747890   -0.389148
    119          1           0        8.865395   -0.971539   -0.648583
    120          1           0        7.711270   -1.092430    1.321485
    121          1           0        7.032960    0.437824    1.161227
    122          1           0        8.937115    0.119219    3.012489
    123          1           0        9.106110    1.524467    1.919987
    124          1           0       10.401524   -1.133925    1.027071
    125          1           0       10.493887   -1.486253    3.416538
    126          1           0       11.573110   -0.040178    3.431468
    127          1           0       12.000305   -1.525017    2.529238
    128          1           0       12.372475    0.992317    1.663141
    129          1           0       11.088673    1.810271    0.825105
    130          1           0       12.221280    1.204526   -1.080055
    131          1           0       11.778177   -0.488566   -0.793037
    132          1           0       13.727634   -1.185432   -0.768331
    133          1           0       14.041991   -0.402288    0.763716
    134          1           0       14.430735    1.226113   -1.695230
    135          1           0       15.537179   -0.430784   -2.478328
    136          1           0       15.971341   -1.291339   -1.029689
    137          1           0       16.849171    0.166278   -1.580376
    138          1           0       15.528424    2.549341   -0.290050
    139          1           0       16.474436    1.267134    0.473223
    140          1           0       14.773815    1.635345    1.038479
 ---------------------------------------------------------------------

 SCF Done:  E(RCAM-B3LYP) =  -3007.15493636     A.U. after   18 cycles

 Excitation energies and oscillator strengths:

 Excited State   1:      Singlet-A      1.6957 eV  731.16 nm  f=0.3471  <S**2>=0.000
     245 -> 248        0.18351
     246 -> 247        0.68439
     245 <- 248        0.10888
 This state for optimization and/or second-order correction.
 Total Energy, E(TD-HF/TD-DFT) =  -3007.09261945
 Copying the excited state density for this state as the 1-particle RhoCI density.

 Excited State   2:      Singlet-A      2.2598 eV  548.65 nm  f=0.0465  <S**2>=0.000
     245 -> 247        0.59925
     246 -> 248       -0.36388

 Excited State   3:      Singlet-A      3.3916 eV  365.56 nm  f=0.5667  <S**2>=0.000
     242 -> 247       -0.10886
     243 -> 247       -0.29579
     245 -> 247        0.30951
     246 -> 248        0.54576
     245 <- 247       -0.10068

 Excited State   4:      Singlet-A      3.4887 eV  355.39 nm  f=0.1182  <S**2>=0.000
     242 -> 247       -0.27447
     243 -> 247        0.58446
     245 -> 247        0.12929
     246 -> 248        0.19960

 Excited State   5:      Singlet-A      3.5737 eV  346.93 nm  f=0.0201  <S**2>=0.000
     241 -> 247        0.46354
     241 -> 248       -0.13948
     241 -> 249       -0.25715
     241 -> 250       -0.32357
     242 -> 247       -0.14877
     243 -> 247       -0.12900

 The electronic state is 1-A.
 Alpha  occ. eigenvalues --  -46.88665 -19.25540 -19.24130 -19.20550 -19.20183
 Alpha  occ. eigenvalues --  -19.19795 -19.18626 -14.42943 -14.42522 -14.40188
 Alpha  occ. eigenvalues --  -14.39587 -10.40238 -10.39885 -10.36007 -10.35206
 Alpha  occ. eigenvalues --  -10.32476 -10.31729 -10.31547 -10.31546 -10.31532
 Alpha  occ. eigenvalues --  -10.31525 -10.31465 -10.30108 -10.29689 -10.29367
 Alpha  occ. eigenvalues --  -10.29003 -10.28843 -10.28770 -10.28623 -10.28487
 Alpha  occ. eigenvalues --  -10.28419 -10.28365 -10.28230 -10.28090 -10.27405
 Alpha  occ. eigenvalues --  -10.27331 -10.27263 -10.27194 -10.27181 -10.26933
 Alpha  occ. eigenvalues --  -10.26902 -10.26863 -10.26692 -10.26211 -10.25921
 Alpha  occ. eigenvalues --  -10.25909 -10.25861 -10.25765 -10.25599 -10.25527
 Alpha  occ. eigenvalues --  -10.25510 -10.25418 -10.25291 -10.25218 -10.25059
 Alpha  occ. eigenvalues --  -10.25059 -10.24934 -10.24829 -10.24813 -10.24318
 Alpha  occ. eigenvalues --  -10.24262 -10.24201 -10.24099 -10.24017 -10.23925
 Alpha  occ. eigenvalues --  -10.23816  -3.17270  -1.92176  -1.91715  -1.91581
 Alpha  occ. eigenvalues --   -1.15322  -1.13852  -1.11241  -1.08880  -1.06969
 Alpha  occ. eigenvalues --   -1.06445  -1.04610  -1.03806  -1.03616  -1.02563
 Alpha  occ. eigenvalues --   -0.93901  -0.90045  -0.89725  -0.89445  -0.89319
 Alpha  occ. eigenvalues --   -0.88826  -0.88696  -0.87611  -0.87337  -0.86719
 Alpha  occ. eigenvalues --   -0.86466  -0.85381  -0.84250  -0.83923  -0.83208
 Alpha  occ. eigenvalues --   -0.82699  -0.82065  -0.81661  -0.81088  -0.80306
 Alpha  occ. eigenvalues --   -0.79736  -0.78589  -0.78275  -0.77627  -0.77040
 Alpha  occ. eigenvalues --   -0.75777  -0.75456  -0.75389  -0.74331  -0.73773
 Alpha  occ. eigenvalues --   -0.73362  -0.72587  -0.72350  -0.71096  -0.69626
 Alpha  occ. eigenvalues --   -0.69248  -0.67752  -0.67617  -0.66699  -0.65914
 Alpha  occ. eigenvalues --   -0.65704  -0.65367  -0.65258  -0.65030  -0.63970
 Alpha  occ. eigenvalues --   -0.63440  -0.62862  -0.62358  -0.62136  -0.60461
 Alpha  occ. eigenvalues --   -0.59804  -0.59545  -0.59276  -0.58411  -0.58251
 Alpha  occ. eigenvalues --   -0.57882  -0.57256  -0.56904  -0.56377  -0.55654
 Alpha  occ. eigenvalues --   -0.55328  -0.55169  -0.54411  -0.54033  -0.53856
 Alpha  occ. eigenvalues --   -0.53757  -0.53232  -0.53180  -0.53088  -0.52856
 Alpha  occ. eigenvalues --   -0.52621  -0.52277  -0.52125  -0.51791  -0.51741
 Alpha  occ. eigenvalues --   -0.51597  -0.51512  -0.51365  -0.51253  -0.50494
 Alpha  occ. eigenvalues --   -0.50433  -0.50317  -0.50161  -0.50100  -0.49887
 Alpha  occ. eigenvalues --   -0.49779  -0.49646  -0.49330  -0.49166  -0.48918
 Alpha  occ. eigenvalues --   -0.48509  -0.48415  -0.48237  -0.48088  -0.47932
 Alpha  occ. eigenvalues --   -0.47417  -0.47364  -0.47184  -0.46970  -0.46836
 Alpha  occ. eigenvalues --   -0.46793  -0.46592  -0.45982  -0.45904  -0.45792
 Alpha  occ. eigenvalues --   -0.45639  -0.45446  -0.45345  -0.44982  -0.44822
 Alpha  occ. eigenvalues --   -0.44580  -0.44472  -0.44226  -0.44180  -0.43904
 Alpha  occ. eigenvalues --   -0.43655  -0.43521  -0.43482  -0.43410  -0.43335
 Alpha  occ. eigenvalues --   -0.42807  -0.42606  -0.42428  -0.42229  -0.42041
 Alpha  occ. eigenvalues --   -0.41811  -0.41593  -0.41572  -0.41410  -0.41375
 Alpha  occ. eigenvalues --   -0.41186  -0.40933  -0.40431  -0.40296  -0.40136
 Alpha  occ. eigenvalues --   -0.39641  -0.39442  -0.39326  -0.39281  -0.38282
 Alpha  occ. eigenvalues --   -0.38186  -0.37925  -0.37714  -0.37667  -0.37390
 Alpha  occ. eigenvalues --   -0.37075  -0.36952  -0.36607  -0.36517  -0.36313
 Alpha  occ. eigenvalues --   -0.36247  -0.35446  -0.34887  -0.34877  -0.34642
 Alpha  occ. eigenvalues --   -0.34405  -0.33862  -0.33765  -0.31703  -0.31558
 Alpha  occ. eigenvalues --   -0.31129  -0.30684  -0.30139  -0.29526  -0.24876
 Alpha  occ. eigenvalues --   -0.21362
 Alpha virt. eigenvalues --   -0.08883  -0.02868  -0.00377   0.01592   0.02408
 Alpha virt. eigenvalues --    0.04231   0.04512   0.05070   0.06017   0.06181
 Alpha virt. eigenvalues --    0.06941   0.08085   0.08119   0.08608   0.09017

 Mulliken charges:
               1
     1  Mg   0.828731
     2  C    0.020511
     3  C   -0.079720
     4  C   -0.055028
     5  C   -0.085388
     6  N   -0.264276
     7  C   -0.059850
     8  C   -0.017383
     9  C   -0.062207
    10  C    0.041782
    11  C    0.044354
    12  C    0.069218
    13  C    0.036231
    14  C    0.203630
    15  O   -0.223713
    16  O   -0.381511
    17  N   -0.355713
    18  C    0.166526
    19  C   -0.136765
    20  C   -0.004172
    21  C    0.124687
    22  C    0.112142
    23  C    0.004099
    24  O   -0.223486
    25  C    0.053347
    26  N   -0.319580
    27  C    0.034511
    28  C   -0.059893
    29  C   -0.064875
    30  C    0.088857
    31  C    0.090112
    32  C    0.037091
    33  C    0.017772
    34  N   -0.374889
    35  C    0.096053
    36  C   -0.180762
    37  C    0.038685
    38  C    0.107728
    39  C    0.117138
    40  C    0.001128
    41  O   -0.134026
    42  C   -0.009893
    43  C    0.217425
    44  O   -0.228759
    45  O   -0.361015
    46  C    0.173843
    47  C    0.263712
    48  C   -0.041928
    49  C   -0.188641
    50  C    0.088262
    51  C    0.038296
    52  C   -0.003693
    53  C    0.091566
    54  C   -0.079659
    55  C    0.041642
    56  C    0.022433
    57  C   -0.025888
    58  C    0.061431
    59  C   -0.129392
    60  C    0.021842
    61  C    0.057950
    62  C    0.018941
    63  C    0.037719
    64  C   -0.160234
    65  C    0.031691
    66  C    0.070134
    67  H   -0.023542
    68  H   -0.049348
    69  H   -0.025629
    70  H    0.000311
    71  H    0.012215
    72  H    0.017540
    73  H    0.012892
    74  H    0.027467
    75  H    0.011047
    76  H    0.020906
    77  H    0.051377
    78  H    0.036517
    79  H    0.033944
    80  H    0.013164
    81  H    0.021216
    82  H    0.047979
    83  H    0.034557
    84  H    0.019721
    85  H    0.022250
    86  H    0.018880
    87  H    0.019012
    88  H    0.025360
    89  H    0.018791
    90  H    0.010413
    91  H   -0.009505
    92  H    0.016717
    93  H    0.006072
    94  H    0.019209
    95  H    0.029121
    96  H    0.017361
    97  H    0.034874
    98  H    0.051828
    99  H    0.039651
   100  H    0.048995
   101  H    0.053561
   102  H    0.009964
   103  H    0.023424
   104  H   -0.010476
   105  H    0.001447
   106  H    0.015169
   107  H    0.025070
   108  H   -0.007443
   109  H   -0.006523
   110  H    0.006319
   111  H    0.004188
   112  H   -0.009510
   113  H    0.003119
   114  H   -0.002339
   115  H    0.001631
   116  H    0.009474
   117  H    0.001904
   118  H   -0.015798
   119  H    0.001903
   120  H   -0.017787
   121  H   -0.013178
   122  H   -0.003328
   123  H    0.009667
   124  H    0.006768
   125  H    0.012408
   126  H    0.007292
   127  H    0.004297
   128  H   -0.009890
   129  H   -0.002144
   130  H    0.002080
   131  H   -0.004167
   132  H   -0.008186
   133  H   -0.004681
   134  H   -0.004165
   135  H   -0.006003
   136  H    0.015695
   137  H   -0.003686
   138  H    0.004404
   139  H    0.014620
   140  H    0.004658
 Sum of Mulliken charges =  -0.00000

 Dipole moment (field-independent basis, Debye):
    X=             -0.8937    Y=              5.3454    Z=             -0.5887  Tot=              5.4514
 Quadrupole moment (field-independent basis, Debye-Ang):
   XX=           -401.5469   YY=           -430.6748   ZZ=           -389.0579
   XY=            -50.3552   XZ=            -20.3534   YZ=            -30.4622

 Normal termination of Gaussian 16 at Wed Apr 27 02:57:47 2022.
