 Gaussian 16, Revision A.03,
 Gaussian 16:  ES64L-G16RevA.03 25-Dec-2016

 ---------------------------------
 #p PBE1PBE/Def2SVP td=(nstates=5)
 ---------------------------------

 -----------------------------------------------------
 step_1051_chromophore_2 TDDFT with PBE1PBE functional
 -----------------------------------------------------
 Symbolic Z-matrix:
 Charge =  0 Multiplicity = 1

                         Standard orientation:
 ---------------------------------------------------------------------
 Center     Atomic      Atomic             Coordinates (Angstroms)
 Number     Number       Type             X           Y           Z
 ---------------------------------------------------------------------
      1         12           0       -4.485398    1.156453    0.510386
      2          6           0       -5.015053   -2.398680    0.242076
      3          6           0       -2.155709    0.452440    2.966394
      4          6           0       -3.575814    4.385715    0.442264
      5          6           0       -6.638107    1.589143   -2.116011
      6          7           0       -3.711802   -0.721595    1.435090
      7          6           0       -3.998805   -2.020561    1.115013
      8          6           0       -3.208335   -3.058139    1.969053
      9          6           0       -2.611443   -2.076268    3.091647
     10          6           0       -2.830480   -0.655839    2.481016
     11          6           0       -3.235787   -2.125518    4.561775
     12          6           0       -2.183851   -3.990008    1.283719
     13          6           0       -1.748754   -3.688789   -0.166509
     14          6           0       -0.352681   -4.066744   -0.643888
     15          8           0        0.475855   -4.725371   -0.010313
     16          8           0       -0.043822   -3.516981   -1.947315
     17          7           0       -2.977256    2.259150    1.520887
     18          6           0       -2.205264    1.743576    2.534895
     19          6           0       -1.391478    2.874607    2.979343
     20          6           0       -1.723139    4.015285    2.299351
     21          6           0       -2.777266    3.578075    1.341706
     22          6           0       -0.385743    2.742093    4.143452
     23          6           0       -1.150953    5.390395    2.499831
     24          8           0       -0.299582    5.603259    3.384909
     25          6           0       -1.552499    6.539667    1.671795
     26          7           0       -4.927291    2.761410   -0.713033
     27          6           0       -4.607767    4.046266   -0.435031
     28          6           0       -5.194982    5.011116   -1.520248
     29          6           0       -6.317176    4.070659   -2.187764
     30          6           0       -5.816683    2.715978   -1.762244
     31          6           0       -5.712840    6.457895   -1.119632
     32          6           0       -6.468161    4.253821   -3.717638
     33          6           0       -7.548734    5.195418   -4.219357
     34          7           0       -5.712535   -0.040689   -0.625009
     35          6           0       -6.577558    0.283458   -1.638669
     36          6           0       -7.305145   -0.939230   -2.004436
     37          6           0       -6.762457   -2.012450   -1.271778
     38          6           0       -5.756335   -1.421848   -0.488856
     39          6           0       -8.381942   -0.983566   -3.021181
     40          6           0       -6.812982   -3.433458   -1.083158
     41          8           0       -7.572138   -4.251710   -1.558305
     42          6           0       -5.639553   -3.709277   -0.039559
     43          6           0       -6.213275   -4.467789    1.077817
     44          8           0       -6.361867   -5.705548    1.032002
     45          8           0       -6.477201   -3.650320    2.174107
     46          6           0       -6.882488   -4.304437    3.434386
     47          6           0        1.343403   -3.701370   -2.431538
     48          6           0        2.319177   -2.518653   -2.231756
     49          6           0        3.315770   -2.107543   -3.024453
     50          6           0        3.835873   -2.854350   -4.239531
     51          6           0        4.154906   -0.852361   -2.708546
     52          6           0        5.291713   -1.106973   -1.655040
     53          6           0        6.753937   -0.784820   -2.153909
     54          6           0        7.275996    0.450477   -1.435364
     55          6           0        7.939982    1.443334   -2.341954
     56          6           0        8.387726   -0.020479   -0.413111
     57          6           0        7.990379   -0.072410    1.058727
     58          6           0        9.218941    0.444389    2.011161
     59          6           0       10.547017   -0.205129    1.579568
     60          6           0       11.186347   -0.871639    2.841332
     61          6           0       11.567059    0.838665    0.945360
     62          6           0       12.312486    0.368558   -0.385285
     63          6           0       13.740209   -0.217261   -0.266986
     64          6           0       14.815402    0.650655   -0.852395
     65          6           0       15.868941   -0.290864   -1.449029
     66          6           0       15.466484    1.578037    0.199947
     67          1           0       -1.500432    0.238626    3.813593
     68          1           0       -3.532340    5.464973    0.604321
     69          1           0       -7.303360    1.595058   -2.981748
     70          1           0       -3.914238   -3.760782    2.415297
     71          1           0       -1.550011   -2.265565    3.246192
     72          1           0       -2.419486   -2.048453    5.279429
     73          1           0       -3.721567   -3.079758    4.765419
     74          1           0       -3.941484   -1.333285    4.811303
     75          1           0       -2.749455   -4.906695    1.448533
     76          1           0       -1.277158   -4.167171    1.863328
     77          1           0       -1.851472   -2.612936   -0.306845
     78          1           0       -2.480670   -4.072623   -0.876825
     79          1           0        0.436990    3.452734    4.223732
     80          1           0       -0.050006    1.706340    4.200535
     81          1           0       -0.871239    3.025589    5.077026
     82          1           0       -2.619347    6.726108    1.797800
     83          1           0       -1.328239    6.415004    0.611716
     84          1           0       -1.007295    7.464094    1.860978
     85          1           0       -4.419710    5.156459   -2.273814
     86          1           0       -7.284424    4.121626   -1.688627
     87          1           0       -5.093382    7.190569   -1.635894
     88          1           0       -5.586003    6.577281   -0.043929
     89          1           0       -6.741129    6.441662   -1.480788
     90          1           0       -6.550817    3.298227   -4.235966
     91          1           0       -5.521001    4.654209   -4.078994
     92          1           0       -7.110686    5.958560   -4.862474
     93          1           0       -8.014692    5.708831   -3.378253
     94          1           0       -8.333083    4.668005   -4.761646
     95          1           0       -9.340782   -0.743262   -2.561832
     96          1           0       -8.534707   -2.044345   -3.221122
     97          1           0       -8.122427   -0.491462   -3.958314
     98          1           0       -5.009036   -4.356059   -0.648615
     99          1           0       -6.353056   -3.773507    4.225284
    100          1           0       -6.571178   -5.346771    3.508022
    101          1           0       -7.965854   -4.196317    3.391904
    102          1           0        1.272267   -4.042768   -3.464555
    103          1           0        1.701892   -4.680371   -2.113941
    104          1           0        2.046618   -1.779400   -1.477619
    105          1           0        3.325679   -3.815468   -4.309776
    106          1           0        4.901262   -3.000661   -4.062236
    107          1           0        3.765861   -2.334781   -5.195676
    108          1           0        3.483509   -0.091852   -2.309736
    109          1           0        4.470582   -0.297471   -3.592452
    110          1           0        5.187142   -2.124369   -1.275156
    111          1           0        4.956214   -0.476851   -0.831527
    112          1           0        6.665026   -0.600652   -3.224592
    113          1           0        7.277034   -1.725615   -1.979649
    114          1           0        6.461832    0.985021   -0.944755
    115          1           0        8.804729    0.924781   -2.755003
    116          1           0        8.356984    2.306582   -1.824263
    117          1           0        7.281549    1.764328   -3.149627
    118          1           0        9.159568    0.747890   -0.389148
    119          1           0        8.865395   -0.971539   -0.648583
    120          1           0        7.711270   -1.092430    1.321485
    121          1           0        7.032960    0.437824    1.161227
    122          1           0        8.937115    0.119219    3.012489
    123          1           0        9.106110    1.524467    1.919987
    124          1           0       10.401524   -1.133925    1.027071
    125          1           0       10.493887   -1.486253    3.416538
    126          1           0       11.573110   -0.040178    3.431468
    127          1           0       12.000305   -1.525017    2.529238
    128          1           0       12.372475    0.992317    1.663141
    129          1           0       11.088673    1.810271    0.825105
    130          1           0       12.221280    1.204526   -1.080055
    131          1           0       11.778177   -0.488566   -0.793037
    132          1           0       13.727634   -1.185432   -0.768331
    133          1           0       14.041991   -0.402288    0.763716
    134          1           0       14.430735    1.226113   -1.695230
    135          1           0       15.537179   -0.430784   -2.478328
    136          1           0       15.971341   -1.291339   -1.029689
    137          1           0       16.849171    0.166278   -1.580376
    138          1           0       15.528424    2.549341   -0.290050
    139          1           0       16.474436    1.267134    0.473223
    140          1           0       14.773815    1.635345    1.038479
 ---------------------------------------------------------------------

 SCF Done:  E(RPBE1PBE) =  -3005.34317576     A.U. after   15 cycles

 Excitation energies and oscillator strengths:

 Excited State   1:      Singlet-A      1.8454 eV  671.86 nm  f=0.3366  <S**2>=0.000
     245 -> 248        0.17563
     246 -> 247        0.69182
     246 <- 247       -0.10687
 This state for optimization and/or second-order correction.
 Total Energy, E(TD-HF/TD-DFT) =  -3005.27535934
 Copying the excited state density for this state as the 1-particle RhoCI density.

 Excited State   2:      Singlet-A      2.2670 eV  546.91 nm  f=0.0539  <S**2>=0.000
     245 -> 247        0.61908
     246 -> 248       -0.32971

 Excited State   3:      Singlet-A      3.0379 eV  408.13 nm  f=0.0000  <S**2>=0.000
     242 -> 247        0.14488
     243 -> 247        0.64898
     243 -> 249       -0.12588
     243 -> 250       -0.13487

 Excited State   4:      Singlet-A      3.1263 eV  396.58 nm  f=0.0202  <S**2>=0.000
     242 -> 247        0.63922
     243 -> 247       -0.16666
     246 -> 248        0.18429

 Excited State   5:      Singlet-A      3.1791 eV  390.00 nm  f=0.0043  <S**2>=0.000
     240 -> 247        0.65967
     240 -> 249        0.19057

 The electronic state is 1-A.
 Alpha  occ. eigenvalues --  -46.92067 -19.26189 -19.24846 -19.20814 -19.20461
 Alpha  occ. eigenvalues --  -19.20045 -19.18796 -14.42425 -14.42087 -14.39780
 Alpha  occ. eigenvalues --  -14.39311 -10.37281 -10.36886 -10.33196 -10.32283
 Alpha  occ. eigenvalues --  -10.29688 -10.29374 -10.29361 -10.29226 -10.29202
 Alpha  occ. eigenvalues --  -10.29147 -10.29056 -10.27692 -10.27494 -10.27152
 Alpha  occ. eigenvalues --  -10.26856 -10.26584 -10.26467 -10.26451 -10.26274
 Alpha  occ. eigenvalues --  -10.26119 -10.25938 -10.25899 -10.25874 -10.25098
 Alpha  occ. eigenvalues --  -10.24966 -10.24865 -10.24800 -10.24673 -10.24556
 Alpha  occ. eigenvalues --  -10.24476 -10.24382 -10.24352 -10.23588 -10.23476
 Alpha  occ. eigenvalues --  -10.23405 -10.23363 -10.23303 -10.23278 -10.22968
 Alpha  occ. eigenvalues --  -10.22936 -10.22933 -10.22897 -10.22881 -10.22639
 Alpha  occ. eigenvalues --  -10.22625 -10.22574 -10.22377 -10.22370 -10.21852
 Alpha  occ. eigenvalues --  -10.21796 -10.21608 -10.21489 -10.21469 -10.21379
 Alpha  occ. eigenvalues --  -10.21211  -3.14250  -1.87098  -1.86615  -1.86483
 Alpha  occ. eigenvalues --   -1.10055  -1.08616  -1.06044  -1.03533  -1.01777
 Alpha  occ. eigenvalues --   -1.01318  -0.99219  -0.98419  -0.98269  -0.97248
 Alpha  occ. eigenvalues --   -0.88288  -0.84118  -0.84028  -0.83635  -0.83433
 Alpha  occ. eigenvalues --   -0.83105  -0.82811  -0.81947  -0.81434  -0.81103
 Alpha  occ. eigenvalues --   -0.80726  -0.79615  -0.78549  -0.78146  -0.77344
 Alpha  occ. eigenvalues --   -0.76932  -0.76247  -0.75860  -0.75453  -0.74495
 Alpha  occ. eigenvalues --   -0.73914  -0.72925  -0.72523  -0.71885  -0.71339
 Alpha  occ. eigenvalues --   -0.69902  -0.69732  -0.69526  -0.68463  -0.68048
 Alpha  occ. eigenvalues --   -0.67593  -0.66983  -0.66799  -0.65437  -0.63996
 Alpha  occ. eigenvalues --   -0.63770  -0.62115  -0.61875  -0.60916  -0.60323
 Alpha  occ. eigenvalues --   -0.60185  -0.59939  -0.59593  -0.59400  -0.58086
 Alpha  occ. eigenvalues --   -0.57976  -0.57002  -0.56933  -0.56294  -0.55034
 Alpha  occ. eigenvalues --   -0.54432  -0.53876  -0.53823  -0.53028  -0.52828
 Alpha  occ. eigenvalues --   -0.52292  -0.51759  -0.51375  -0.50858  -0.50287
 Alpha  occ. eigenvalues --   -0.49892  -0.49584  -0.48862  -0.48564  -0.48421
 Alpha  occ. eigenvalues --   -0.48359  -0.47852  -0.47657  -0.47591  -0.47463
 Alpha  occ. eigenvalues --   -0.47047  -0.46722  -0.46615  -0.46387  -0.46244
 Alpha  occ. eigenvalues --   -0.46149  -0.46077  -0.45853  -0.45759  -0.45077
 Alpha  occ. eigenvalues --   -0.44990  -0.44945  -0.44714  -0.44592  -0.44493
 Alpha  occ. eigenvalues --   -0.44424  -0.44284  -0.43926  -0.43708  -0.43525
 Alpha  occ. eigenvalues --   -0.43144  -0.43077  -0.42806  -0.42658  -0.42437
 Alpha  occ. eigenvalues --   -0.42104  -0.42004  -0.41880  -0.41708  -0.41611
 Alpha  occ. eigenvalues --   -0.41386  -0.41225  -0.40773  -0.40500  -0.40446
 Alpha  occ. eigenvalues --   -0.40248  -0.40101  -0.40036  -0.39703  -0.39547
 Alpha  occ. eigenvalues --   -0.39274  -0.39219  -0.38962  -0.38836  -0.38672
 Alpha  occ. eigenvalues --   -0.38387  -0.38314  -0.38236  -0.38159  -0.38080
 Alpha  occ. eigenvalues --   -0.37689  -0.37386  -0.37151  -0.37091  -0.36928
 Alpha  occ. eigenvalues --   -0.36709  -0.36501  -0.36403  -0.36242  -0.36118
 Alpha  occ. eigenvalues --   -0.35864  -0.35692  -0.35416  -0.35133  -0.35036
 Alpha  occ. eigenvalues --   -0.34401  -0.34309  -0.34214  -0.34025  -0.33223
 Alpha  occ. eigenvalues --   -0.32907  -0.32743  -0.32713  -0.32494  -0.32457
 Alpha  occ. eigenvalues --   -0.32163  -0.31761  -0.31543  -0.31403  -0.31114
 Alpha  occ. eigenvalues --   -0.31044  -0.30376  -0.30043  -0.29859  -0.29814
 Alpha  occ. eigenvalues --   -0.29208  -0.29130  -0.28727  -0.27332  -0.26535
 Alpha  occ. eigenvalues --   -0.26291  -0.25860  -0.25671  -0.24773  -0.21763
 Alpha  occ. eigenvalues --   -0.19053
 Alpha virt. eigenvalues --   -0.11445  -0.06279  -0.04611  -0.02826  -0.00548
 Alpha virt. eigenvalues --   -0.00156  -0.00072   0.00718   0.01750   0.02347
 Alpha virt. eigenvalues --    0.03243   0.04245   0.04648   0.05037   0.05849

 Mulliken charges:
               1
     1  Mg   0.978768
     2  C    0.018546
     3  C   -0.070807
     4  C   -0.060797
     5  C   -0.081364
     6  N   -0.372875
     7  C    0.007739
     8  C   -0.076962
     9  C   -0.136298
    10  C    0.075998
    11  C   -0.012254
    12  C    0.025092
    13  C   -0.048761
    14  C    0.268766
    15  O   -0.255581
    16  O   -0.410465
    17  N   -0.474403
    18  C    0.191306
    19  C   -0.161935
    20  C   -0.062140
    21  C    0.164612
    22  C    0.058987
    23  C    0.053015
    24  O   -0.259541
    25  C   -0.020261
    26  N   -0.426810
    27  C    0.077070
    28  C   -0.130227
    29  C   -0.155498
    30  C    0.139817
    31  C    0.026712
    32  C   -0.017833
    33  C   -0.053762
    34  N   -0.499899
    35  C    0.123358
    36  C   -0.201975
    37  C   -0.001806
    38  C    0.144463
    39  C    0.062516
    40  C    0.091957
    41  O   -0.180731
    42  C   -0.117643
    43  C    0.302608
    44  O   -0.264351
    45  O   -0.390792
    46  C    0.118140
    47  C    0.227939
    48  C   -0.057066
    49  C   -0.235470
    50  C    0.025030
    51  C   -0.020379
    52  C   -0.060983
    53  C    0.038491
    54  C   -0.169329
    55  C   -0.022493
    56  C   -0.038836
    57  C   -0.078881
    58  C    0.002228
    59  C   -0.215652
    60  C   -0.040213
    61  C    0.002406
    62  C   -0.040030
    63  C   -0.019632
    64  C   -0.250546
    65  C   -0.030634
    66  C    0.006401
    67  H    0.007150
    68  H   -0.014208
    69  H    0.006313
    70  H    0.044526
    71  H    0.048407
    72  H    0.044475
    73  H    0.040826
    74  H    0.054345
    75  H    0.043031
    76  H    0.051386
    77  H    0.086250
    78  H    0.070040
    79  H    0.060728
    80  H    0.039304
    81  H    0.049600
    82  H    0.072842
    83  H    0.061516
    84  H    0.047863
    85  H    0.059710
    86  H    0.057363
    87  H    0.046344
    88  H    0.052501
    89  H    0.048271
    90  H    0.041762
    91  H    0.023942
    92  H    0.044251
    93  H    0.033892
    94  H    0.046763
    95  H    0.058488
    96  H    0.047315
    97  H    0.060471
    98  H    0.090554
    99  H    0.061787
   100  H    0.068993
   101  H    0.075877
   102  H    0.036433
   103  H    0.049227
   104  H    0.019765
   105  H    0.029129
   106  H    0.044330
   107  H    0.052194
   108  H    0.025313
   109  H    0.024158
   110  H    0.038556
   111  H    0.035537
   112  H    0.022972
   113  H    0.034657
   114  H    0.033873
   115  H    0.030752
   116  H    0.037881
   117  H    0.030619
   118  H    0.026521
   119  H    0.032613
   120  H    0.016047
   121  H    0.018976
   122  H    0.029689
   123  H    0.041603
   124  H    0.043925
   125  H    0.040271
   126  H    0.035364
   127  H    0.033752
   128  H    0.023912
   129  H    0.027793
   130  H    0.032755
   131  H    0.028440
   132  H    0.024715
   133  H    0.027867
   134  H    0.032564
   135  H    0.023549
   136  H    0.042471
   137  H    0.024822
   138  H    0.032593
   139  H    0.041433
   140  H    0.034198
 Sum of Mulliken charges =  -0.00000

 Dipole moment (field-independent basis, Debye):
    X=             -1.0396    Y=              5.3521    Z=             -0.7169  Tot=              5.4991
 Quadrupole moment (field-independent basis, Debye-Ang):
   XX=           -396.6661   YY=           -427.4370   ZZ=           -385.3393
   XY=            -51.2088   XZ=            -19.1059   YZ=            -31.4965

 Normal termination of Gaussian 16 at Wed Apr 27 03:19:06 2022.
