 Gaussian 16, Revision A.03,
 Gaussian 16:  ES64L-G16RevA.03 25-Dec-2016

 --------------------------------
 #p wB97XD/Def2SVP td=(nstates=5)
 --------------------------------

 ----------------------------------------------------
 step_1051_chromophore_2 TDDFT with wB97XD functional
 ----------------------------------------------------
 Symbolic Z-matrix:
 Charge =  0 Multiplicity = 1

                         Standard orientation:
 ---------------------------------------------------------------------
 Center     Atomic      Atomic             Coordinates (Angstroms)
 Number     Number       Type             X           Y           Z
 ---------------------------------------------------------------------
      1         12           0       -4.485398    1.156453    0.510386
      2          6           0       -5.015053   -2.398680    0.242076
      3          6           0       -2.155709    0.452440    2.966394
      4          6           0       -3.575814    4.385715    0.442264
      5          6           0       -6.638107    1.589143   -2.116011
      6          7           0       -3.711802   -0.721595    1.435090
      7          6           0       -3.998805   -2.020561    1.115013
      8          6           0       -3.208335   -3.058139    1.969053
      9          6           0       -2.611443   -2.076268    3.091647
     10          6           0       -2.830480   -0.655839    2.481016
     11          6           0       -3.235787   -2.125518    4.561775
     12          6           0       -2.183851   -3.990008    1.283719
     13          6           0       -1.748754   -3.688789   -0.166509
     14          6           0       -0.352681   -4.066744   -0.643888
     15          8           0        0.475855   -4.725371   -0.010313
     16          8           0       -0.043822   -3.516981   -1.947315
     17          7           0       -2.977256    2.259150    1.520887
     18          6           0       -2.205264    1.743576    2.534895
     19          6           0       -1.391478    2.874607    2.979343
     20          6           0       -1.723139    4.015285    2.299351
     21          6           0       -2.777266    3.578075    1.341706
     22          6           0       -0.385743    2.742093    4.143452
     23          6           0       -1.150953    5.390395    2.499831
     24          8           0       -0.299582    5.603259    3.384909
     25          6           0       -1.552499    6.539667    1.671795
     26          7           0       -4.927291    2.761410   -0.713033
     27          6           0       -4.607767    4.046266   -0.435031
     28          6           0       -5.194982    5.011116   -1.520248
     29          6           0       -6.317176    4.070659   -2.187764
     30          6           0       -5.816683    2.715978   -1.762244
     31          6           0       -5.712840    6.457895   -1.119632
     32          6           0       -6.468161    4.253821   -3.717638
     33          6           0       -7.548734    5.195418   -4.219357
     34          7           0       -5.712535   -0.040689   -0.625009
     35          6           0       -6.577558    0.283458   -1.638669
     36          6           0       -7.305145   -0.939230   -2.004436
     37          6           0       -6.762457   -2.012450   -1.271778
     38          6           0       -5.756335   -1.421848   -0.488856
     39          6           0       -8.381942   -0.983566   -3.021181
     40          6           0       -6.812982   -3.433458   -1.083158
     41          8           0       -7.572138   -4.251710   -1.558305
     42          6           0       -5.639553   -3.709277   -0.039559
     43          6           0       -6.213275   -4.467789    1.077817
     44          8           0       -6.361867   -5.705548    1.032002
     45          8           0       -6.477201   -3.650320    2.174107
     46          6           0       -6.882488   -4.304437    3.434386
     47          6           0        1.343403   -3.701370   -2.431538
     48          6           0        2.319177   -2.518653   -2.231756
     49          6           0        3.315770   -2.107543   -3.024453
     50          6           0        3.835873   -2.854350   -4.239531
     51          6           0        4.154906   -0.852361   -2.708546
     52          6           0        5.291713   -1.106973   -1.655040
     53          6           0        6.753937   -0.784820   -2.153909
     54          6           0        7.275996    0.450477   -1.435364
     55          6           0        7.939982    1.443334   -2.341954
     56          6           0        8.387726   -0.020479   -0.413111
     57          6           0        7.990379   -0.072410    1.058727
     58          6           0        9.218941    0.444389    2.011161
     59          6           0       10.547017   -0.205129    1.579568
     60          6           0       11.186347   -0.871639    2.841332
     61          6           0       11.567059    0.838665    0.945360
     62          6           0       12.312486    0.368558   -0.385285
     63          6           0       13.740209   -0.217261   -0.266986
     64          6           0       14.815402    0.650655   -0.852395
     65          6           0       15.868941   -0.290864   -1.449029
     66          6           0       15.466484    1.578037    0.199947
     67          1           0       -1.500432    0.238626    3.813593
     68          1           0       -3.532340    5.464973    0.604321
     69          1           0       -7.303360    1.595058   -2.981748
     70          1           0       -3.914238   -3.760782    2.415297
     71          1           0       -1.550011   -2.265565    3.246192
     72          1           0       -2.419486   -2.048453    5.279429
     73          1           0       -3.721567   -3.079758    4.765419
     74          1           0       -3.941484   -1.333285    4.811303
     75          1           0       -2.749455   -4.906695    1.448533
     76          1           0       -1.277158   -4.167171    1.863328
     77          1           0       -1.851472   -2.612936   -0.306845
     78          1           0       -2.480670   -4.072623   -0.876825
     79          1           0        0.436990    3.452734    4.223732
     80          1           0       -0.050006    1.706340    4.200535
     81          1           0       -0.871239    3.025589    5.077026
     82          1           0       -2.619347    6.726108    1.797800
     83          1           0       -1.328239    6.415004    0.611716
     84          1           0       -1.007295    7.464094    1.860978
     85          1           0       -4.419710    5.156459   -2.273814
     86          1           0       -7.284424    4.121626   -1.688627
     87          1           0       -5.093382    7.190569   -1.635894
     88          1           0       -5.586003    6.577281   -0.043929
     89          1           0       -6.741129    6.441662   -1.480788
     90          1           0       -6.550817    3.298227   -4.235966
     91          1           0       -5.521001    4.654209   -4.078994
     92          1           0       -7.110686    5.958560   -4.862474
     93          1           0       -8.014692    5.708831   -3.378253
     94          1           0       -8.333083    4.668005   -4.761646
     95          1           0       -9.340782   -0.743262   -2.561832
     96          1           0       -8.534707   -2.044345   -3.221122
     97          1           0       -8.122427   -0.491462   -3.958314
     98          1           0       -5.009036   -4.356059   -0.648615
     99          1           0       -6.353056   -3.773507    4.225284
    100          1           0       -6.571178   -5.346771    3.508022
    101          1           0       -7.965854   -4.196317    3.391904
    102          1           0        1.272267   -4.042768   -3.464555
    103          1           0        1.701892   -4.680371   -2.113941
    104          1           0        2.046618   -1.779400   -1.477619
    105          1           0        3.325679   -3.815468   -4.309776
    106          1           0        4.901262   -3.000661   -4.062236
    107          1           0        3.765861   -2.334781   -5.195676
    108          1           0        3.483509   -0.091852   -2.309736
    109          1           0        4.470582   -0.297471   -3.592452
    110          1           0        5.187142   -2.124369   -1.275156
    111          1           0        4.956214   -0.476851   -0.831527
    112          1           0        6.665026   -0.600652   -3.224592
    113          1           0        7.277034   -1.725615   -1.979649
    114          1           0        6.461832    0.985021   -0.944755
    115          1           0        8.804729    0.924781   -2.755003
    116          1           0        8.356984    2.306582   -1.824263
    117          1           0        7.281549    1.764328   -3.149627
    118          1           0        9.159568    0.747890   -0.389148
    119          1           0        8.865395   -0.971539   -0.648583
    120          1           0        7.711270   -1.092430    1.321485
    121          1           0        7.032960    0.437824    1.161227
    122          1           0        8.937115    0.119219    3.012489
    123          1           0        9.106110    1.524467    1.919987
    124          1           0       10.401524   -1.133925    1.027071
    125          1           0       10.493887   -1.486253    3.416538
    126          1           0       11.573110   -0.040178    3.431468
    127          1           0       12.000305   -1.525017    2.529238
    128          1           0       12.372475    0.992317    1.663141
    129          1           0       11.088673    1.810271    0.825105
    130          1           0       12.221280    1.204526   -1.080055
    131          1           0       11.778177   -0.488566   -0.793037
    132          1           0       13.727634   -1.185432   -0.768331
    133          1           0       14.041991   -0.402288    0.763716
    134          1           0       14.430735    1.226113   -1.695230
    135          1           0       15.537179   -0.430784   -2.478328
    136          1           0       15.971341   -1.291339   -1.029689
    137          1           0       16.849171    0.166278   -1.580376
    138          1           0       15.528424    2.549341   -0.290050
    139          1           0       16.474436    1.267134    0.473223
    140          1           0       14.773815    1.635345    1.038479
 ---------------------------------------------------------------------

 SCF Done:  E(RwB97XD) =  -3007.85290426     A.U. after   20 cycles

 Excitation energies and oscillator strengths:

 Excited State   1:      Singlet-A      1.6387 eV  756.59 nm  f=0.3455  <S**2>=0.000
     245 -> 248        0.18943
     246 -> 247        0.68222
     245 <- 248        0.11876
 This state for optimization and/or second-order correction.
 Total Energy, E(TD-HF/TD-DFT) =  -3007.79268213
 Copying the excited state density for this state as the 1-particle RhoCI density.

 Excited State   2:      Singlet-A      2.2043 eV  562.46 nm  f=0.0465  <S**2>=0.000
     245 -> 247        0.59916
     246 -> 248       -0.36345

 Excited State   3:      Singlet-A      3.4039 eV  364.24 nm  f=0.5572  <S**2>=0.000
     242 -> 247        0.11033
     243 -> 247       -0.31168
     245 -> 247        0.30134
     246 -> 248        0.53980
     245 <- 247       -0.10459

 Excited State   4:      Singlet-A      3.5144 eV  352.79 nm  f=0.1347  <S**2>=0.000
     242 -> 247        0.27778
     242 -> 249       -0.11592
     243 -> 247        0.56379
     245 -> 247        0.13555
     246 -> 248        0.20756

 Excited State   5:      Singlet-A      3.5833 eV  346.00 nm  f=0.0249  <S**2>=0.000
     241 -> 247        0.40749
     241 -> 248       -0.11680
     241 -> 249       -0.24587
     241 -> 250       -0.28807
     242 -> 247        0.23285
     242 -> 249       -0.14357
     242 -> 250       -0.19416
     243 -> 247       -0.14366

 The electronic state is 1-A.
 Alpha  occ. eigenvalues --  -46.95031 -19.30771 -19.29395 -19.25486 -19.25230
 Alpha  occ. eigenvalues --  -19.24782 -19.23668 -14.47563 -14.47124 -14.44797
 Alpha  occ. eigenvalues --  -14.44204 -10.44074 -10.43761 -10.40030 -10.39177
 Alpha  occ. eigenvalues --  -10.36211 -10.35631 -10.35605 -10.35584 -10.35575
 Alpha  occ. eigenvalues --  -10.35553 -10.35548 -10.34161 -10.33696 -10.33380
 Alpha  occ. eigenvalues --  -10.33077 -10.32888 -10.32848 -10.32713 -10.32606
 Alpha  occ. eigenvalues --  -10.32524 -10.32329 -10.32288 -10.32215 -10.31485
 Alpha  occ. eigenvalues --  -10.31377 -10.31302 -10.31158 -10.31073 -10.31031
 Alpha  occ. eigenvalues --  -10.30830 -10.30782 -10.30639 -10.30079 -10.29851
 Alpha  occ. eigenvalues --  -10.29786 -10.29740 -10.29685 -10.29550 -10.29483
 Alpha  occ. eigenvalues --  -10.29399 -10.29338 -10.29241 -10.29191 -10.28992
 Alpha  occ. eigenvalues --  -10.28981 -10.28854 -10.28746 -10.28739 -10.28216
 Alpha  occ. eigenvalues --  -10.28163 -10.28036 -10.27896 -10.27860 -10.27829
 Alpha  occ. eigenvalues --  -10.27631  -3.21060  -1.94658  -1.94176  -1.94046
 Alpha  occ. eigenvalues --   -1.17497  -1.16006  -1.13485  -1.11094  -1.09185
 Alpha  occ. eigenvalues --   -1.08667  -1.06627  -1.05829  -1.05657  -1.04607
 Alpha  occ. eigenvalues --   -0.95892  -0.91800  -0.91621  -0.91280  -0.91096
 Alpha  occ. eigenvalues --   -0.90740  -0.90484  -0.89542  -0.89103  -0.88663
 Alpha  occ. eigenvalues --   -0.88464  -0.87280  -0.86176  -0.85813  -0.85018
 Alpha  occ. eigenvalues --   -0.84617  -0.83939  -0.83527  -0.83062  -0.82151
 Alpha  occ. eigenvalues --   -0.81578  -0.80524  -0.80173  -0.79572  -0.78982
 Alpha  occ. eigenvalues --   -0.77593  -0.77351  -0.77227  -0.76142  -0.75664
 Alpha  occ. eigenvalues --   -0.75236  -0.74548  -0.74339  -0.73035  -0.71545
 Alpha  occ. eigenvalues --   -0.71278  -0.69725  -0.69522  -0.68555  -0.67833
 Alpha  occ. eigenvalues --   -0.67683  -0.67391  -0.67109  -0.67003  -0.65775
 Alpha  occ. eigenvalues --   -0.65432  -0.64663  -0.64364  -0.63949  -0.62478
 Alpha  occ. eigenvalues --   -0.61807  -0.61408  -0.61265  -0.60396  -0.60259
 Alpha  occ. eigenvalues --   -0.59796  -0.59199  -0.58831  -0.58305  -0.57620
 Alpha  occ. eigenvalues --   -0.57274  -0.57049  -0.56303  -0.55883  -0.55809
 Alpha  occ. eigenvalues --   -0.55763  -0.55177  -0.55054  -0.54983  -0.54776
 Alpha  occ. eigenvalues --   -0.54561  -0.54217  -0.54014  -0.53725  -0.53644
 Alpha  occ. eigenvalues --   -0.53473  -0.53435  -0.53232  -0.53131  -0.52414
 Alpha  occ. eigenvalues --   -0.52348  -0.52226  -0.52108  -0.51964  -0.51774
 Alpha  occ. eigenvalues --   -0.51720  -0.51562  -0.51255  -0.51129  -0.50830
 Alpha  occ. eigenvalues --   -0.50416  -0.50328  -0.50127  -0.49992  -0.49791
 Alpha  occ. eigenvalues --   -0.49317  -0.49275  -0.49145  -0.48922  -0.48771
 Alpha  occ. eigenvalues --   -0.48642  -0.48470  -0.47957  -0.47765  -0.47719
 Alpha  occ. eigenvalues --   -0.47487  -0.47301  -0.47270  -0.46913  -0.46796
 Alpha  occ. eigenvalues --   -0.46477  -0.46415  -0.46178  -0.46027  -0.45815
 Alpha  occ. eigenvalues --   -0.45525  -0.45428  -0.45378  -0.45284  -0.45230
 Alpha  occ. eigenvalues --   -0.44757  -0.44555  -0.44281  -0.44186  -0.43994
 Alpha  occ. eigenvalues --   -0.43734  -0.43571  -0.43472  -0.43333  -0.43239
 Alpha  occ. eigenvalues --   -0.43018  -0.42881  -0.42367  -0.42178  -0.42033
 Alpha  occ. eigenvalues --   -0.41482  -0.41278  -0.41246  -0.41111  -0.40235
 Alpha  occ. eigenvalues --   -0.40002  -0.39761  -0.39648  -0.39531  -0.39509
 Alpha  occ. eigenvalues --   -0.39006  -0.38840  -0.38618  -0.38419  -0.38140
 Alpha  occ. eigenvalues --   -0.38066  -0.37322  -0.36900  -0.36698  -0.36687
 Alpha  occ. eigenvalues --   -0.36319  -0.36038  -0.35617  -0.33926  -0.33550
 Alpha  occ. eigenvalues --   -0.33102  -0.32847  -0.32318  -0.31512  -0.26814
 Alpha  occ. eigenvalues --   -0.23178
 Alpha virt. eigenvalues --   -0.07232  -0.00950   0.01685   0.03682   0.05484
 Alpha virt. eigenvalues --    0.06472   0.06748   0.07415   0.08444   0.08764
 Alpha virt. eigenvalues --    0.09741   0.10979   0.11374   0.11791   0.12558

 Mulliken charges:
               1
     1  Mg   0.968014
     2  C    0.014656
     3  C   -0.088506
     4  C   -0.065869
     5  C   -0.092327
     6  N   -0.334957
     7  C   -0.022276
     8  C   -0.053051
     9  C   -0.111089
    10  C    0.061958
    11  C   -0.002002
    12  C    0.030567
    13  C   -0.026431
    14  C    0.260405
    15  O   -0.253369
    16  O   -0.410409
    17  N   -0.439240
    18  C    0.183180
    19  C   -0.153233
    20  C   -0.052444
    21  C    0.154561
    22  C    0.068668
    23  C    0.049846
    24  O   -0.254151
    25  C   -0.009233
    26  N   -0.395396
    27  C    0.061906
    28  C   -0.108563
    29  C   -0.121176
    30  C    0.120287
    31  C    0.041629
    32  C   -0.007298
    33  C   -0.037625
    34  N   -0.463335
    35  C    0.111979
    36  C   -0.195936
    37  C   -0.001234
    38  C    0.131472
    39  C    0.070421
    40  C    0.076006
    41  O   -0.170583
    42  C   -0.081394
    43  C    0.282188
    44  O   -0.259059
    45  O   -0.389303
    46  C    0.132458
    47  C    0.240685
    48  C   -0.068336
    49  C   -0.217803
    50  C    0.039346
    51  C   -0.004618
    52  C   -0.045419
    53  C    0.049478
    54  C   -0.138680
    55  C   -0.005753
    56  C   -0.010532
    57  C   -0.065819
    58  C    0.018221
    59  C   -0.186948
    60  C   -0.024226
    61  C    0.018508
    62  C   -0.024289
    63  C   -0.002222
    64  C   -0.222361
    65  C   -0.018597
    66  C    0.018939
    67  H    0.001810
    68  H   -0.029882
    69  H   -0.002211
    70  H    0.025024
    71  H    0.039379
    72  H    0.039206
    73  H    0.034425
    74  H    0.048360
    75  H    0.036790
    76  H    0.045302
    77  H    0.076080
    78  H    0.062364
    79  H    0.058001
    80  H    0.033989
    81  H    0.045182
    82  H    0.068004
    83  H    0.056668
    84  H    0.047123
    85  H    0.048213
    86  H    0.045129
    87  H    0.041644
    88  H    0.046600
    89  H    0.039587
    90  H    0.034119
    91  H    0.015340
    92  H    0.038943
    93  H    0.025509
    94  H    0.041807
    95  H    0.053598
    96  H    0.042172
    97  H    0.056371
    98  H    0.083091
    99  H    0.057981
   100  H    0.065642
   101  H    0.072748
   102  H    0.031067
   103  H    0.044859
   104  H    0.016766
   105  H    0.022665
   106  H    0.036564
   107  H    0.047758
   108  H    0.017814
   109  H    0.016428
   110  H    0.030239
   111  H    0.025889
   112  H    0.012474
   113  H    0.027916
   114  H    0.021441
   115  H    0.022049
   116  H    0.032018
   117  H    0.024996
   118  H    0.001206
   119  H    0.021476
   120  H    0.007231
   121  H    0.010480
   122  H    0.021877
   123  H    0.033118
   124  H    0.029696
   125  H    0.034334
   126  H    0.027625
   127  H    0.027059
   128  H    0.009466
   129  H    0.021349
   130  H    0.025492
   131  H    0.018478
   132  H    0.016364
   133  H    0.016181
   134  H    0.022060
   135  H    0.016561
   136  H    0.036520
   137  H    0.019036
   138  H    0.027196
   139  H    0.036310
   140  H    0.025546
 Sum of Mulliken charges =  -0.00000

 Dipole moment (field-independent basis, Debye):
    X=             -0.9071    Y=              5.4676    Z=             -0.5369  Tot=              5.5683
 Quadrupole moment (field-independent basis, Debye-Ang):
   XX=           -397.3663   YY=           -426.6981   ZZ=           -384.8025
   XY=            -50.9425   XZ=            -20.1166   YZ=            -30.9692

 Normal termination of Gaussian 16 at Wed Apr 27 03:52:48 2022.
