 Gaussian 16, Revision A.03,
 Gaussian 16:  ES64L-G16RevA.03 25-Dec-2016

 --------------------
 #p ZINDO=(nstates=5)
 --------------------

 -----------------------------
 step_1051_chromophore_2 ZINDO
 -----------------------------
 Symbolic Z-matrix:
 Charge =  0 Multiplicity = 1

                         Standard orientation:
 ---------------------------------------------------------------------
 Center     Atomic      Atomic             Coordinates (Angstroms)
 Number     Number       Type             X           Y           Z
 ---------------------------------------------------------------------
      1         12           0       -4.485398    1.156453    0.510386
      2          6           0       -5.015053   -2.398680    0.242076
      3          6           0       -2.155709    0.452440    2.966394
      4          6           0       -3.575814    4.385715    0.442264
      5          6           0       -6.638107    1.589143   -2.116011
      6          7           0       -3.711802   -0.721595    1.435090
      7          6           0       -3.998805   -2.020561    1.115013
      8          6           0       -3.208335   -3.058139    1.969053
      9          6           0       -2.611443   -2.076268    3.091647
     10          6           0       -2.830480   -0.655839    2.481016
     11          6           0       -3.235787   -2.125518    4.561775
     12          6           0       -2.183851   -3.990008    1.283719
     13          6           0       -1.748754   -3.688789   -0.166509
     14          6           0       -0.352681   -4.066744   -0.643888
     15          8           0        0.475855   -4.725371   -0.010313
     16          8           0       -0.043822   -3.516981   -1.947315
     17          7           0       -2.977256    2.259150    1.520887
     18          6           0       -2.205264    1.743576    2.534895
     19          6           0       -1.391478    2.874607    2.979343
     20          6           0       -1.723139    4.015285    2.299351
     21          6           0       -2.777266    3.578075    1.341706
     22          6           0       -0.385743    2.742093    4.143452
     23          6           0       -1.150953    5.390395    2.499831
     24          8           0       -0.299582    5.603259    3.384909
     25          6           0       -1.552499    6.539667    1.671795
     26          7           0       -4.927291    2.761410   -0.713033
     27          6           0       -4.607767    4.046266   -0.435031
     28          6           0       -5.194982    5.011116   -1.520248
     29          6           0       -6.317176    4.070659   -2.187764
     30          6           0       -5.816683    2.715978   -1.762244
     31          6           0       -5.712840    6.457895   -1.119632
     32          6           0       -6.468161    4.253821   -3.717638
     33          6           0       -7.548734    5.195418   -4.219357
     34          7           0       -5.712535   -0.040689   -0.625009
     35          6           0       -6.577558    0.283458   -1.638669
     36          6           0       -7.305145   -0.939230   -2.004436
     37          6           0       -6.762457   -2.012450   -1.271778
     38          6           0       -5.756335   -1.421848   -0.488856
     39          6           0       -8.381942   -0.983566   -3.021181
     40          6           0       -6.812982   -3.433458   -1.083158
     41          8           0       -7.572138   -4.251710   -1.558305
     42          6           0       -5.639553   -3.709277   -0.039559
     43          6           0       -6.213275   -4.467789    1.077817
     44          8           0       -6.361867   -5.705548    1.032002
     45          8           0       -6.477201   -3.650320    2.174107
     46          6           0       -6.882488   -4.304437    3.434386
     47          6           0        1.343403   -3.701370   -2.431538
     48          6           0        2.319177   -2.518653   -2.231756
     49          6           0        3.315770   -2.107543   -3.024453
     50          6           0        3.835873   -2.854350   -4.239531
     51          6           0        4.154906   -0.852361   -2.708546
     52          6           0        5.291713   -1.106973   -1.655040
     53          6           0        6.753937   -0.784820   -2.153909
     54          6           0        7.275996    0.450477   -1.435364
     55          6           0        7.939982    1.443334   -2.341954
     56          6           0        8.387726   -0.020479   -0.413111
     57          6           0        7.990379   -0.072410    1.058727
     58          6           0        9.218941    0.444389    2.011161
     59          6           0       10.547017   -0.205129    1.579568
     60          6           0       11.186347   -0.871639    2.841332
     61          6           0       11.567059    0.838665    0.945360
     62          6           0       12.312486    0.368558   -0.385285
     63          6           0       13.740209   -0.217261   -0.266986
     64          6           0       14.815402    0.650655   -0.852395
     65          6           0       15.868941   -0.290864   -1.449029
     66          6           0       15.466484    1.578037    0.199947
     67          1           0       -1.500432    0.238626    3.813593
     68          1           0       -3.532340    5.464973    0.604321
     69          1           0       -7.303360    1.595058   -2.981748
     70          1           0       -3.914238   -3.760782    2.415297
     71          1           0       -1.550011   -2.265565    3.246192
     72          1           0       -2.419486   -2.048453    5.279429
     73          1           0       -3.721567   -3.079758    4.765419
     74          1           0       -3.941484   -1.333285    4.811303
     75          1           0       -2.749455   -4.906695    1.448533
     76          1           0       -1.277158   -4.167171    1.863328
     77          1           0       -1.851472   -2.612936   -0.306845
     78          1           0       -2.480670   -4.072623   -0.876825
     79          1           0        0.436990    3.452734    4.223732
     80          1           0       -0.050006    1.706340    4.200535
     81          1           0       -0.871239    3.025589    5.077026
     82          1           0       -2.619347    6.726108    1.797800
     83          1           0       -1.328239    6.415004    0.611716
     84          1           0       -1.007295    7.464094    1.860978
     85          1           0       -4.419710    5.156459   -2.273814
     86          1           0       -7.284424    4.121626   -1.688627
     87          1           0       -5.093382    7.190569   -1.635894
     88          1           0       -5.586003    6.577281   -0.043929
     89          1           0       -6.741129    6.441662   -1.480788
     90          1           0       -6.550817    3.298227   -4.235966
     91          1           0       -5.521001    4.654209   -4.078994
     92          1           0       -7.110686    5.958560   -4.862474
     93          1           0       -8.014692    5.708831   -3.378253
     94          1           0       -8.333083    4.668005   -4.761646
     95          1           0       -9.340782   -0.743262   -2.561832
     96          1           0       -8.534707   -2.044345   -3.221122
     97          1           0       -8.122427   -0.491462   -3.958314
     98          1           0       -5.009036   -4.356059   -0.648615
     99          1           0       -6.353056   -3.773507    4.225284
    100          1           0       -6.571178   -5.346771    3.508022
    101          1           0       -7.965854   -4.196317    3.391904
    102          1           0        1.272267   -4.042768   -3.464555
    103          1           0        1.701892   -4.680371   -2.113941
    104          1           0        2.046618   -1.779400   -1.477619
    105          1           0        3.325679   -3.815468   -4.309776
    106          1           0        4.901262   -3.000661   -4.062236
    107          1           0        3.765861   -2.334781   -5.195676
    108          1           0        3.483509   -0.091852   -2.309736
    109          1           0        4.470582   -0.297471   -3.592452
    110          1           0        5.187142   -2.124369   -1.275156
    111          1           0        4.956214   -0.476851   -0.831527
    112          1           0        6.665026   -0.600652   -3.224592
    113          1           0        7.277034   -1.725615   -1.979649
    114          1           0        6.461832    0.985021   -0.944755
    115          1           0        8.804729    0.924781   -2.755003
    116          1           0        8.356984    2.306582   -1.824263
    117          1           0        7.281549    1.764328   -3.149627
    118          1           0        9.159568    0.747890   -0.389148
    119          1           0        8.865395   -0.971539   -0.648583
    120          1           0        7.711270   -1.092430    1.321485
    121          1           0        7.032960    0.437824    1.161227
    122          1           0        8.937115    0.119219    3.012489
    123          1           0        9.106110    1.524467    1.919987
    124          1           0       10.401524   -1.133925    1.027071
    125          1           0       10.493887   -1.486253    3.416538
    126          1           0       11.573110   -0.040178    3.431468
    127          1           0       12.000305   -1.525017    2.529238
    128          1           0       12.372475    0.992317    1.663141
    129          1           0       11.088673    1.810271    0.825105
    130          1           0       12.221280    1.204526   -1.080055
    131          1           0       11.778177   -0.488566   -0.793037
    132          1           0       13.727634   -1.185432   -0.768331
    133          1           0       14.041991   -0.402288    0.763716
    134          1           0       14.430735    1.226113   -1.695230
    135          1           0       15.537179   -0.430784   -2.478328
    136          1           0       15.971341   -1.291339   -1.029689
    137          1           0       16.849171    0.166278   -1.580376
    138          1           0       15.528424    2.549341   -0.290050
    139          1           0       16.474436    1.267134    0.473223
    140          1           0       14.773815    1.635345    1.038479
 ---------------------------------------------------------------------

 SCF Done:  E(RZINDO/S) =  -474.050005839     A.U. after   19 cycles

 Excitation energies and oscillator strengths:

 Excited State   1:      Singlet-A      1.2766 eV  971.17 nm  f=0.5683  <S**2>=0.000
     175 ->178        -0.19769
     176 ->177         0.66206
 This state for optimization and/or second-order correction.
 Total Energy, E(CIS/TDA) =  -474.003089977
 Copying the excited state density for this state as the 1-particle RhoCI density.

 Excited State   2:      Singlet-A      1.9101 eV  649.11 nm  f=0.0004  <S**2>=0.000
     175 ->177         0.48102
     176 ->178         0.49851

 Excited State   3:      Singlet-A      2.9198 eV  424.63 nm  f=0.0005  <S**2>=0.000
     168 ->177         0.25125
     168 ->178        -0.12287
     168 ->179         0.32512
     168 ->180        -0.38856
     168 ->184        -0.11576
     168 ->185         0.19099
     168 ->187         0.10920
     169 ->180        -0.12722

 Excited State   4:      Singlet-A      2.9681 eV  417.72 nm  f=0.0546  <S**2>=0.000
     170 ->179        -0.13897
     175 ->177        -0.10654
     176 ->179         0.60889
     176 ->184         0.13818

 Excited State   5:      Singlet-A      3.0288 eV  409.36 nm  f=0.0251  <S**2>=0.000
     170 ->177         0.28974
     170 ->179        -0.38779
     170 ->180        -0.23413
     170 ->184        -0.12948
     170 ->185        -0.18830
     170 ->187         0.12474
     170 ->200         0.12297
     176 ->179        -0.22836

 The electronic state is 1-A.
 Alpha  occ. eigenvalues --   -1.83795  -1.81779  -1.79749  -1.70881  -1.70660
 Alpha  occ. eigenvalues --   -1.67460  -1.65459  -1.61111  -1.59193  -1.58881
 Alpha  occ. eigenvalues --   -1.55599  -1.50846  -1.49130  -1.48568  -1.47252
 Alpha  occ. eigenvalues --   -1.45532  -1.42606  -1.39825  -1.38532  -1.36699
 Alpha  occ. eigenvalues --   -1.35319  -1.33879  -1.32230  -1.31412  -1.28339
 Alpha  occ. eigenvalues --   -1.27834  -1.27674  -1.23755  -1.20746  -1.18379
 Alpha  occ. eigenvalues --   -1.16523  -1.16295  -1.15739  -1.14603  -1.13604
 Alpha  occ. eigenvalues --   -1.11838  -1.10435  -1.09123  -1.05994  -1.04349
 Alpha  occ. eigenvalues --   -1.03480  -1.00750  -0.99489  -0.98310  -0.96530
 Alpha  occ. eigenvalues --   -0.95832  -0.94804  -0.94078  -0.93322  -0.92580
 Alpha  occ. eigenvalues --   -0.90719  -0.90391  -0.89152  -0.88711  -0.87061
 Alpha  occ. eigenvalues --   -0.85996  -0.84304  -0.83801  -0.82782  -0.80512
 Alpha  occ. eigenvalues --   -0.80371  -0.78436  -0.77503  -0.76991  -0.76841
 Alpha  occ. eigenvalues --   -0.76410  -0.75425  -0.74233  -0.73279  -0.72997
 Alpha  occ. eigenvalues --   -0.72811  -0.72555  -0.71763  -0.71616  -0.70870
 Alpha  occ. eigenvalues --   -0.70576  -0.69480  -0.69132  -0.68932  -0.68799
 Alpha  occ. eigenvalues --   -0.67964  -0.67313  -0.66422  -0.66318  -0.65896
 Alpha  occ. eigenvalues --   -0.65340  -0.64979  -0.64457  -0.63982  -0.63557
 Alpha  occ. eigenvalues --   -0.63359  -0.63041  -0.62736  -0.62497  -0.62042
 Alpha  occ. eigenvalues --   -0.61604  -0.61253  -0.60786  -0.60716  -0.60305
 Alpha  occ. eigenvalues --   -0.60014  -0.59390  -0.59343  -0.58961  -0.58647
 Alpha  occ. eigenvalues --   -0.58265  -0.57610  -0.57521  -0.56881  -0.56208
 Alpha  occ. eigenvalues --   -0.55986  -0.55341  -0.55279  -0.54941  -0.54758
 Alpha  occ. eigenvalues --   -0.54652  -0.54437  -0.53780  -0.53284  -0.53106
 Alpha  occ. eigenvalues --   -0.52541  -0.52389  -0.52197  -0.51905  -0.51513
 Alpha  occ. eigenvalues --   -0.51318  -0.50933  -0.50779  -0.50248  -0.50163
 Alpha  occ. eigenvalues --   -0.50150  -0.50059  -0.49787  -0.49272  -0.49112
 Alpha  occ. eigenvalues --   -0.48719  -0.48651  -0.48190  -0.47945  -0.47728
 Alpha  occ. eigenvalues --   -0.47474  -0.47308  -0.47067  -0.46811  -0.46617
 Alpha  occ. eigenvalues --   -0.46539  -0.46338  -0.46264  -0.45922  -0.45441
 Alpha  occ. eigenvalues --   -0.45006  -0.44409  -0.44355  -0.44204  -0.44137
 Alpha  occ. eigenvalues --   -0.43974  -0.43372  -0.43138  -0.42907  -0.42438
 Alpha  occ. eigenvalues --   -0.41973  -0.41743  -0.41670  -0.39720  -0.39428
 Alpha  occ. eigenvalues --   -0.38675  -0.37622  -0.35822  -0.35585  -0.35266
 Alpha  occ. eigenvalues --   -0.34371  -0.33239  -0.32795  -0.32355  -0.27556
 Alpha  occ. eigenvalues --   -0.22074
 Alpha virt. eigenvalues --   -0.08597  -0.03129  -0.01073   0.00456   0.01319
 Alpha virt. eigenvalues --    0.01702   0.02057   0.02156   0.04322   0.04886
 Alpha virt. eigenvalues --    0.05593   0.06687   0.06947   0.07214   0.07595

 Mulliken charges:
               1
     1  Mg   0.424070
     2  C   -0.041530
     3  C   -0.054117
     4  C   -0.094894
     5  C   -0.063423
     6  N   -0.280798
     7  C    0.111869
     8  C   -0.004162
     9  C   -0.006287
    10  C    0.138406
    11  C   -0.050868
    12  C   -0.024314
    13  C    0.016348
    14  C    0.463945
    15  O   -0.502270
    16  O   -0.289323
    17  N   -0.314094
    18  C    0.114641
    19  C    0.052522
    20  C   -0.039922
    21  C    0.131640
    22  C   -0.051017
    23  C    0.336570
    24  O   -0.531959
    25  C   -0.023562
    26  N   -0.261245
    27  C    0.128696
    28  C   -0.009043
    29  C    0.001796
    30  C    0.094792
    31  C   -0.059000
    32  C   -0.029210
    33  C   -0.054781
    34  N   -0.329301
    35  C    0.085979
    36  C    0.033644
    37  C   -0.055584
    38  C    0.093583
    39  C   -0.045621
    40  C    0.338904
    41  O   -0.500700
    42  C    0.066789
    43  C    0.487906
    44  O   -0.521480
    45  O   -0.280982
    46  C    0.073704
    47  C    0.100716
    48  C   -0.081251
    49  C    0.006318
    50  C   -0.045361
    51  C   -0.028425
    52  C   -0.040173
    53  C   -0.029513
    54  C   -0.002759
    55  C   -0.052939
    56  C   -0.043255
    57  C   -0.053948
    58  C   -0.033999
    59  C   -0.011984
    60  C   -0.063336
    61  C   -0.038377
    62  C   -0.044314
    63  C   -0.024390
    64  C   -0.007084
    65  C   -0.061577
    66  C   -0.059178
    67  H    0.030315
    68  H    0.023226
    69  H    0.027790
    70  H    0.033601
    71  H    0.030416
    72  H    0.018283
    73  H    0.020823
    74  H    0.027762
    75  H    0.026711
    76  H    0.035512
    77  H    0.042217
    78  H    0.045407
    79  H    0.047563
    80  H    0.021664
    81  H    0.031579
    82  H    0.038961
    83  H    0.033078
    84  H    0.033177
    85  H    0.034678
    86  H    0.039694
    87  H    0.024171
    88  H    0.028554
    89  H    0.031827
    90  H    0.022501
    91  H    0.013626
    92  H    0.019488
    93  H    0.016339
    94  H    0.021843
    95  H    0.039054
    96  H    0.023454
    97  H    0.035728
    98  H    0.063845
    99  H    0.034881
   100  H    0.051640
   101  H    0.049865
   102  H    0.032267
   103  H    0.053254
   104  H    0.030983
   105  H    0.019839
   106  H    0.025060
   107  H    0.031855
   108  H    0.008863
   109  H    0.022529
   110  H    0.021668
   111  H    0.019809
   112  H    0.019448
   113  H    0.027493
   114  H    0.028086
   115  H    0.012364
   116  H    0.017069
   117  H    0.012780
   118  H    0.014102
   119  H    0.026014
   120  H    0.009421
   121  H    0.017257
   122  H    0.018357
   123  H    0.028740
   124  H    0.032696
   125  H    0.019398
   126  H    0.017203
   127  H    0.011679
   128  H    0.017408
   129  H    0.023551
   130  H    0.022890
   131  H    0.014045
   132  H    0.013895
   133  H    0.021279
   134  H    0.022773
   135  H    0.003320
   136  H    0.026101
   137  H    0.011812
   138  H    0.013785
   139  H    0.028044
   140  H    0.022101
 Sum of Mulliken charges =  -0.00000

 Dipole moment (field-independent basis, Debye):
    X=             -0.4530    Y=              6.9914    Z=             -0.7340  Tot=              7.0444
 N-N= 4.354313410364D+03 E-N= 0.000000000000D+00  KE=-9.382058130615D+03
 Leave Link  601 at Wed Apr 27 04:06:31 2022, MaxMem=  6710886400 cpu:               0.8 elap:               0.0
 (Enter /sw/apps/gaussian-16.0/g16/l9999.exe)
 1\1\GINC-BP1-COMPUTE163\SP\RZINDO CIS\STO-3G\C55H74Mg1N4O6\OF15641\27-
 Apr-2022\0\\#p ZINDO=(nstates=5)\\step_1051_chromophore_2 ZINDO\\0,1\M
 g,0,3.489,0.699,44.223\C,0,6.429,2.769,43.972\C,0,1.734,3.313,42.794\C
 ,0,0.845,-1.349,43.949\C,0,5.477,-1.836,45.381\N,0,4.042,2.732,43.487\
 C,0,5.279,3.311,43.405\C,0,5.254,4.74,42.782\C,0,3.67,5.007,42.797\C,0
 ,3.068,3.588,43.047\C,0,3.077,6.033,43.869\C,0,5.962,4.998,41.433\C,0,
 6.428,3.793,40.588\C,0,6.477,3.893,39.069\O,0,6.29,4.915,38.404\O,0,6.

 Normal termination of Gaussian 16 at Wed Apr 27 04:06:31 2022.
