 Gaussian 16, Revision A.03,
 Gaussian 16:  ES64L-G16RevA.03 25-Dec-2016

 ------------------------------
 #p blyp/Def2SVP td=(nstates=5)
 ------------------------------

 --------------------------------------------------
 step_951_chromophore_11 TDDFT with blyp functional
 --------------------------------------------------
 Symbolic Z-matrix:
 Charge =  0 Multiplicity = 1

                         Standard orientation:
 ---------------------------------------------------------------------
 Center     Atomic      Atomic             Coordinates (Angstroms)
 Number     Number       Type             X           Y           Z
 ---------------------------------------------------------------------
      1         12           0       -4.444996    1.393073    0.702564
      2          6           0       -5.794239   -1.774511    0.323849
      3          6           0       -2.579427    0.269185    3.254359
      4          6           0       -2.420613    4.258361    0.486436
      5          6           0       -6.348556    2.445849   -1.895252
      6          7           0       -4.128384   -0.557852    1.565102
      7          6           0       -4.729260   -1.701755    1.288771
      8          6           0       -4.132020   -2.888532    2.129238
      9          6           0       -3.505794   -2.060796    3.307857
     10          6           0       -3.394788   -0.675934    2.703214
     11          6           0       -4.213301   -2.119836    4.690273
     12          6           0       -3.176283   -3.950560    1.407366
     13          6           0       -2.309330   -3.478660    0.217182
     14          6           0       -0.880418   -4.064351    0.208635
     15          8           0       -0.361762   -4.794671    1.101067
     16          8           0       -0.403256   -3.808965   -1.036455
     17          7           0       -2.790702    2.192163    1.786123
     18          6           0       -2.152179    1.581713    2.776382
     19          6           0       -1.163868    2.460779    3.438771
     20          6           0       -1.132024    3.664516    2.625577
     21          6           0       -2.116807    3.413607    1.518305
     22          6           0       -0.279136    2.056869    4.571769
     23          6           0       -0.277256    4.927340    2.888104
     24          8           0        0.447110    4.982702    3.901075
     25          6           0       -0.248492    6.163755    1.956100
     26          7           0       -4.325474    3.044500   -0.609225
     27          6           0       -3.414284    4.071706   -0.506704
     28          6           0       -3.815524    5.218223   -1.428296
     29          6           0       -5.092021    4.647134   -2.250372
     30          6           0       -5.257751    3.264683   -1.551280
     31          6           0       -4.223698    6.564776   -0.746851
     32          6           0       -4.787358    4.464098   -3.798586
     33          6           0       -5.495724    5.472315   -4.753039
     34          7           0       -5.870660    0.552545   -0.533890
     35          6           0       -6.745862    1.207739   -1.331301
     36          6           0       -7.771380    0.294754   -1.712195
     37          6           0       -7.378093   -0.913062   -1.136490
     38          6           0       -6.245639   -0.702572   -0.392183
     39          6           0       -8.808169    0.505222   -2.738878
     40          6           0       -7.749564   -2.305742   -0.974531
     41          8           0       -8.692277   -2.975611   -1.355709
     42          6           0       -6.620923   -2.927621   -0.126914
     43          6           0       -5.866070   -4.015859   -0.909116
     44          8           0       -5.091521   -3.797400   -1.876835
     45          8           0       -6.280059   -5.260588   -0.424467
     46          6           0       -5.782944   -6.490916   -1.064122
     47          6           0        0.895929   -4.348963   -1.229350
     48          6           0        1.845437   -3.192228   -1.178385
     49          6           0        2.974528   -3.057240   -0.458291
     50          6           0        3.586312   -4.050264    0.451417
     51          6           0        3.822214   -1.809081   -0.780309
     52          6           0        4.489381   -1.796197   -2.143955
     53          6           0        5.983933   -1.336880   -2.007658
     54          6           0        6.174852    0.162578   -1.592454
     55          6           0        6.819318    0.993414   -2.747040
     56          6           0        6.868316    0.369749   -0.214024
     57          6           0        8.270957   -0.177083   -0.427810
     58          6           0        9.411758    0.604299    0.256616
     59          6           0       10.558690   -0.334230    0.562958
     60          6           0       10.314062   -1.151441    1.939938
     61          6           0       11.886571    0.432776    0.475770
     62          6           0       12.499326    0.391421   -0.975595
     63          6           0       13.901027   -0.315886   -0.983664
     64          6           0       15.192987    0.638350   -1.048481
     65          6           0       16.417520    0.029342   -1.679254
     66          6           0       15.612138    1.236664    0.387381
     67          1           0       -2.083334   -0.100379    4.154038
     68          1           0       -1.960826    5.248217    0.445139
     69          1           0       -7.053241    2.764873   -2.666280
     70          1           0       -4.938566   -3.564665    2.412855
     71          1           0       -2.499976   -2.459991    3.438815
     72          1           0       -4.618745   -3.100137    4.942562
     73          1           0       -5.042013   -1.419206    4.583266
     74          1           0       -3.613150   -1.824860    5.549962
     75          1           0       -3.893428   -4.638447    0.958991
     76          1           0       -2.638221   -4.514704    2.169265
     77          1           0       -2.275064   -2.398315    0.076960
     78          1           0       -2.833668   -3.842848   -0.665857
     79          1           0        0.676475    2.577791    4.504532
     80          1           0       -0.002811    1.018034    4.395794
     81          1           0       -0.787982    2.155629    5.531075
     82          1           0        0.513533    6.888601    2.241411
     83          1           0       -1.240269    6.609914    2.022967
     84          1           0        0.083644    5.755211    1.000846
     85          1           0       -2.919450    5.368338   -2.031285
     86          1           0       -5.990436    5.253296   -2.136439
     87          1           0       -4.247569    6.396408    0.329617
     88          1           0       -5.176947    6.999481   -1.047413
     89          1           0       -3.501138    7.353650   -0.953598
     90          1           0       -5.163166    3.496089   -4.129429
     91          1           0       -3.714351    4.445917   -3.990830
     92          1           0       -6.202622    6.199014   -4.351395
     93          1           0       -5.870178    5.004158   -5.662803
     94          1           0       -4.729335    6.082113   -5.231530
     95          1           0       -8.605049   -0.142149   -3.591033
     96          1           0       -8.876419    1.559887   -3.006156
     97          1           0       -9.787789    0.186877   -2.380279
     98          1           0       -7.138606   -3.513000    0.633034
     99          1           0       -4.698398   -6.387961   -1.011573
    100          1           0       -6.251334   -6.488567   -2.047970
    101          1           0       -6.045952   -7.331772   -0.421192
    102          1           0        0.906208   -4.672646   -2.269887
    103          1           0        1.153449   -5.235708   -0.650202
    104          1           0        1.756393   -2.449966   -1.970835
    105          1           0        3.072692   -4.078095    1.412079
    106          1           0        4.626649   -3.736604    0.535240
    107          1           0        3.473900   -5.075932    0.097769
    108          1           0        4.551133   -1.671731    0.017101
    109          1           0        3.148288   -0.951956   -0.801203
    110          1           0        4.042196   -1.063032   -2.814782
    111          1           0        4.536606   -2.796514   -2.574865
    112          1           0        6.556035   -1.594889   -2.899492
    113          1           0        6.391018   -1.947640   -1.202563
    114          1           0        5.189586    0.616822   -1.486701
    115          1           0        5.954361    1.531210   -3.135458
    116          1           0        7.257439    0.321130   -3.484060
    117          1           0        7.622763    1.586360   -2.311015
    118          1           0        6.451224   -0.316778    0.522701
    119          1           0        6.851136    1.349472    0.262887
    120          1           0        8.614372   -0.360770   -1.445954
    121          1           0        8.228093   -1.176932    0.004619
    122          1           0        9.057140    1.029559    1.195495
    123          1           0        9.774360    1.458046   -0.315205
    124          1           0       10.575706   -1.142032   -0.167844
    125          1           0        9.802761   -0.538975    2.683083
    126          1           0       11.246476   -1.409070    2.444006
    127          1           0        9.859404   -2.105727    1.672367
    128          1           0       12.552024   -0.055782    1.187197
    129          1           0       11.714165    1.469082    0.765299
    130          1           0       12.494506    1.416238   -1.345160
    131          1           0       11.847889   -0.169189   -1.646176
    132          1           0       13.870086   -1.016147   -1.817927
    133          1           0       14.030900   -1.037938   -0.177052
    134          1           0       14.865012    1.366935   -1.790673
    135          1           0       16.285352   -0.974649   -2.081727
    136          1           0       17.323082   -0.013572   -1.072719
    137          1           0       16.735797    0.594228   -2.555022
    138          1           0       14.719564    1.563964    0.919828
    139          1           0       16.392674    1.992639    0.305316
    140          1           0       16.097792    0.533903    1.065194
 ---------------------------------------------------------------------

 SCF Done:  E(RB-LYP) =  -3007.37820664     A.U. after   21 cycles

 Excitation energies and oscillator strengths:

 Excited State   1:      Singlet-A      1.8131 eV  683.83 nm  f=0.3005  <S**2>=0.000
     244 -> 247        0.11264
     245 -> 248       -0.18611
     246 -> 247        0.67928
     246 <- 247       -0.14784
 This state for optimization and/or second-order correction.
 Total Energy, E(TD-HF/TD-DFT) =  -3007.31157719
 Copying the excited state density for this state as the 1-particle RhoCI density.

 Excited State   2:      Singlet-A      1.8352 eV  675.58 nm  f=0.0099  <S**2>=0.000
     244 -> 247        0.68731
     245 -> 247       -0.11193
     246 -> 247       -0.10940

 Excited State   3:      Singlet-A      1.9379 eV  639.80 nm  f=0.0098  <S**2>=0.000
     243 -> 247        0.62708
     245 -> 247       -0.30141

 Excited State   4:      Singlet-A      2.0420 eV  607.16 nm  f=0.0522  <S**2>=0.000
     243 -> 247        0.31933
     245 -> 247        0.56197
     246 -> 248        0.23649

 Excited State   5:      Singlet-A      2.1978 eV  564.12 nm  f=0.0001  <S**2>=0.000
     242 -> 247        0.70700

 The electronic state is 1-A.
 Alpha  occ. eigenvalues --  -46.27041 -18.82576 -18.82397 -18.77343 -18.76987
 Alpha  occ. eigenvalues --  -18.75564 -18.75483 -14.03617 -14.03381 -14.01513
 Alpha  occ. eigenvalues --  -14.00022 -10.04727 -10.04231 -10.00448  -9.99272
 Alpha  occ. eigenvalues --   -9.98400  -9.97068  -9.97003  -9.96810  -9.96757
 Alpha  occ. eigenvalues --   -9.96229  -9.96111  -9.95982  -9.95043  -9.94437
 Alpha  occ. eigenvalues --   -9.94334  -9.94171  -9.94056  -9.93707  -9.93563
 Alpha  occ. eigenvalues --   -9.93516  -9.93477  -9.93211  -9.93127  -9.93112
 Alpha  occ. eigenvalues --   -9.93044  -9.93036  -9.92774  -9.92722  -9.92661
 Alpha  occ. eigenvalues --   -9.92647  -9.92612  -9.92585  -9.92583  -9.92294
 Alpha  occ. eigenvalues --   -9.92252  -9.91949  -9.91727  -9.91726  -9.91701
 Alpha  occ. eigenvalues --   -9.91610  -9.91406  -9.91374  -9.91312  -9.91267
 Alpha  occ. eigenvalues --   -9.91230  -9.91170  -9.90903  -9.90870  -9.90720
 Alpha  occ. eigenvalues --   -9.90640  -9.90477  -9.90452  -9.90400  -9.90399
 Alpha  occ. eigenvalues --   -9.90277  -2.91737  -1.72161  -1.71598  -1.71465
 Alpha  occ. eigenvalues --   -0.98660  -0.96309  -0.91489  -0.90215  -0.88934
 Alpha  occ. eigenvalues --   -0.88852  -0.87968  -0.87037  -0.86002  -0.84842
 Alpha  occ. eigenvalues --   -0.76378  -0.73708  -0.72807  -0.72319  -0.71864
 Alpha  occ. eigenvalues --   -0.71433  -0.71315  -0.70969  -0.70430  -0.70057
 Alpha  occ. eigenvalues --   -0.69258  -0.69122  -0.68128  -0.67539  -0.67198
 Alpha  occ. eigenvalues --   -0.66148  -0.65880  -0.65295  -0.65193  -0.64320
 Alpha  occ. eigenvalues --   -0.63559  -0.62538  -0.62039  -0.61671  -0.60590
 Alpha  occ. eigenvalues --   -0.60284  -0.59963  -0.59665  -0.59590  -0.58791
 Alpha  occ. eigenvalues --   -0.58189  -0.57796  -0.57058  -0.55342  -0.54645
 Alpha  occ. eigenvalues --   -0.53863  -0.53797  -0.52589  -0.52283  -0.51912
 Alpha  occ. eigenvalues --   -0.51701  -0.51500  -0.50823  -0.50220  -0.49447
 Alpha  occ. eigenvalues --   -0.49226  -0.48926  -0.48407  -0.47620  -0.46200
 Alpha  occ. eigenvalues --   -0.46167  -0.45887  -0.45401  -0.44820  -0.44338
 Alpha  occ. eigenvalues --   -0.43890  -0.43612  -0.43013  -0.42811  -0.42375
 Alpha  occ. eigenvalues --   -0.42028  -0.41851  -0.41640  -0.41445  -0.41216
 Alpha  occ. eigenvalues --   -0.40871  -0.40417  -0.40287  -0.40213  -0.40153
 Alpha  occ. eigenvalues --   -0.39947  -0.39637  -0.39271  -0.39217  -0.39020
 Alpha  occ. eigenvalues --   -0.38903  -0.38770  -0.38396  -0.38325  -0.38210
 Alpha  occ. eigenvalues --   -0.37990  -0.37572  -0.37403  -0.37336  -0.36806
 Alpha  occ. eigenvalues --   -0.36547  -0.36476  -0.36457  -0.36255  -0.36203
 Alpha  occ. eigenvalues --   -0.35910  -0.35854  -0.35775  -0.35682  -0.35589
 Alpha  occ. eigenvalues --   -0.35178  -0.35071  -0.35022  -0.34913  -0.34717
 Alpha  occ. eigenvalues --   -0.34599  -0.34325  -0.34234  -0.34104  -0.33889
 Alpha  occ. eigenvalues --   -0.33704  -0.33647  -0.33424  -0.33272  -0.33118
 Alpha  occ. eigenvalues --   -0.32972  -0.32710  -0.32460  -0.32246  -0.32077
 Alpha  occ. eigenvalues --   -0.32011  -0.31849  -0.31707  -0.31569  -0.31451
 Alpha  occ. eigenvalues --   -0.31286  -0.31136  -0.30944  -0.30918  -0.30487
 Alpha  occ. eigenvalues --   -0.30451  -0.30035  -0.29848  -0.29729  -0.29601
 Alpha  occ. eigenvalues --   -0.29507  -0.29335  -0.29263  -0.29049  -0.28884
 Alpha  occ. eigenvalues --   -0.28561  -0.28390  -0.28372  -0.27942  -0.27855
 Alpha  occ. eigenvalues --   -0.27559  -0.27116  -0.27067  -0.26645  -0.26501
 Alpha  occ. eigenvalues --   -0.26188  -0.26154  -0.25620  -0.25585  -0.25368
 Alpha  occ. eigenvalues --   -0.25207  -0.24377  -0.24315  -0.24176  -0.23355
 Alpha  occ. eigenvalues --   -0.22861  -0.22443  -0.21990  -0.21678  -0.20690
 Alpha  occ. eigenvalues --   -0.20282  -0.19714  -0.18710  -0.18317  -0.17492
 Alpha  occ. eigenvalues --   -0.15919
 Alpha virt. eigenvalues --   -0.11638  -0.07407  -0.06026  -0.04794  -0.03759
 Alpha virt. eigenvalues --   -0.03103  -0.02804  -0.02171  -0.01477   0.00020
 Alpha virt. eigenvalues --    0.01202   0.01541   0.02174   0.02254   0.03017

 Mulliken charges:
               1
     1  Mg   0.693639
     2  C    0.031032
     3  C   -0.064562
     4  C   -0.085075
     5  C   -0.055189
     6  N   -0.190617
     7  C   -0.115179
     8  C    0.021327
     9  C    0.036939
    10  C    0.031423
    11  C    0.126711
    12  C    0.100549
    13  C    0.075135
    14  C    0.111158
    15  O   -0.230565
    16  O   -0.231178
    17  N   -0.267867
    18  C    0.118149
    19  C   -0.148118
    20  C    0.013920
    21  C    0.169166
    22  C    0.191949
    23  C   -0.088120
    24  O   -0.182903
    25  C    0.150865
    26  N   -0.221463
    27  C    0.004284
    28  C    0.021916
    29  C    0.014967
    30  C    0.059015
    31  C    0.110276
    32  C    0.085055
    33  C    0.056194
    34  N   -0.241165
    35  C    0.089896
    36  C   -0.189028
    37  C    0.101961
    38  C    0.076196
    39  C    0.179922
    40  C   -0.067377
    41  O   -0.121397
    42  C    0.061131
    43  C    0.135681
    44  O   -0.213120
    45  O   -0.294196
    46  C    0.223988
    47  C    0.351151
    48  C   -0.101913
    49  C   -0.190756
    50  C    0.173602
    51  C    0.126171
    52  C    0.101989
    53  C    0.064004
    54  C   -0.104834
    55  C    0.131961
    56  C    0.145771
    57  C   -0.004689
    58  C    0.151230
    59  C   -0.109637
    60  C    0.085093
    61  C    0.110286
    62  C    0.077562
    63  C    0.065997
    64  C   -0.027439
    65  C    0.101061
    66  C    0.079516
    67  H   -0.066693
    68  H   -0.076329
    69  H   -0.062456
    70  H   -0.044623
    71  H   -0.025488
    72  H   -0.005567
    73  H   -0.011495
    74  H    0.000293
    75  H   -0.027526
    76  H   -0.003334
    77  H    0.020068
    78  H    0.017680
    79  H    0.006618
    80  H   -0.012439
    81  H    0.007422
    82  H   -0.010666
    83  H    0.026001
    84  H    0.016259
    85  H   -0.017696
    86  H   -0.014387
    87  H   -0.003837
    88  H   -0.005259
    89  H   -0.011854
    90  H   -0.015559
    91  H   -0.019352
    92  H   -0.002865
    93  H   -0.014296
    94  H   -0.026459
    95  H    0.014432
    96  H   -0.015946
    97  H   -0.000032
    98  H   -0.015749
    99  H    0.018464
   100  H    0.036434
   101  H    0.021764
   102  H   -0.028559
   103  H   -0.004505
   104  H   -0.039415
   105  H    0.012137
   106  H   -0.013713
   107  H   -0.006575
   108  H   -0.031413
   109  H   -0.018761
   110  H   -0.024875
   111  H   -0.026971
   112  H   -0.034870
   113  H   -0.037957
   114  H   -0.046487
   115  H   -0.009582
   116  H   -0.018766
   117  H   -0.008090
   118  H   -0.041116
   119  H   -0.025107
   120  H   -0.025664
   121  H   -0.034231
   122  H   -0.044421
   123  H   -0.038531
   124  H   -0.041567
   125  H   -0.012425
   126  H   -0.027929
   127  H   -0.005378
   128  H   -0.035248
   129  H   -0.032203
   130  H   -0.027876
   131  H   -0.027696
   132  H   -0.047227
   133  H   -0.034553
   134  H   -0.032998
   135  H   -0.028497
   136  H   -0.023827
   137  H   -0.026668
   138  H   -0.006530
   139  H   -0.011231
   140  H   -0.017653
 Sum of Mulliken charges =  -0.00000

 Dipole moment (field-independent basis, Debye):
    X=              0.3606    Y=              1.6252    Z=             -1.4314  Tot=              2.1955
 Quadrupole moment (field-independent basis, Debye-Ang):
   XX=           -418.2249   YY=           -383.9235   ZZ=           -408.7269
   XY=            -29.8292   XZ=            -15.4830   YZ=            -21.3925

 Normal termination of Gaussian 16 at Thu May  5 15:55:02 2022.
