 Gaussian 16, Revision A.03,
 Gaussian 16:  ES64L-G16RevA.03 25-Dec-2016

 -----------------------------------
 #p cam-b3lyp/Def2SVP td=(nstates=5)
 -----------------------------------

 -------------------------------------------------------
 step_951_chromophore_11 TDDFT with cam-b3lyp functional
 -------------------------------------------------------
 Symbolic Z-matrix:
 Charge =  0 Multiplicity = 1

                         Standard orientation:
 ---------------------------------------------------------------------
 Center     Atomic      Atomic             Coordinates (Angstroms)
 Number     Number       Type             X           Y           Z
 ---------------------------------------------------------------------
      1         12           0       -4.444996    1.393073    0.702564
      2          6           0       -5.794239   -1.774511    0.323849
      3          6           0       -2.579427    0.269185    3.254359
      4          6           0       -2.420613    4.258361    0.486436
      5          6           0       -6.348556    2.445849   -1.895252
      6          7           0       -4.128384   -0.557852    1.565102
      7          6           0       -4.729260   -1.701755    1.288771
      8          6           0       -4.132020   -2.888532    2.129238
      9          6           0       -3.505794   -2.060796    3.307857
     10          6           0       -3.394788   -0.675934    2.703214
     11          6           0       -4.213301   -2.119836    4.690273
     12          6           0       -3.176283   -3.950560    1.407366
     13          6           0       -2.309330   -3.478660    0.217182
     14          6           0       -0.880418   -4.064351    0.208635
     15          8           0       -0.361762   -4.794671    1.101067
     16          8           0       -0.403256   -3.808965   -1.036455
     17          7           0       -2.790702    2.192163    1.786123
     18          6           0       -2.152179    1.581713    2.776382
     19          6           0       -1.163868    2.460779    3.438771
     20          6           0       -1.132024    3.664516    2.625577
     21          6           0       -2.116807    3.413607    1.518305
     22          6           0       -0.279136    2.056869    4.571769
     23          6           0       -0.277256    4.927340    2.888104
     24          8           0        0.447110    4.982702    3.901075
     25          6           0       -0.248492    6.163755    1.956100
     26          7           0       -4.325474    3.044500   -0.609225
     27          6           0       -3.414284    4.071706   -0.506704
     28          6           0       -3.815524    5.218223   -1.428296
     29          6           0       -5.092021    4.647134   -2.250372
     30          6           0       -5.257751    3.264683   -1.551280
     31          6           0       -4.223698    6.564776   -0.746851
     32          6           0       -4.787358    4.464098   -3.798586
     33          6           0       -5.495724    5.472315   -4.753039
     34          7           0       -5.870660    0.552545   -0.533890
     35          6           0       -6.745862    1.207739   -1.331301
     36          6           0       -7.771380    0.294754   -1.712195
     37          6           0       -7.378093   -0.913062   -1.136490
     38          6           0       -6.245639   -0.702572   -0.392183
     39          6           0       -8.808169    0.505222   -2.738878
     40          6           0       -7.749564   -2.305742   -0.974531
     41          8           0       -8.692277   -2.975611   -1.355709
     42          6           0       -6.620923   -2.927621   -0.126914
     43          6           0       -5.866070   -4.015859   -0.909116
     44          8           0       -5.091521   -3.797400   -1.876835
     45          8           0       -6.280059   -5.260588   -0.424467
     46          6           0       -5.782944   -6.490916   -1.064122
     47          6           0        0.895929   -4.348963   -1.229350
     48          6           0        1.845437   -3.192228   -1.178385
     49          6           0        2.974528   -3.057240   -0.458291
     50          6           0        3.586312   -4.050264    0.451417
     51          6           0        3.822214   -1.809081   -0.780309
     52          6           0        4.489381   -1.796197   -2.143955
     53          6           0        5.983933   -1.336880   -2.007658
     54          6           0        6.174852    0.162578   -1.592454
     55          6           0        6.819318    0.993414   -2.747040
     56          6           0        6.868316    0.369749   -0.214024
     57          6           0        8.270957   -0.177083   -0.427810
     58          6           0        9.411758    0.604299    0.256616
     59          6           0       10.558690   -0.334230    0.562958
     60          6           0       10.314062   -1.151441    1.939938
     61          6           0       11.886571    0.432776    0.475770
     62          6           0       12.499326    0.391421   -0.975595
     63          6           0       13.901027   -0.315886   -0.983664
     64          6           0       15.192987    0.638350   -1.048481
     65          6           0       16.417520    0.029342   -1.679254
     66          6           0       15.612138    1.236664    0.387381
     67          1           0       -2.083334   -0.100379    4.154038
     68          1           0       -1.960826    5.248217    0.445139
     69          1           0       -7.053241    2.764873   -2.666280
     70          1           0       -4.938566   -3.564665    2.412855
     71          1           0       -2.499976   -2.459991    3.438815
     72          1           0       -4.618745   -3.100137    4.942562
     73          1           0       -5.042013   -1.419206    4.583266
     74          1           0       -3.613150   -1.824860    5.549962
     75          1           0       -3.893428   -4.638447    0.958991
     76          1           0       -2.638221   -4.514704    2.169265
     77          1           0       -2.275064   -2.398315    0.076960
     78          1           0       -2.833668   -3.842848   -0.665857
     79          1           0        0.676475    2.577791    4.504532
     80          1           0       -0.002811    1.018034    4.395794
     81          1           0       -0.787982    2.155629    5.531075
     82          1           0        0.513533    6.888601    2.241411
     83          1           0       -1.240269    6.609914    2.022967
     84          1           0        0.083644    5.755211    1.000846
     85          1           0       -2.919450    5.368338   -2.031285
     86          1           0       -5.990436    5.253296   -2.136439
     87          1           0       -4.247569    6.396408    0.329617
     88          1           0       -5.176947    6.999481   -1.047413
     89          1           0       -3.501138    7.353650   -0.953598
     90          1           0       -5.163166    3.496089   -4.129429
     91          1           0       -3.714351    4.445917   -3.990830
     92          1           0       -6.202622    6.199014   -4.351395
     93          1           0       -5.870178    5.004158   -5.662803
     94          1           0       -4.729335    6.082113   -5.231530
     95          1           0       -8.605049   -0.142149   -3.591033
     96          1           0       -8.876419    1.559887   -3.006156
     97          1           0       -9.787789    0.186877   -2.380279
     98          1           0       -7.138606   -3.513000    0.633034
     99          1           0       -4.698398   -6.387961   -1.011573
    100          1           0       -6.251334   -6.488567   -2.047970
    101          1           0       -6.045952   -7.331772   -0.421192
    102          1           0        0.906208   -4.672646   -2.269887
    103          1           0        1.153449   -5.235708   -0.650202
    104          1           0        1.756393   -2.449966   -1.970835
    105          1           0        3.072692   -4.078095    1.412079
    106          1           0        4.626649   -3.736604    0.535240
    107          1           0        3.473900   -5.075932    0.097769
    108          1           0        4.551133   -1.671731    0.017101
    109          1           0        3.148288   -0.951956   -0.801203
    110          1           0        4.042196   -1.063032   -2.814782
    111          1           0        4.536606   -2.796514   -2.574865
    112          1           0        6.556035   -1.594889   -2.899492
    113          1           0        6.391018   -1.947640   -1.202563
    114          1           0        5.189586    0.616822   -1.486701
    115          1           0        5.954361    1.531210   -3.135458
    116          1           0        7.257439    0.321130   -3.484060
    117          1           0        7.622763    1.586360   -2.311015
    118          1           0        6.451224   -0.316778    0.522701
    119          1           0        6.851136    1.349472    0.262887
    120          1           0        8.614372   -0.360770   -1.445954
    121          1           0        8.228093   -1.176932    0.004619
    122          1           0        9.057140    1.029559    1.195495
    123          1           0        9.774360    1.458046   -0.315205
    124          1           0       10.575706   -1.142032   -0.167844
    125          1           0        9.802761   -0.538975    2.683083
    126          1           0       11.246476   -1.409070    2.444006
    127          1           0        9.859404   -2.105727    1.672367
    128          1           0       12.552024   -0.055782    1.187197
    129          1           0       11.714165    1.469082    0.765299
    130          1           0       12.494506    1.416238   -1.345160
    131          1           0       11.847889   -0.169189   -1.646176
    132          1           0       13.870086   -1.016147   -1.817927
    133          1           0       14.030900   -1.037938   -0.177052
    134          1           0       14.865012    1.366935   -1.790673
    135          1           0       16.285352   -0.974649   -2.081727
    136          1           0       17.323082   -0.013572   -1.072719
    137          1           0       16.735797    0.594228   -2.555022
    138          1           0       14.719564    1.563964    0.919828
    139          1           0       16.392674    1.992639    0.305316
    140          1           0       16.097792    0.533903    1.065194
 ---------------------------------------------------------------------

 SCF Done:  E(RCAM-B3LYP) =  -3007.16713406     A.U. after   19 cycles

 Excitation energies and oscillator strengths:

 Excited State   1:      Singlet-A      1.7208 eV  720.50 nm  f=0.3903  <S**2>=0.000
     245 -> 248        0.17828
     246 -> 247        0.68474
     245 <- 248        0.10478
 This state for optimization and/or second-order correction.
 Total Energy, E(TD-HF/TD-DFT) =  -3007.10389572
 Copying the excited state density for this state as the 1-particle RhoCI density.

 Excited State   2:      Singlet-A      2.2514 eV  550.69 nm  f=0.0737  <S**2>=0.000
     245 -> 247        0.62468
     246 -> 248       -0.31519

 Excited State   3:      Singlet-A      3.3834 eV  366.45 nm  f=0.0863  <S**2>=0.000
     241 -> 247       -0.10848
     243 -> 247        0.61429
     245 -> 247        0.12292
     246 -> 248        0.25725

 Excited State   4:      Singlet-A      3.4295 eV  361.52 nm  f=0.3173  <S**2>=0.000
     242 -> 247        0.32222
     243 -> 247       -0.29698
     245 -> 247        0.21458
     246 -> 248        0.49045

 Excited State   5:      Singlet-A      3.4843 eV  355.83 nm  f=0.0069  <S**2>=0.000
     240 -> 247        0.43262
     240 -> 248       -0.21867
     240 -> 249        0.31192
     240 -> 250       -0.13936
     240 -> 251        0.15770
     240 -> 257        0.10264
     241 -> 247       -0.24357

 The electronic state is 1-A.
 Alpha  occ. eigenvalues --  -46.88605 -19.25396 -19.25334 -19.20457 -19.19871
 Alpha  occ. eigenvalues --  -19.18826 -19.18695 -14.42647 -14.42111 -14.40183
 Alpha  occ. eigenvalues --  -14.38284 -10.40367 -10.39580 -10.35815 -10.34511
 Alpha  occ. eigenvalues --  -10.32401 -10.31575 -10.31349 -10.31070 -10.30993
 Alpha  occ. eigenvalues --  -10.30795 -10.30559 -10.30512 -10.29112 -10.28773
 Alpha  occ. eigenvalues --  -10.28460 -10.28337 -10.28285 -10.28174 -10.27752
 Alpha  occ. eigenvalues --  -10.27666 -10.27654 -10.27496 -10.27454 -10.27261
 Alpha  occ. eigenvalues --  -10.27243 -10.26877 -10.26783 -10.26727 -10.26596
 Alpha  occ. eigenvalues --  -10.26544 -10.26478 -10.26369 -10.26348 -10.26339
 Alpha  occ. eigenvalues --  -10.25918 -10.25582 -10.25526 -10.25485 -10.25281
 Alpha  occ. eigenvalues --  -10.25244 -10.25106 -10.25046 -10.25033 -10.25027
 Alpha  occ. eigenvalues --  -10.24938 -10.24809 -10.24578 -10.24535 -10.24473
 Alpha  occ. eigenvalues --  -10.24357 -10.24314 -10.24168 -10.24107 -10.24081
 Alpha  occ. eigenvalues --  -10.23835  -3.17206  -1.92105  -1.91645  -1.91521
 Alpha  occ. eigenvalues --   -1.17014  -1.14750  -1.09859  -1.08677  -1.06862
 Alpha  occ. eigenvalues --   -1.06664  -1.05693  -1.04677  -1.03718  -1.02468
 Alpha  occ. eigenvalues --   -0.93504  -0.90593  -0.89617  -0.89111  -0.88564
 Alpha  occ. eigenvalues --   -0.88100  -0.87915  -0.87572  -0.86938  -0.86590
 Alpha  occ. eigenvalues --   -0.85957  -0.85477  -0.84378  -0.83713  -0.83374
 Alpha  occ. eigenvalues --   -0.82109  -0.81944  -0.81405  -0.81026  -0.80169
 Alpha  occ. eigenvalues --   -0.79335  -0.78172  -0.77593  -0.77286  -0.75991
 Alpha  occ. eigenvalues --   -0.75612  -0.75295  -0.74979  -0.74917  -0.74051
 Alpha  occ. eigenvalues --   -0.73242  -0.72789  -0.72005  -0.70119  -0.69209
 Alpha  occ. eigenvalues --   -0.68499  -0.68372  -0.67174  -0.66666  -0.66059
 Alpha  occ. eigenvalues --   -0.65986  -0.65545  -0.64946  -0.64226  -0.63430
 Alpha  occ. eigenvalues --   -0.63060  -0.62865  -0.62128  -0.61377  -0.59842
 Alpha  occ. eigenvalues --   -0.59780  -0.59377  -0.58929  -0.58169  -0.57894
 Alpha  occ. eigenvalues --   -0.57330  -0.57066  -0.56282  -0.55967  -0.55476
 Alpha  occ. eigenvalues --   -0.55279  -0.54790  -0.54630  -0.54321  -0.54085
 Alpha  occ. eigenvalues --   -0.53740  -0.53305  -0.53060  -0.52954  -0.52891
 Alpha  occ. eigenvalues --   -0.52707  -0.52289  -0.51974  -0.51757  -0.51474
 Alpha  occ. eigenvalues --   -0.51333  -0.51259  -0.51120  -0.50904  -0.50553
 Alpha  occ. eigenvalues --   -0.50399  -0.49852  -0.49691  -0.49533  -0.49457
 Alpha  occ. eigenvalues --   -0.49239  -0.48948  -0.48692  -0.48527  -0.48450
 Alpha  occ. eigenvalues --   -0.48242  -0.47994  -0.47827  -0.47680  -0.47643
 Alpha  occ. eigenvalues --   -0.47283  -0.47118  -0.46975  -0.46927  -0.46609
 Alpha  occ. eigenvalues --   -0.46440  -0.46330  -0.46179  -0.45932  -0.45819
 Alpha  occ. eigenvalues --   -0.45617  -0.45419  -0.45117  -0.45047  -0.44858
 Alpha  occ. eigenvalues --   -0.44691  -0.44557  -0.44245  -0.43799  -0.43740
 Alpha  occ. eigenvalues --   -0.43585  -0.43470  -0.43366  -0.43228  -0.42970
 Alpha  occ. eigenvalues --   -0.42890  -0.42787  -0.42475  -0.42227  -0.42109
 Alpha  occ. eigenvalues --   -0.41777  -0.41575  -0.41370  -0.41186  -0.41019
 Alpha  occ. eigenvalues --   -0.40773  -0.40656  -0.40429  -0.40256  -0.40041
 Alpha  occ. eigenvalues --   -0.39669  -0.39390  -0.39325  -0.39015  -0.38831
 Alpha  occ. eigenvalues --   -0.38448  -0.38104  -0.37897  -0.37526  -0.37440
 Alpha  occ. eigenvalues --   -0.37028  -0.36890  -0.36688  -0.36411  -0.36231
 Alpha  occ. eigenvalues --   -0.36125  -0.35263  -0.34628  -0.34521  -0.34352
 Alpha  occ. eigenvalues --   -0.34076  -0.33465  -0.33252  -0.31431  -0.30708
 Alpha  occ. eigenvalues --   -0.30604  -0.30019  -0.29651  -0.29293  -0.24322
 Alpha  occ. eigenvalues --   -0.21197
 Alpha virt. eigenvalues --   -0.08697  -0.02286   0.00419   0.01900   0.02393
 Alpha virt. eigenvalues --    0.03910   0.04914   0.05284   0.05503   0.07070
 Alpha virt. eigenvalues --    0.07757   0.08361   0.08427   0.08782   0.09158

 Mulliken charges:
               1
     1  Mg   0.827740
     2  C   -0.007910
     3  C   -0.077932
     4  C   -0.103594
     5  C   -0.060369
     6  N   -0.266360
     7  C   -0.070440
     8  C   -0.012420
     9  C   -0.029192
    10  C    0.047442
    11  C    0.073706
    12  C    0.050986
    13  C    0.007950
    14  C    0.194967
    15  O   -0.275498
    16  O   -0.293790
    17  N   -0.350105
    18  C    0.126898
    19  C   -0.146893
    20  C   -0.050333
    21  C    0.188383
    22  C    0.130047
    23  C   -0.010783
    24  O   -0.222073
    25  C    0.068188
    26  N   -0.292676
    27  C    0.029902
    28  C   -0.035653
    29  C   -0.035994
    30  C    0.072115
    31  C    0.050269
    32  C    0.031379
    33  C   -0.007634
    34  N   -0.333831
    35  C    0.096065
    36  C   -0.185233
    37  C    0.023986
    38  C    0.111218
    39  C    0.126017
    40  C    0.031108
    41  O   -0.161539
    42  C   -0.007591
    43  C    0.224548
    44  O   -0.249449
    45  O   -0.359691
    46  C    0.186145
    47  C    0.303288
    48  C   -0.120872
    49  C   -0.202860
    50  C    0.107563
    51  C    0.061207
    52  C    0.049964
    53  C    0.014199
    54  C   -0.166414
    55  C    0.075489
    56  C    0.094452
    57  C   -0.057859
    58  C    0.100062
    59  C   -0.164935
    60  C    0.032090
    61  C    0.055513
    62  C    0.022707
    63  C    0.014146
    64  C   -0.088634
    65  C    0.037854
    66  C    0.023463
    67  H   -0.031702
    68  H   -0.036941
    69  H   -0.027324
    70  H   -0.007014
    71  H    0.010640
    72  H    0.019033
    73  H    0.012198
    74  H    0.023985
    75  H   -0.003259
    76  H    0.031179
    77  H    0.050946
    78  H    0.050783
    79  H    0.037469
    80  H    0.013819
    81  H    0.034660
    82  H    0.026628
    83  H    0.050597
    84  H    0.042181
    85  H    0.015586
    86  H    0.018281
    87  H    0.020068
    88  H    0.019727
    89  H    0.012205
    90  H    0.013991
    91  H    0.008818
    92  H    0.019571
    93  H    0.010962
    94  H   -0.001965
    95  H    0.040958
    96  H    0.007652
    97  H    0.027559
    98  H    0.029472
    99  H    0.038072
   100  H    0.059441
   101  H    0.045046
   102  H    0.003098
   103  H    0.029813
   104  H   -0.005720
   105  H    0.038778
   106  H    0.009504
   107  H    0.017291
   108  H   -0.004888
   109  H    0.012561
   110  H    0.002142
   111  H    0.003454
   112  H   -0.005341
   113  H   -0.012076
   114  H   -0.013580
   115  H    0.014609
   116  H    0.004379
   117  H    0.014160
   118  H   -0.011989
   119  H    0.004372
   120  H    0.000845
   121  H   -0.007347
   122  H   -0.016117
   123  H   -0.010658
   124  H   -0.009634
   125  H    0.010206
   126  H   -0.002868
   127  H    0.016773
   128  H   -0.008422
   129  H   -0.003856
   130  H    0.000293
   131  H    0.000198
   132  H   -0.016390
   133  H   -0.007208
   134  H   -0.001887
   135  H   -0.002834
   136  H    0.001297
   137  H   -0.001482
   138  H    0.014214
   139  H    0.012851
   140  H    0.005638
 Sum of Mulliken charges =  -0.00000

 Dipole moment (field-independent basis, Debye):
    X=              0.5888    Y=              2.0320    Z=             -1.2989  Tot=              2.4825
 Quadrupole moment (field-independent basis, Debye-Ang):
   XX=           -418.7622   YY=           -379.3049   ZZ=           -407.9202
   XY=            -30.9240   XZ=            -15.3731   YZ=            -22.1615

 Normal termination of Gaussian 16 at Thu May  5 14:12:16 2022.
