 Gaussian 16, Revision A.03,
 Gaussian 16:  ES64L-G16RevA.03 25-Dec-2016

 ---------------------------------
 #p PBE1PBE/Def2SVP td=(nstates=5)
 ---------------------------------

 -----------------------------------------------------
 step_951_chromophore_11 TDDFT with PBE1PBE functional
 -----------------------------------------------------
 Symbolic Z-matrix:
 Charge =  0 Multiplicity = 1

                         Standard orientation:
 ---------------------------------------------------------------------
 Center     Atomic      Atomic             Coordinates (Angstroms)
 Number     Number       Type             X           Y           Z
 ---------------------------------------------------------------------
      1         12           0       -4.444996    1.393073    0.702564
      2          6           0       -5.794239   -1.774511    0.323849
      3          6           0       -2.579427    0.269185    3.254359
      4          6           0       -2.420613    4.258361    0.486436
      5          6           0       -6.348556    2.445849   -1.895252
      6          7           0       -4.128384   -0.557852    1.565102
      7          6           0       -4.729260   -1.701755    1.288771
      8          6           0       -4.132020   -2.888532    2.129238
      9          6           0       -3.505794   -2.060796    3.307857
     10          6           0       -3.394788   -0.675934    2.703214
     11          6           0       -4.213301   -2.119836    4.690273
     12          6           0       -3.176283   -3.950560    1.407366
     13          6           0       -2.309330   -3.478660    0.217182
     14          6           0       -0.880418   -4.064351    0.208635
     15          8           0       -0.361762   -4.794671    1.101067
     16          8           0       -0.403256   -3.808965   -1.036455
     17          7           0       -2.790702    2.192163    1.786123
     18          6           0       -2.152179    1.581713    2.776382
     19          6           0       -1.163868    2.460779    3.438771
     20          6           0       -1.132024    3.664516    2.625577
     21          6           0       -2.116807    3.413607    1.518305
     22          6           0       -0.279136    2.056869    4.571769
     23          6           0       -0.277256    4.927340    2.888104
     24          8           0        0.447110    4.982702    3.901075
     25          6           0       -0.248492    6.163755    1.956100
     26          7           0       -4.325474    3.044500   -0.609225
     27          6           0       -3.414284    4.071706   -0.506704
     28          6           0       -3.815524    5.218223   -1.428296
     29          6           0       -5.092021    4.647134   -2.250372
     30          6           0       -5.257751    3.264683   -1.551280
     31          6           0       -4.223698    6.564776   -0.746851
     32          6           0       -4.787358    4.464098   -3.798586
     33          6           0       -5.495724    5.472315   -4.753039
     34          7           0       -5.870660    0.552545   -0.533890
     35          6           0       -6.745862    1.207739   -1.331301
     36          6           0       -7.771380    0.294754   -1.712195
     37          6           0       -7.378093   -0.913062   -1.136490
     38          6           0       -6.245639   -0.702572   -0.392183
     39          6           0       -8.808169    0.505222   -2.738878
     40          6           0       -7.749564   -2.305742   -0.974531
     41          8           0       -8.692277   -2.975611   -1.355709
     42          6           0       -6.620923   -2.927621   -0.126914
     43          6           0       -5.866070   -4.015859   -0.909116
     44          8           0       -5.091521   -3.797400   -1.876835
     45          8           0       -6.280059   -5.260588   -0.424467
     46          6           0       -5.782944   -6.490916   -1.064122
     47          6           0        0.895929   -4.348963   -1.229350
     48          6           0        1.845437   -3.192228   -1.178385
     49          6           0        2.974528   -3.057240   -0.458291
     50          6           0        3.586312   -4.050264    0.451417
     51          6           0        3.822214   -1.809081   -0.780309
     52          6           0        4.489381   -1.796197   -2.143955
     53          6           0        5.983933   -1.336880   -2.007658
     54          6           0        6.174852    0.162578   -1.592454
     55          6           0        6.819318    0.993414   -2.747040
     56          6           0        6.868316    0.369749   -0.214024
     57          6           0        8.270957   -0.177083   -0.427810
     58          6           0        9.411758    0.604299    0.256616
     59          6           0       10.558690   -0.334230    0.562958
     60          6           0       10.314062   -1.151441    1.939938
     61          6           0       11.886571    0.432776    0.475770
     62          6           0       12.499326    0.391421   -0.975595
     63          6           0       13.901027   -0.315886   -0.983664
     64          6           0       15.192987    0.638350   -1.048481
     65          6           0       16.417520    0.029342   -1.679254
     66          6           0       15.612138    1.236664    0.387381
     67          1           0       -2.083334   -0.100379    4.154038
     68          1           0       -1.960826    5.248217    0.445139
     69          1           0       -7.053241    2.764873   -2.666280
     70          1           0       -4.938566   -3.564665    2.412855
     71          1           0       -2.499976   -2.459991    3.438815
     72          1           0       -4.618745   -3.100137    4.942562
     73          1           0       -5.042013   -1.419206    4.583266
     74          1           0       -3.613150   -1.824860    5.549962
     75          1           0       -3.893428   -4.638447    0.958991
     76          1           0       -2.638221   -4.514704    2.169265
     77          1           0       -2.275064   -2.398315    0.076960
     78          1           0       -2.833668   -3.842848   -0.665857
     79          1           0        0.676475    2.577791    4.504532
     80          1           0       -0.002811    1.018034    4.395794
     81          1           0       -0.787982    2.155629    5.531075
     82          1           0        0.513533    6.888601    2.241411
     83          1           0       -1.240269    6.609914    2.022967
     84          1           0        0.083644    5.755211    1.000846
     85          1           0       -2.919450    5.368338   -2.031285
     86          1           0       -5.990436    5.253296   -2.136439
     87          1           0       -4.247569    6.396408    0.329617
     88          1           0       -5.176947    6.999481   -1.047413
     89          1           0       -3.501138    7.353650   -0.953598
     90          1           0       -5.163166    3.496089   -4.129429
     91          1           0       -3.714351    4.445917   -3.990830
     92          1           0       -6.202622    6.199014   -4.351395
     93          1           0       -5.870178    5.004158   -5.662803
     94          1           0       -4.729335    6.082113   -5.231530
     95          1           0       -8.605049   -0.142149   -3.591033
     96          1           0       -8.876419    1.559887   -3.006156
     97          1           0       -9.787789    0.186877   -2.380279
     98          1           0       -7.138606   -3.513000    0.633034
     99          1           0       -4.698398   -6.387961   -1.011573
    100          1           0       -6.251334   -6.488567   -2.047970
    101          1           0       -6.045952   -7.331772   -0.421192
    102          1           0        0.906208   -4.672646   -2.269887
    103          1           0        1.153449   -5.235708   -0.650202
    104          1           0        1.756393   -2.449966   -1.970835
    105          1           0        3.072692   -4.078095    1.412079
    106          1           0        4.626649   -3.736604    0.535240
    107          1           0        3.473900   -5.075932    0.097769
    108          1           0        4.551133   -1.671731    0.017101
    109          1           0        3.148288   -0.951956   -0.801203
    110          1           0        4.042196   -1.063032   -2.814782
    111          1           0        4.536606   -2.796514   -2.574865
    112          1           0        6.556035   -1.594889   -2.899492
    113          1           0        6.391018   -1.947640   -1.202563
    114          1           0        5.189586    0.616822   -1.486701
    115          1           0        5.954361    1.531210   -3.135458
    116          1           0        7.257439    0.321130   -3.484060
    117          1           0        7.622763    1.586360   -2.311015
    118          1           0        6.451224   -0.316778    0.522701
    119          1           0        6.851136    1.349472    0.262887
    120          1           0        8.614372   -0.360770   -1.445954
    121          1           0        8.228093   -1.176932    0.004619
    122          1           0        9.057140    1.029559    1.195495
    123          1           0        9.774360    1.458046   -0.315205
    124          1           0       10.575706   -1.142032   -0.167844
    125          1           0        9.802761   -0.538975    2.683083
    126          1           0       11.246476   -1.409070    2.444006
    127          1           0        9.859404   -2.105727    1.672367
    128          1           0       12.552024   -0.055782    1.187197
    129          1           0       11.714165    1.469082    0.765299
    130          1           0       12.494506    1.416238   -1.345160
    131          1           0       11.847889   -0.169189   -1.646176
    132          1           0       13.870086   -1.016147   -1.817927
    133          1           0       14.030900   -1.037938   -0.177052
    134          1           0       14.865012    1.366935   -1.790673
    135          1           0       16.285352   -0.974649   -2.081727
    136          1           0       17.323082   -0.013572   -1.072719
    137          1           0       16.735797    0.594228   -2.555022
    138          1           0       14.719564    1.563964    0.919828
    139          1           0       16.392674    1.992639    0.305316
    140          1           0       16.097792    0.533903    1.065194
 ---------------------------------------------------------------------

 SCF Done:  E(RPBE1PBE) =  -3005.35590806     A.U. after   15 cycles

 Excitation energies and oscillator strengths:

 Excited State   1:      Singlet-A      1.8697 eV  663.12 nm  f=0.3769  <S**2>=0.000
     245 -> 248        0.17219
     246 -> 247        0.69173
     246 <- 247       -0.10780
 This state for optimization and/or second-order correction.
 Total Energy, E(TD-HF/TD-DFT) =  -3005.28719770
 Copying the excited state density for this state as the 1-particle RhoCI density.

 Excited State   2:      Singlet-A      2.2538 eV  550.12 nm  f=0.0763  <S**2>=0.000
     245 -> 247        0.64131
     246 -> 248       -0.27964

 Excited State   3:      Singlet-A      2.9819 eV  415.79 nm  f=0.0009  <S**2>=0.000
     240 -> 247        0.23817
     241 -> 247        0.49823
     241 -> 249       -0.11458
     242 -> 247       -0.29519
     243 -> 247       -0.25477

 Excited State   4:      Singlet-A      2.9966 eV  413.75 nm  f=0.0004  <S**2>=0.000
     240 -> 247        0.12908
     241 -> 247        0.28538
     242 -> 247        0.58044
     242 -> 248       -0.14235
     242 -> 249        0.15831

 Excited State   5:      Singlet-A      3.0528 eV  406.13 nm  f=0.0009  <S**2>=0.000
     241 -> 247        0.22863
     243 -> 247        0.64952

 The electronic state is 1-A.
 Alpha  occ. eigenvalues --  -46.91979 -19.26092 -19.26039 -19.20724 -19.20206
 Alpha  occ. eigenvalues --  -19.18985 -19.18969 -14.42065 -14.41683 -14.39733
 Alpha  occ. eigenvalues --  -14.37972 -10.37446 -10.36629 -10.32945 -10.31689
 Alpha  occ. eigenvalues --  -10.29626 -10.29306 -10.29068 -10.28876 -10.28442
 Alpha  occ. eigenvalues --  -10.28367 -10.28206 -10.28097 -10.26891 -10.26398
 Alpha  occ. eigenvalues --  -10.26344 -10.26160 -10.26120 -10.25846 -10.25441
 Alpha  occ. eigenvalues --  -10.25418 -10.25311 -10.25165 -10.25150 -10.24950
 Alpha  occ. eigenvalues --  -10.24817 -10.24441 -10.24378 -10.24292 -10.24129
 Alpha  occ. eigenvalues --  -10.24039 -10.24018 -10.24004 -10.23949 -10.23797
 Alpha  occ. eigenvalues --  -10.23346 -10.23200 -10.23026 -10.22908 -10.22787
 Alpha  occ. eigenvalues --  -10.22732 -10.22660 -10.22633 -10.22607 -10.22591
 Alpha  occ. eigenvalues --  -10.22528 -10.22189 -10.22126 -10.22123 -10.22016
 Alpha  occ. eigenvalues --  -10.21963 -10.21731 -10.21706 -10.21643 -10.21627
 Alpha  occ. eigenvalues --  -10.21193  -3.14158  -1.86999  -1.86517  -1.86396
 Alpha  occ. eigenvalues --   -1.11862  -1.09532  -1.04647  -1.03339  -1.01683
 Alpha  occ. eigenvalues --   -1.01499  -1.00404  -0.99367  -0.98293  -0.97074
 Alpha  occ. eigenvalues --   -0.87945  -0.84684  -0.83716  -0.83410  -0.82804
 Alpha  occ. eigenvalues --   -0.82237  -0.82140  -0.81866  -0.81288  -0.80669
 Alpha  occ. eigenvalues --   -0.80183  -0.79722  -0.78634  -0.77962  -0.77579
 Alpha  occ. eigenvalues --   -0.76331  -0.76092  -0.75594  -0.75254  -0.74505
 Alpha  occ. eigenvalues --   -0.73466  -0.72499  -0.71872  -0.71558  -0.70319
 Alpha  occ. eigenvalues --   -0.69817  -0.69592  -0.69039  -0.69016  -0.68205
 Alpha  occ. eigenvalues --   -0.67600  -0.67183  -0.66446  -0.64448  -0.63584
 Alpha  occ. eigenvalues --   -0.62911  -0.62648  -0.61577  -0.60904  -0.60415
 Alpha  occ. eigenvalues --   -0.60234  -0.60056  -0.59385  -0.58778  -0.57611
 Alpha  occ. eigenvalues --   -0.57524  -0.57021  -0.56732  -0.55616  -0.54370
 Alpha  occ. eigenvalues --   -0.54309  -0.53889  -0.53472  -0.52746  -0.52410
 Alpha  occ. eigenvalues --   -0.51774  -0.51481  -0.50667  -0.50550  -0.49947
 Alpha  occ. eigenvalues --   -0.49840  -0.49322  -0.49057  -0.48822  -0.48665
 Alpha  occ. eigenvalues --   -0.48349  -0.47759  -0.47724  -0.47504  -0.47405
 Alpha  occ. eigenvalues --   -0.47014  -0.46771  -0.46504  -0.46354  -0.46011
 Alpha  occ. eigenvalues --   -0.45818  -0.45739  -0.45643  -0.45464  -0.45039
 Alpha  occ. eigenvalues --   -0.44870  -0.44439  -0.44324  -0.44118  -0.44024
 Alpha  occ. eigenvalues --   -0.43836  -0.43557  -0.43266  -0.43057  -0.43044
 Alpha  occ. eigenvalues --   -0.42803  -0.42636  -0.42434  -0.42384  -0.42200
 Alpha  occ. eigenvalues --   -0.42021  -0.41746  -0.41650  -0.41525  -0.41170
 Alpha  occ. eigenvalues --   -0.41051  -0.41006  -0.40878  -0.40685  -0.40572
 Alpha  occ. eigenvalues --   -0.40370  -0.40108  -0.39880  -0.39767  -0.39511
 Alpha  occ. eigenvalues --   -0.39442  -0.39268  -0.39014  -0.38517  -0.38361
 Alpha  occ. eigenvalues --   -0.38322  -0.38241  -0.38130  -0.37969  -0.37761
 Alpha  occ. eigenvalues --   -0.37673  -0.37509  -0.37333  -0.37076  -0.36883
 Alpha  occ. eigenvalues --   -0.36506  -0.36360  -0.36195  -0.35907  -0.35758
 Alpha  occ. eigenvalues --   -0.35568  -0.35497  -0.35324  -0.35166  -0.34864
 Alpha  occ. eigenvalues --   -0.34548  -0.34200  -0.34106  -0.33904  -0.33613
 Alpha  occ. eigenvalues --   -0.33216  -0.33080  -0.32692  -0.32512  -0.32244
 Alpha  occ. eigenvalues --   -0.32132  -0.31694  -0.31684  -0.31476  -0.31126
 Alpha  occ. eigenvalues --   -0.30988  -0.30214  -0.29730  -0.29537  -0.29450
 Alpha  occ. eigenvalues --   -0.28906  -0.28778  -0.28183  -0.27034  -0.25686
 Alpha  occ. eigenvalues --   -0.25527  -0.25383  -0.25244  -0.24581  -0.21223
 Alpha  occ. eigenvalues --   -0.18845
 Alpha virt. eigenvalues --   -0.11200  -0.05768  -0.03786  -0.02223  -0.00808
 Alpha virt. eigenvalues --   -0.00572   0.00324   0.00875   0.01283   0.03077
 Alpha virt. eigenvalues --    0.03949   0.04437   0.05054   0.05123   0.05832

 Mulliken charges:
               1
     1  Mg   0.974481
     2  C   -0.019598
     3  C   -0.064465
     4  C   -0.103460
     5  C   -0.057212
     6  N   -0.374948
     7  C    0.010531
     8  C   -0.058016
     9  C   -0.114833
    10  C    0.075782
    11  C    0.016056
    12  C   -0.009667
    13  C   -0.068589
    14  C    0.260652
    15  O   -0.307188
    16  O   -0.322962
    17  N   -0.459127
    18  C    0.150819
    19  C   -0.166747
    20  C   -0.088695
    21  C    0.204488
    22  C    0.067172
    23  C    0.039423
    24  O   -0.255705
    25  C   -0.012931
    26  N   -0.403632
    27  C    0.076514
    28  C   -0.109968
    29  C   -0.111688
    30  C    0.107606
    31  C   -0.008292
    32  C   -0.024854
    33  C   -0.077882
    34  N   -0.465606
    35  C    0.129888
    36  C   -0.208652
    37  C   -0.022769
    38  C    0.160209
    39  C    0.072047
    40  C    0.126033
    41  O   -0.209179
    42  C   -0.111965
    43  C    0.310514
    44  O   -0.283097
    45  O   -0.391806
    46  C    0.132051
    47  C    0.254516
    48  C   -0.133838
    49  C   -0.234072
    50  C    0.044008
    51  C   -0.009343
    52  C   -0.014908
    53  C   -0.040859
    54  C   -0.252734
    55  C    0.016039
    56  C    0.034898
    57  C   -0.121485
    58  C    0.050323
    59  C   -0.249917
    60  C   -0.025141
    61  C   -0.002295
    62  C   -0.037735
    63  C   -0.037847
    64  C   -0.183016
    65  C   -0.018650
    66  C   -0.041299
    67  H    0.000297
    68  H   -0.002472
    69  H    0.004579
    70  H    0.030642
    71  H    0.048740
    72  H    0.046573
    73  H    0.041054
    74  H    0.050447
    75  H    0.035993
    76  H    0.061595
    77  H    0.084467
    78  H    0.085557
    79  H    0.064942
    80  H    0.041368
    81  H    0.062297
    82  H    0.054687
    83  H    0.076504
    84  H    0.068515
    85  H    0.051827
    86  H    0.053283
    87  H    0.048641
    88  H    0.046227
    89  H    0.039626
    90  H    0.046987
    91  H    0.040212
    92  H    0.045724
    93  H    0.038492
    94  H    0.026726
    95  H    0.068309
    96  H    0.034780
    97  H    0.055750
    98  H    0.066790
    99  H    0.059152
   100  H    0.080861
   101  H    0.066373
   102  H    0.032345
   103  H    0.055393
   104  H    0.024501
   105  H    0.066224
   106  H    0.036401
   107  H    0.044357
   108  H    0.029022
   109  H    0.046050
   110  H    0.035398
   111  H    0.036671
   112  H    0.026014
   113  H    0.023747
   114  H    0.025788
   115  H    0.042326
   116  H    0.030843
   117  H    0.043472
   118  H    0.023556
   119  H    0.035050
   120  H    0.033725
   121  H    0.026462
   122  H    0.017135
   123  H    0.022149
   124  H    0.029157
   125  H    0.036681
   126  H    0.024791
   127  H    0.042747
   128  H    0.023340
   129  H    0.028667
   130  H    0.031228
   131  H    0.031823
   132  H    0.016192
   133  H    0.024672
   134  H    0.035790
   135  H    0.024000
   136  H    0.028156
   137  H    0.026022
   138  H    0.043787
   139  H    0.040615
   140  H    0.032780
 Sum of Mulliken charges =  -0.00000

 Dipole moment (field-independent basis, Debye):
    X=              0.5254    Y=              1.9225    Z=             -1.3965  Tot=              2.4336
 Quadrupole moment (field-independent basis, Debye-Ang):
   XX=           -414.8104   YY=           -375.8063   ZZ=           -404.1314
   XY=            -31.3636   XZ=            -14.4948   YZ=            -23.5649

 Normal termination of Gaussian 16 at Thu May  5 14:42:19 2022.
