 Gaussian 16, Revision A.03,
 Gaussian 16:  ES64L-G16RevA.03 25-Dec-2016

 --------------------------------
 #p wB97XD/Def2SVP td=(nstates=5)
 --------------------------------

 ----------------------------------------------------
 step_951_chromophore_11 TDDFT with wB97XD functional
 ----------------------------------------------------
 Symbolic Z-matrix:
 Charge =  0 Multiplicity = 1

                         Standard orientation:
 ---------------------------------------------------------------------
 Center     Atomic      Atomic             Coordinates (Angstroms)
 Number     Number       Type             X           Y           Z
 ---------------------------------------------------------------------
      1         12           0       -4.444996    1.393073    0.702564
      2          6           0       -5.794239   -1.774511    0.323849
      3          6           0       -2.579427    0.269185    3.254359
      4          6           0       -2.420613    4.258361    0.486436
      5          6           0       -6.348556    2.445849   -1.895252
      6          7           0       -4.128384   -0.557852    1.565102
      7          6           0       -4.729260   -1.701755    1.288771
      8          6           0       -4.132020   -2.888532    2.129238
      9          6           0       -3.505794   -2.060796    3.307857
     10          6           0       -3.394788   -0.675934    2.703214
     11          6           0       -4.213301   -2.119836    4.690273
     12          6           0       -3.176283   -3.950560    1.407366
     13          6           0       -2.309330   -3.478660    0.217182
     14          6           0       -0.880418   -4.064351    0.208635
     15          8           0       -0.361762   -4.794671    1.101067
     16          8           0       -0.403256   -3.808965   -1.036455
     17          7           0       -2.790702    2.192163    1.786123
     18          6           0       -2.152179    1.581713    2.776382
     19          6           0       -1.163868    2.460779    3.438771
     20          6           0       -1.132024    3.664516    2.625577
     21          6           0       -2.116807    3.413607    1.518305
     22          6           0       -0.279136    2.056869    4.571769
     23          6           0       -0.277256    4.927340    2.888104
     24          8           0        0.447110    4.982702    3.901075
     25          6           0       -0.248492    6.163755    1.956100
     26          7           0       -4.325474    3.044500   -0.609225
     27          6           0       -3.414284    4.071706   -0.506704
     28          6           0       -3.815524    5.218223   -1.428296
     29          6           0       -5.092021    4.647134   -2.250372
     30          6           0       -5.257751    3.264683   -1.551280
     31          6           0       -4.223698    6.564776   -0.746851
     32          6           0       -4.787358    4.464098   -3.798586
     33          6           0       -5.495724    5.472315   -4.753039
     34          7           0       -5.870660    0.552545   -0.533890
     35          6           0       -6.745862    1.207739   -1.331301
     36          6           0       -7.771380    0.294754   -1.712195
     37          6           0       -7.378093   -0.913062   -1.136490
     38          6           0       -6.245639   -0.702572   -0.392183
     39          6           0       -8.808169    0.505222   -2.738878
     40          6           0       -7.749564   -2.305742   -0.974531
     41          8           0       -8.692277   -2.975611   -1.355709
     42          6           0       -6.620923   -2.927621   -0.126914
     43          6           0       -5.866070   -4.015859   -0.909116
     44          8           0       -5.091521   -3.797400   -1.876835
     45          8           0       -6.280059   -5.260588   -0.424467
     46          6           0       -5.782944   -6.490916   -1.064122
     47          6           0        0.895929   -4.348963   -1.229350
     48          6           0        1.845437   -3.192228   -1.178385
     49          6           0        2.974528   -3.057240   -0.458291
     50          6           0        3.586312   -4.050264    0.451417
     51          6           0        3.822214   -1.809081   -0.780309
     52          6           0        4.489381   -1.796197   -2.143955
     53          6           0        5.983933   -1.336880   -2.007658
     54          6           0        6.174852    0.162578   -1.592454
     55          6           0        6.819318    0.993414   -2.747040
     56          6           0        6.868316    0.369749   -0.214024
     57          6           0        8.270957   -0.177083   -0.427810
     58          6           0        9.411758    0.604299    0.256616
     59          6           0       10.558690   -0.334230    0.562958
     60          6           0       10.314062   -1.151441    1.939938
     61          6           0       11.886571    0.432776    0.475770
     62          6           0       12.499326    0.391421   -0.975595
     63          6           0       13.901027   -0.315886   -0.983664
     64          6           0       15.192987    0.638350   -1.048481
     65          6           0       16.417520    0.029342   -1.679254
     66          6           0       15.612138    1.236664    0.387381
     67          1           0       -2.083334   -0.100379    4.154038
     68          1           0       -1.960826    5.248217    0.445139
     69          1           0       -7.053241    2.764873   -2.666280
     70          1           0       -4.938566   -3.564665    2.412855
     71          1           0       -2.499976   -2.459991    3.438815
     72          1           0       -4.618745   -3.100137    4.942562
     73          1           0       -5.042013   -1.419206    4.583266
     74          1           0       -3.613150   -1.824860    5.549962
     75          1           0       -3.893428   -4.638447    0.958991
     76          1           0       -2.638221   -4.514704    2.169265
     77          1           0       -2.275064   -2.398315    0.076960
     78          1           0       -2.833668   -3.842848   -0.665857
     79          1           0        0.676475    2.577791    4.504532
     80          1           0       -0.002811    1.018034    4.395794
     81          1           0       -0.787982    2.155629    5.531075
     82          1           0        0.513533    6.888601    2.241411
     83          1           0       -1.240269    6.609914    2.022967
     84          1           0        0.083644    5.755211    1.000846
     85          1           0       -2.919450    5.368338   -2.031285
     86          1           0       -5.990436    5.253296   -2.136439
     87          1           0       -4.247569    6.396408    0.329617
     88          1           0       -5.176947    6.999481   -1.047413
     89          1           0       -3.501138    7.353650   -0.953598
     90          1           0       -5.163166    3.496089   -4.129429
     91          1           0       -3.714351    4.445917   -3.990830
     92          1           0       -6.202622    6.199014   -4.351395
     93          1           0       -5.870178    5.004158   -5.662803
     94          1           0       -4.729335    6.082113   -5.231530
     95          1           0       -8.605049   -0.142149   -3.591033
     96          1           0       -8.876419    1.559887   -3.006156
     97          1           0       -9.787789    0.186877   -2.380279
     98          1           0       -7.138606   -3.513000    0.633034
     99          1           0       -4.698398   -6.387961   -1.011573
    100          1           0       -6.251334   -6.488567   -2.047970
    101          1           0       -6.045952   -7.331772   -0.421192
    102          1           0        0.906208   -4.672646   -2.269887
    103          1           0        1.153449   -5.235708   -0.650202
    104          1           0        1.756393   -2.449966   -1.970835
    105          1           0        3.072692   -4.078095    1.412079
    106          1           0        4.626649   -3.736604    0.535240
    107          1           0        3.473900   -5.075932    0.097769
    108          1           0        4.551133   -1.671731    0.017101
    109          1           0        3.148288   -0.951956   -0.801203
    110          1           0        4.042196   -1.063032   -2.814782
    111          1           0        4.536606   -2.796514   -2.574865
    112          1           0        6.556035   -1.594889   -2.899492
    113          1           0        6.391018   -1.947640   -1.202563
    114          1           0        5.189586    0.616822   -1.486701
    115          1           0        5.954361    1.531210   -3.135458
    116          1           0        7.257439    0.321130   -3.484060
    117          1           0        7.622763    1.586360   -2.311015
    118          1           0        6.451224   -0.316778    0.522701
    119          1           0        6.851136    1.349472    0.262887
    120          1           0        8.614372   -0.360770   -1.445954
    121          1           0        8.228093   -1.176932    0.004619
    122          1           0        9.057140    1.029559    1.195495
    123          1           0        9.774360    1.458046   -0.315205
    124          1           0       10.575706   -1.142032   -0.167844
    125          1           0        9.802761   -0.538975    2.683083
    126          1           0       11.246476   -1.409070    2.444006
    127          1           0        9.859404   -2.105727    1.672367
    128          1           0       12.552024   -0.055782    1.187197
    129          1           0       11.714165    1.469082    0.765299
    130          1           0       12.494506    1.416238   -1.345160
    131          1           0       11.847889   -0.169189   -1.646176
    132          1           0       13.870086   -1.016147   -1.817927
    133          1           0       14.030900   -1.037938   -0.177052
    134          1           0       14.865012    1.366935   -1.790673
    135          1           0       16.285352   -0.974649   -2.081727
    136          1           0       17.323082   -0.013572   -1.072719
    137          1           0       16.735797    0.594228   -2.555022
    138          1           0       14.719564    1.563964    0.919828
    139          1           0       16.392674    1.992639    0.305316
    140          1           0       16.097792    0.533903    1.065194
 ---------------------------------------------------------------------

 SCF Done:  E(RwB97XD) =  -3007.86673933     A.U. after   20 cycles

 Excitation energies and oscillator strengths:

 Excited State   1:      Singlet-A      1.6637 eV  745.21 nm  f=0.3883  <S**2>=0.000
     245 -> 248        0.18366
     246 -> 247        0.68260
     245 <- 248        0.11397
 This state for optimization and/or second-order correction.
 Total Energy, E(TD-HF/TD-DFT) =  -3007.80559809
 Copying the excited state density for this state as the 1-particle RhoCI density.

 Excited State   2:      Singlet-A      2.1985 eV  563.96 nm  f=0.0713  <S**2>=0.000
     245 -> 247        0.62283
     246 -> 248       -0.31717

 Excited State   3:      Singlet-A      3.4029 eV  364.35 nm  f=0.1537  <S**2>=0.000
     242 -> 247        0.12581
     243 -> 247        0.55387
     245 -> 247        0.15943
     246 -> 248        0.34239

 Excited State   4:      Singlet-A      3.4526 eV  359.10 nm  f=0.2573  <S**2>=0.000
     240 -> 247       -0.12512
     242 -> 247        0.31147
     243 -> 247       -0.37227
     245 -> 247        0.18643
     246 -> 248        0.42847

 Excited State   5:      Singlet-A      3.4959 eV  354.66 nm  f=0.0196  <S**2>=0.000
     240 -> 247        0.38616
     240 -> 248       -0.20340
     240 -> 249        0.30242
     240 -> 250       -0.20101
     241 -> 247       -0.26038
     241 -> 248        0.10978
     241 -> 249       -0.15264
     241 -> 250        0.12250
     243 -> 247       -0.11663
     246 -> 248        0.10771

 The electronic state is 1-A.
 Alpha  occ. eigenvalues --  -46.94961 -19.30627 -19.30570 -19.25419 -19.24831
 Alpha  occ. eigenvalues --  -19.23875 -19.23743 -14.47258 -14.46660 -14.44805
 Alpha  occ. eigenvalues --  -14.42853 -10.44262 -10.43395 -10.39825 -10.38514
 Alpha  occ. eigenvalues --  -10.36122 -10.35595 -10.35372 -10.35072 -10.34864
 Alpha  occ. eigenvalues --  -10.34847 -10.34587 -10.34567 -10.33102 -10.32948
 Alpha  occ. eigenvalues --  -10.32538 -10.32381 -10.32355 -10.32324 -10.31790
 Alpha  occ. eigenvalues --  -10.31690 -10.31615 -10.31599 -10.31514 -10.31343
 Alpha  occ. eigenvalues --  -10.31314 -10.30766 -10.30728 -10.30713 -10.30633
 Alpha  occ. eigenvalues --  -10.30446 -10.30348 -10.30339 -10.30307 -10.30197
 Alpha  occ. eigenvalues --  -10.29781 -10.29463 -10.29446 -10.29401 -10.29158
 Alpha  occ. eigenvalues --  -10.29073 -10.29024 -10.29004 -10.28970 -10.28961
 Alpha  occ. eigenvalues --  -10.28878 -10.28635 -10.28501 -10.28387 -10.28382
 Alpha  occ. eigenvalues --  -10.28373 -10.28137 -10.28093 -10.28026 -10.28015
 Alpha  occ. eigenvalues --  -10.27622  -3.20983  -1.94575  -1.94094  -1.93972
 Alpha  occ. eigenvalues --   -1.19213  -1.16923  -1.12088  -1.10909  -1.09052
 Alpha  occ. eigenvalues --   -1.08838  -1.07706  -1.06691  -1.05725  -1.04523
 Alpha  occ. eigenvalues --   -0.95494  -0.92358  -0.91387  -0.91057  -0.90413
 Alpha  occ. eigenvalues --   -0.89886  -0.89756  -0.89469  -0.88873  -0.88349
 Alpha  occ. eigenvalues --   -0.87936  -0.87366  -0.86272  -0.85593  -0.85230
 Alpha  occ. eigenvalues --   -0.83991  -0.83798  -0.83333  -0.82897  -0.82112
 Alpha  occ. eigenvalues --   -0.81142  -0.80112  -0.79487  -0.79223  -0.77923
 Alpha  occ. eigenvalues --   -0.77465  -0.77222  -0.76753  -0.76718  -0.75876
 Alpha  occ. eigenvalues --   -0.75171  -0.74746  -0.73985  -0.72043  -0.71127
 Alpha  occ. eigenvalues --   -0.70421  -0.70301  -0.69191  -0.68535  -0.67955
 Alpha  occ. eigenvalues --   -0.67838  -0.67537  -0.66898  -0.66224  -0.65247
 Alpha  occ. eigenvalues --   -0.65003  -0.64682  -0.64138  -0.63228  -0.61803
 Alpha  occ. eigenvalues --   -0.61747  -0.61327  -0.60902  -0.60128  -0.59867
 Alpha  occ. eigenvalues --   -0.59263  -0.58975  -0.58136  -0.57953  -0.57359
 Alpha  occ. eigenvalues --   -0.57259  -0.56715  -0.56502  -0.56232  -0.56036
 Alpha  occ. eigenvalues --   -0.55686  -0.55194  -0.55017  -0.54835  -0.54818
 Alpha  occ. eigenvalues --   -0.54633  -0.54187  -0.53902  -0.53674  -0.53365
 Alpha  occ. eigenvalues --   -0.53210  -0.53141  -0.53024  -0.52808  -0.52441
 Alpha  occ. eigenvalues --   -0.52326  -0.51756  -0.51602  -0.51452  -0.51370
 Alpha  occ. eigenvalues --   -0.51149  -0.50906  -0.50562  -0.50380  -0.50365
 Alpha  occ. eigenvalues --   -0.50118  -0.49914  -0.49717  -0.49597  -0.49507
 Alpha  occ. eigenvalues --   -0.49210  -0.49051  -0.48899  -0.48824  -0.48468
 Alpha  occ. eigenvalues --   -0.48361  -0.48232  -0.48087  -0.47844  -0.47733
 Alpha  occ. eigenvalues --   -0.47544  -0.47297  -0.47043  -0.46946  -0.46705
 Alpha  occ. eigenvalues --   -0.46599  -0.46437  -0.46156  -0.45645  -0.45615
 Alpha  occ. eigenvalues --   -0.45498  -0.45373  -0.45282  -0.45174  -0.44889
 Alpha  occ. eigenvalues --   -0.44823  -0.44644  -0.44409  -0.44205  -0.44080
 Alpha  occ. eigenvalues --   -0.43633  -0.43472  -0.43292  -0.43051  -0.42864
 Alpha  occ. eigenvalues --   -0.42620  -0.42553  -0.42347  -0.42168  -0.41910
 Alpha  occ. eigenvalues --   -0.41578  -0.41243  -0.41164  -0.40916  -0.40670
 Alpha  occ. eigenvalues --   -0.40283  -0.40019  -0.39744  -0.39463  -0.39286
 Alpha  occ. eigenvalues --   -0.39165  -0.38735  -0.38691  -0.38324  -0.38119
 Alpha  occ. eigenvalues --   -0.37980  -0.37152  -0.36572  -0.36465  -0.36320
 Alpha  occ. eigenvalues --   -0.35982  -0.35623  -0.35069  -0.33627  -0.32656
 Alpha  occ. eigenvalues --   -0.32589  -0.32203  -0.31845  -0.31312  -0.26248
 Alpha  occ. eigenvalues --   -0.23007
 Alpha virt. eigenvalues --   -0.07039  -0.00381   0.02471   0.04277   0.05251
 Alpha virt. eigenvalues --    0.06056   0.07172   0.07598   0.07954   0.09764
 Alpha virt. eigenvalues --    0.10240   0.11302   0.11708   0.11775   0.12492

 Mulliken charges:
               1
     1  Mg   0.964667
     2  C   -0.023483
     3  C   -0.084779
     4  C   -0.111533
     5  C   -0.068901
     6  N   -0.338775
     7  C   -0.028985
     8  C   -0.043402
     9  C   -0.086118
    10  C    0.066149
    11  C    0.025634
    12  C    0.009817
    13  C   -0.048372
    14  C    0.250698
    15  O   -0.304971
    16  O   -0.323081
    17  N   -0.428335
    18  C    0.143767
    19  C   -0.160961
    20  C   -0.086584
    21  C    0.204907
    22  C    0.080507
    23  C    0.033795
    24  O   -0.251093
    25  C    0.003653
    26  N   -0.366092
    27  C    0.056779
    28  C   -0.086175
    29  C   -0.084938
    30  C    0.093879
    31  C    0.003472
    32  C   -0.011938
    33  C   -0.063146
    34  N   -0.425572
    35  C    0.113381
    36  C   -0.201089
    37  C   -0.020938
    38  C    0.145049
    39  C    0.083198
    40  C    0.108400
    41  O   -0.199731
    42  C   -0.070410
    43  C    0.282056
    44  O   -0.275747
    45  O   -0.389816
    46  C    0.146459
    47  C    0.271198
    48  C   -0.143944
    49  C   -0.222989
    50  C    0.055130
    51  C    0.016406
    52  C    0.000659
    53  C   -0.021648
    54  C   -0.221276
    55  C    0.026257
    56  C    0.049871
    57  C   -0.098235
    58  C    0.061705
    59  C   -0.216889
    60  C   -0.013726
    61  C    0.016022
    62  C   -0.023891
    63  C   -0.024237
    64  C   -0.153809
    65  C   -0.009944
    66  C   -0.025782
    67  H   -0.006416
    68  H   -0.014882
    69  H   -0.002125
    70  H    0.020989
    71  H    0.038789
    72  H    0.041686
    73  H    0.033500
    74  H    0.045817
    75  H    0.020823
    76  H    0.055695
    77  H    0.075953
    78  H    0.075951
    79  H    0.061012
    80  H    0.035440
    81  H    0.058917
    82  H    0.054149
    83  H    0.070969
    84  H    0.062621
    85  H    0.041681
    86  H    0.041888
    87  H    0.040349
    88  H    0.041120
    89  H    0.034276
    90  H    0.037419
    91  H    0.033482
    92  H    0.040223
    93  H    0.033160
    94  H    0.019771
    95  H    0.063751
    96  H    0.028922
    97  H    0.051331
    98  H    0.060332
    99  H    0.054115
   100  H    0.077890
   101  H    0.063378
   102  H    0.028205
   103  H    0.050652
   104  H    0.020832
   105  H    0.062425
   106  H    0.030743
   107  H    0.038784
   108  H    0.013699
   109  H    0.037902
   110  H    0.026712
   111  H    0.028592
   112  H    0.018564
   113  H    0.007896
   114  H    0.012767
   115  H    0.037723
   116  H    0.024478
   117  H    0.035337
   118  H    0.013107
   119  H    0.029147
   120  H    0.021111
   121  H    0.012880
   122  H    0.006525
   123  H    0.012774
   124  H    0.013635
   125  H    0.030451
   126  H    0.018986
   127  H    0.037526
   128  H    0.010735
   129  H    0.020049
   130  H    0.024224
   131  H    0.022848
   132  H    0.008726
   133  H    0.015081
   134  H    0.024599
   135  H    0.018418
   136  H    0.022449
   137  H    0.020609
   138  H    0.035531
   139  H    0.034989
   140  H    0.026130
 Sum of Mulliken charges =  -0.00000

 Dipole moment (field-independent basis, Debye):
    X=              0.6227    Y=              2.0816    Z=             -1.2797  Tot=              2.5216
 Quadrupole moment (field-independent basis, Debye-Ang):
   XX=           -414.9791   YY=           -374.7491   ZZ=           -403.9300
   XY=            -31.0987   XZ=            -14.7727   YZ=            -22.7133

 Normal termination of Gaussian 16 at Thu May  5 15:34:02 2022.
