 Gaussian 16, Revision A.03,
 Gaussian 16:  ES64L-G16RevA.03 25-Dec-2016

 --------------------
 #p ZINDO=(nstates=5)
 --------------------

 -----------------------------
 step_951_chromophore_11 ZINDO
 -----------------------------
 Symbolic Z-matrix:
 Charge =  0 Multiplicity = 1

                         Standard orientation:
 ---------------------------------------------------------------------
 Center     Atomic      Atomic             Coordinates (Angstroms)
 Number     Number       Type             X           Y           Z
 ---------------------------------------------------------------------
      1         12           0       -4.444996    1.393073    0.702564
      2          6           0       -5.794239   -1.774511    0.323849
      3          6           0       -2.579427    0.269185    3.254359
      4          6           0       -2.420613    4.258361    0.486436
      5          6           0       -6.348556    2.445849   -1.895252
      6          7           0       -4.128384   -0.557852    1.565102
      7          6           0       -4.729260   -1.701755    1.288771
      8          6           0       -4.132020   -2.888532    2.129238
      9          6           0       -3.505794   -2.060796    3.307857
     10          6           0       -3.394788   -0.675934    2.703214
     11          6           0       -4.213301   -2.119836    4.690273
     12          6           0       -3.176283   -3.950560    1.407366
     13          6           0       -2.309330   -3.478660    0.217182
     14          6           0       -0.880418   -4.064351    0.208635
     15          8           0       -0.361762   -4.794671    1.101067
     16          8           0       -0.403256   -3.808965   -1.036455
     17          7           0       -2.790702    2.192163    1.786123
     18          6           0       -2.152179    1.581713    2.776382
     19          6           0       -1.163868    2.460779    3.438771
     20          6           0       -1.132024    3.664516    2.625577
     21          6           0       -2.116807    3.413607    1.518305
     22          6           0       -0.279136    2.056869    4.571769
     23          6           0       -0.277256    4.927340    2.888104
     24          8           0        0.447110    4.982702    3.901075
     25          6           0       -0.248492    6.163755    1.956100
     26          7           0       -4.325474    3.044500   -0.609225
     27          6           0       -3.414284    4.071706   -0.506704
     28          6           0       -3.815524    5.218223   -1.428296
     29          6           0       -5.092021    4.647134   -2.250372
     30          6           0       -5.257751    3.264683   -1.551280
     31          6           0       -4.223698    6.564776   -0.746851
     32          6           0       -4.787358    4.464098   -3.798586
     33          6           0       -5.495724    5.472315   -4.753039
     34          7           0       -5.870660    0.552545   -0.533890
     35          6           0       -6.745862    1.207739   -1.331301
     36          6           0       -7.771380    0.294754   -1.712195
     37          6           0       -7.378093   -0.913062   -1.136490
     38          6           0       -6.245639   -0.702572   -0.392183
     39          6           0       -8.808169    0.505222   -2.738878
     40          6           0       -7.749564   -2.305742   -0.974531
     41          8           0       -8.692277   -2.975611   -1.355709
     42          6           0       -6.620923   -2.927621   -0.126914
     43          6           0       -5.866070   -4.015859   -0.909116
     44          8           0       -5.091521   -3.797400   -1.876835
     45          8           0       -6.280059   -5.260588   -0.424467
     46          6           0       -5.782944   -6.490916   -1.064122
     47          6           0        0.895929   -4.348963   -1.229350
     48          6           0        1.845437   -3.192228   -1.178385
     49          6           0        2.974528   -3.057240   -0.458291
     50          6           0        3.586312   -4.050264    0.451417
     51          6           0        3.822214   -1.809081   -0.780309
     52          6           0        4.489381   -1.796197   -2.143955
     53          6           0        5.983933   -1.336880   -2.007658
     54          6           0        6.174852    0.162578   -1.592454
     55          6           0        6.819318    0.993414   -2.747040
     56          6           0        6.868316    0.369749   -0.214024
     57          6           0        8.270957   -0.177083   -0.427810
     58          6           0        9.411758    0.604299    0.256616
     59          6           0       10.558690   -0.334230    0.562958
     60          6           0       10.314062   -1.151441    1.939938
     61          6           0       11.886571    0.432776    0.475770
     62          6           0       12.499326    0.391421   -0.975595
     63          6           0       13.901027   -0.315886   -0.983664
     64          6           0       15.192987    0.638350   -1.048481
     65          6           0       16.417520    0.029342   -1.679254
     66          6           0       15.612138    1.236664    0.387381
     67          1           0       -2.083334   -0.100379    4.154038
     68          1           0       -1.960826    5.248217    0.445139
     69          1           0       -7.053241    2.764873   -2.666280
     70          1           0       -4.938566   -3.564665    2.412855
     71          1           0       -2.499976   -2.459991    3.438815
     72          1           0       -4.618745   -3.100137    4.942562
     73          1           0       -5.042013   -1.419206    4.583266
     74          1           0       -3.613150   -1.824860    5.549962
     75          1           0       -3.893428   -4.638447    0.958991
     76          1           0       -2.638221   -4.514704    2.169265
     77          1           0       -2.275064   -2.398315    0.076960
     78          1           0       -2.833668   -3.842848   -0.665857
     79          1           0        0.676475    2.577791    4.504532
     80          1           0       -0.002811    1.018034    4.395794
     81          1           0       -0.787982    2.155629    5.531075
     82          1           0        0.513533    6.888601    2.241411
     83          1           0       -1.240269    6.609914    2.022967
     84          1           0        0.083644    5.755211    1.000846
     85          1           0       -2.919450    5.368338   -2.031285
     86          1           0       -5.990436    5.253296   -2.136439
     87          1           0       -4.247569    6.396408    0.329617
     88          1           0       -5.176947    6.999481   -1.047413
     89          1           0       -3.501138    7.353650   -0.953598
     90          1           0       -5.163166    3.496089   -4.129429
     91          1           0       -3.714351    4.445917   -3.990830
     92          1           0       -6.202622    6.199014   -4.351395
     93          1           0       -5.870178    5.004158   -5.662803
     94          1           0       -4.729335    6.082113   -5.231530
     95          1           0       -8.605049   -0.142149   -3.591033
     96          1           0       -8.876419    1.559887   -3.006156
     97          1           0       -9.787789    0.186877   -2.380279
     98          1           0       -7.138606   -3.513000    0.633034
     99          1           0       -4.698398   -6.387961   -1.011573
    100          1           0       -6.251334   -6.488567   -2.047970
    101          1           0       -6.045952   -7.331772   -0.421192
    102          1           0        0.906208   -4.672646   -2.269887
    103          1           0        1.153449   -5.235708   -0.650202
    104          1           0        1.756393   -2.449966   -1.970835
    105          1           0        3.072692   -4.078095    1.412079
    106          1           0        4.626649   -3.736604    0.535240
    107          1           0        3.473900   -5.075932    0.097769
    108          1           0        4.551133   -1.671731    0.017101
    109          1           0        3.148288   -0.951956   -0.801203
    110          1           0        4.042196   -1.063032   -2.814782
    111          1           0        4.536606   -2.796514   -2.574865
    112          1           0        6.556035   -1.594889   -2.899492
    113          1           0        6.391018   -1.947640   -1.202563
    114          1           0        5.189586    0.616822   -1.486701
    115          1           0        5.954361    1.531210   -3.135458
    116          1           0        7.257439    0.321130   -3.484060
    117          1           0        7.622763    1.586360   -2.311015
    118          1           0        6.451224   -0.316778    0.522701
    119          1           0        6.851136    1.349472    0.262887
    120          1           0        8.614372   -0.360770   -1.445954
    121          1           0        8.228093   -1.176932    0.004619
    122          1           0        9.057140    1.029559    1.195495
    123          1           0        9.774360    1.458046   -0.315205
    124          1           0       10.575706   -1.142032   -0.167844
    125          1           0        9.802761   -0.538975    2.683083
    126          1           0       11.246476   -1.409070    2.444006
    127          1           0        9.859404   -2.105727    1.672367
    128          1           0       12.552024   -0.055782    1.187197
    129          1           0       11.714165    1.469082    0.765299
    130          1           0       12.494506    1.416238   -1.345160
    131          1           0       11.847889   -0.169189   -1.646176
    132          1           0       13.870086   -1.016147   -1.817927
    133          1           0       14.030900   -1.037938   -0.177052
    134          1           0       14.865012    1.366935   -1.790673
    135          1           0       16.285352   -0.974649   -2.081727
    136          1           0       17.323082   -0.013572   -1.072719
    137          1           0       16.735797    0.594228   -2.555022
    138          1           0       14.719564    1.563964    0.919828
    139          1           0       16.392674    1.992639    0.305316
    140          1           0       16.097792    0.533903    1.065194
 ---------------------------------------------------------------------

 SCF Done:  E(RZINDO/S) =  -474.206972808     A.U. after   19 cycles

 Excitation energies and oscillator strengths:

 Excited State   1:      Singlet-A      1.2860 eV  964.12 nm  f=0.5982  <S**2>=0.000
     175 ->178        -0.19026
     176 ->177         0.66092
 This state for optimization and/or second-order correction.
 Total Energy, E(CIS/TDA) =  -474.159713839
 Copying the excited state density for this state as the 1-particle RhoCI density.

 Excited State   2:      Singlet-A      1.9064 eV  650.34 nm  f=0.0195  <S**2>=0.000
     175 ->177         0.52397
     176 ->178         0.44670

 Excited State   3:      Singlet-A      2.9409 eV  421.59 nm  f=0.4216  <S**2>=0.000
     168 ->177         0.21028
     168 ->178         0.17626
     168 ->179         0.23839
     168 ->180        -0.22277
     168 ->183         0.14114
     168 ->185        -0.17925
     175 ->177        -0.25670
     176 ->178         0.33551
     176 ->179         0.16746

 Excited State   4:      Singlet-A      2.9521 eV  419.99 nm  f=0.5049  <S**2>=0.000
     168 ->177        -0.18227
     168 ->178        -0.16229
     168 ->179        -0.22642
     168 ->180         0.20336
     168 ->183        -0.12830
     168 ->185         0.16454
     175 ->177        -0.28357
     176 ->178         0.36359
     176 ->179         0.17351

 Excited State   5:      Singlet-A      3.0119 eV  411.65 nm  f=0.0050  <S**2>=0.000
     170 ->177         0.31819
     170 ->179        -0.35006
     170 ->180        -0.22833
     170 ->183         0.20756
     170 ->185         0.18401
     170 ->187        -0.16417
     170 ->200         0.11355
     176 ->179        -0.16543

 The electronic state is 1-A.
 Alpha  occ. eigenvalues --   -1.88983  -1.81343  -1.79516  -1.75007  -1.70809
 Alpha  occ. eigenvalues --   -1.69825  -1.66897  -1.60282  -1.59657  -1.56972
 Alpha  occ. eigenvalues --   -1.53740  -1.50147  -1.48966  -1.48210  -1.44975
 Alpha  occ. eigenvalues --   -1.43835  -1.41341  -1.40639  -1.38796  -1.37577
 Alpha  occ. eigenvalues --   -1.35813  -1.34646  -1.32391  -1.31425  -1.28368
 Alpha  occ. eigenvalues --   -1.27152  -1.25113  -1.22781  -1.21949  -1.18717
 Alpha  occ. eigenvalues --   -1.18013  -1.15911  -1.15006  -1.14621  -1.13572
 Alpha  occ. eigenvalues --   -1.12483  -1.11042  -1.10205  -1.05613  -1.03481
 Alpha  occ. eigenvalues --   -1.02192  -1.01427  -0.99157  -0.98023  -0.96699
 Alpha  occ. eigenvalues --   -0.95285  -0.94923  -0.93625  -0.93425  -0.91817
 Alpha  occ. eigenvalues --   -0.91047  -0.90346  -0.88892  -0.88656  -0.86067
 Alpha  occ. eigenvalues --   -0.84313  -0.83399  -0.83258  -0.80612  -0.79637
 Alpha  occ. eigenvalues --   -0.78986  -0.78855  -0.77913  -0.76860  -0.76349
 Alpha  occ. eigenvalues --   -0.75623  -0.74718  -0.74364  -0.73721  -0.73214
 Alpha  occ. eigenvalues --   -0.72779  -0.71980  -0.71677  -0.70968  -0.70758
 Alpha  occ. eigenvalues --   -0.70374  -0.69428  -0.68659  -0.67955  -0.67745
 Alpha  occ. eigenvalues --   -0.67664  -0.66777  -0.66491  -0.66072  -0.65777
 Alpha  occ. eigenvalues --   -0.65641  -0.65024  -0.64725  -0.64024  -0.63948
 Alpha  occ. eigenvalues --   -0.63715  -0.63535  -0.62804  -0.62326  -0.61964
 Alpha  occ. eigenvalues --   -0.61895  -0.61330  -0.61243  -0.61061  -0.60426
 Alpha  occ. eigenvalues --   -0.59317  -0.58986  -0.58378  -0.58081  -0.58015
 Alpha  occ. eigenvalues --   -0.57695  -0.57381  -0.56723  -0.56618  -0.56409
 Alpha  occ. eigenvalues --   -0.56034  -0.55683  -0.55585  -0.55225  -0.54938
 Alpha  occ. eigenvalues --   -0.54802  -0.54387  -0.53984  -0.53118  -0.53047
 Alpha  occ. eigenvalues --   -0.52616  -0.52400  -0.52152  -0.51915  -0.51445
 Alpha  occ. eigenvalues --   -0.51415  -0.51127  -0.50879  -0.50650  -0.50384
 Alpha  occ. eigenvalues --   -0.49807  -0.49607  -0.49265  -0.48920  -0.48909
 Alpha  occ. eigenvalues --   -0.48713  -0.48529  -0.48407  -0.48196  -0.47675
 Alpha  occ. eigenvalues --   -0.47398  -0.47240  -0.47094  -0.46754  -0.46535
 Alpha  occ. eigenvalues --   -0.46231  -0.46061  -0.45532  -0.45447  -0.45423
 Alpha  occ. eigenvalues --   -0.45153  -0.44933  -0.44883  -0.44570  -0.44441
 Alpha  occ. eigenvalues --   -0.44192  -0.43596  -0.42685  -0.42273  -0.42040
 Alpha  occ. eigenvalues --   -0.41623  -0.40698  -0.40150  -0.39637  -0.38964
 Alpha  occ. eigenvalues --   -0.38908  -0.37084  -0.35846  -0.35485  -0.34725
 Alpha  occ. eigenvalues --   -0.33288  -0.32970  -0.32517  -0.31533  -0.26898
 Alpha  occ. eigenvalues --   -0.22107
 Alpha virt. eigenvalues --   -0.08584  -0.02860  -0.00722   0.00798   0.01177
 Alpha virt. eigenvalues --    0.01633   0.02006   0.02800   0.04256   0.05014
 Alpha virt. eigenvalues --    0.05784   0.06413   0.06935   0.07642   0.07987

 Mulliken charges:
               1
     1  Mg   0.424067
     2  C   -0.055814
     3  C   -0.093863
     4  C   -0.059278
     5  C   -0.053954
     6  N   -0.278281
     7  C    0.128544
     8  C   -0.007614
     9  C    0.008484
    10  C    0.147060
    11  C   -0.046776
    12  C   -0.025476
    13  C    0.003850
    14  C    0.465422
    15  O   -0.535148
    16  O   -0.239720
    17  N   -0.316033
    18  C    0.137796
    19  C    0.035598
    20  C   -0.051871
    21  C    0.104608
    22  C   -0.031016
    23  C    0.319724
    24  O   -0.526312
    25  C   -0.025285
    26  N   -0.248165
    27  C    0.117268
    28  C   -0.000765
    29  C   -0.008165
    30  C    0.105799
    31  C   -0.052506
    32  C   -0.029990
    33  C   -0.066487
    34  N   -0.322515
    35  C    0.078139
    36  C    0.035556
    37  C   -0.055545
    38  C    0.131270
    39  C   -0.036324
    40  C    0.333178
    41  O   -0.525072
    42  C    0.060129
    43  C    0.481731
    44  O   -0.528723
    45  O   -0.278256
    46  C    0.074379
    47  C    0.108660
    48  C   -0.092443
    49  C   -0.006769
    50  C   -0.039095
    51  C   -0.022297
    52  C   -0.027554
    53  C   -0.039826
    54  C   -0.013123
    55  C   -0.063311
    56  C   -0.032916
    57  C   -0.037683
    58  C   -0.032718
    59  C   -0.017624
    60  C   -0.068619
    61  C   -0.036728
    62  C   -0.036255
    63  C   -0.038769
    64  C   -0.008178
    65  C   -0.054193
    66  C   -0.057491
    67  H    0.019427
    68  H    0.033513
    69  H    0.026278
    70  H    0.022172
    71  H    0.025981
    72  H    0.021732
    73  H    0.018780
    74  H    0.026459
    75  H    0.018234
    76  H    0.041991
    77  H    0.050715
    78  H    0.054818
    79  H    0.042631
    80  H    0.021117
    81  H    0.043984
    82  H    0.039166
    83  H    0.045069
    84  H    0.037882
    85  H    0.033229
    86  H    0.040576
    87  H    0.021166
    88  H    0.025028
    89  H    0.015483
    90  H    0.021024
    91  H    0.026428
    92  H    0.028892
    93  H    0.021627
    94  H    0.006468
    95  H    0.040755
    96  H    0.019883
    97  H    0.030730
    98  H    0.050071
    99  H    0.043891
   100  H    0.058845
   101  H    0.037304
   102  H    0.024024
   103  H    0.060210
   104  H    0.028655
   105  H    0.036441
   106  H    0.025451
   107  H    0.026244
   108  H    0.022125
   109  H    0.019202
   110  H    0.024385
   111  H    0.020709
   112  H    0.017848
   113  H    0.012623
   114  H    0.004034
   115  H    0.024267
   116  H    0.021883
   117  H    0.025114
   118  H    0.011686
   119  H    0.028955
   120  H    0.022815
   121  H    0.011668
   122  H    0.014482
   123  H    0.017548
   124  H    0.016601
   125  H    0.024773
   126  H    0.011583
   127  H    0.023842
   128  H    0.018154
   129  H    0.020089
   130  H    0.021703
   131  H    0.019917
   132  H    0.010300
   133  H    0.019303
   134  H    0.024202
   135  H    0.014339
   136  H    0.017128
   137  H    0.009399
   138  H    0.018743
   139  H    0.021567
   140  H    0.019925
 Sum of Mulliken charges =   0.00000

 Dipole moment (field-independent basis, Debye):
    X=              0.5216    Y=              3.5817    Z=             -0.8621  Tot=              3.7207
 N-N= 4.401949673638D+03 E-N= 0.000000000000D+00  KE=-9.478107061176D+03
 Leave Link  601 at Thu May  5 15:55:18 2022, MaxMem=  6710886400 cpu:               2.7 elap:               0.1
 (Enter /sw/apps/gaussian-16.0/g16/l9999.exe)
 1\1\GINC-BP1-COMPUTE197\SP\RZINDO CIS\STO-3G\C55H74Mg1N4O6\OF15641\05-
 May-2022\0\\#p ZINDO=(nstates=5)\\step_951_chromophore_11 ZINDO\\0,1\M
 g,0,52.298,23.573,44.024\C,0,49.461,25.546,43.787\C,0,50.39,20.831,43.
 714\C,0,55.16,21.66,43.314\C,0,54.157,26.391,44.313\N,0,50.199,23.259,
 43.642\C,0,49.222,24.145,43.562\C,0,47.85,23.465,43.206\C,0,48.173,22.
 003,43.68\C,0,49.688,22.001,43.703\C,0,47.495,21.498,44.984\C,0,47.26,
 23.629,41.727\C,0,48.248,23.786,40.548\C,0,47.839,23.01,39.277\O,0,46.

 Normal termination of Gaussian 16 at Thu May  5 15:55:18 2022.
