 Gaussian 16, Revision A.03,
 Gaussian 16:  ES64L-G16RevA.03 25-Dec-2016

 ------------------------------
 #p blyp/Def2SVP td=(nstates=5)
 ------------------------------

 --------------------------------------------------
 step_801_chromophore_14 TDDFT with blyp functional
 --------------------------------------------------
 Symbolic Z-matrix:
 Charge =  0 Multiplicity = 1

                         Standard orientation:
 ---------------------------------------------------------------------
 Center     Atomic      Atomic             Coordinates (Angstroms)
 Number     Number       Type             X           Y           Z
 ---------------------------------------------------------------------
      1         12           0        5.207834    1.187680   -0.192966
      2          6           0        5.249272   -2.380450    0.489381
      3          6           0        3.891623    0.426510   -3.296625
      4          6           0        4.526965    4.320054   -0.433650
      5          6           0        5.661051    1.478265    3.419584
      6          7           0        4.562341   -0.764436   -1.144488
      7          6           0        4.647796   -2.087953   -0.765895
      8          6           0        4.082488   -3.093877   -1.802122
      9          6           0        3.784413   -2.139500   -2.990705
     10          6           0        4.140823   -0.704278   -2.471865
     11          6           0        4.556530   -2.605601   -4.342933
     12          6           0        2.973069   -4.100773   -1.360432
     13          6           0        1.711566   -3.316562   -0.954677
     14          6           0        0.430542   -3.663942   -1.661638
     15          8           0        0.282876   -4.344011   -2.649723
     16          8           0       -0.512152   -2.882851   -1.097507
     17          7           0        4.333099    2.299455   -1.732084
     18          6           0        3.948682    1.851209   -2.937261
     19          6           0        3.642128    2.997504   -3.757114
     20          6           0        3.831613    4.149727   -2.982829
     21          6           0        4.243804    3.665986   -1.652058
     22          6           0        3.158557    3.009299   -5.225091
     23          6           0        3.616412    5.661132   -3.389733
     24          8           0        3.285261    5.920481   -4.541882
     25          6           0        3.911751    6.726971   -2.422333
     26          7           0        4.774152    2.619759    1.406623
     27          6           0        4.843204    3.930741    0.883959
     28          6           0        5.231945    4.955717    2.004093
     29          6           0        5.116688    4.001144    3.253387
     30          6           0        5.297919    2.584992    2.635104
     31          6           0        6.614563    5.540539    1.745805
     32          6           0        3.838556    4.128819    4.175502
     33          6           0        4.119003    4.425711    5.668804
     34          7           0        5.507026   -0.116970    1.607255
     35          6           0        5.749415    0.227252    2.940250
     36          6           0        6.079371   -0.964146    3.694413
     37          6           0        5.861937   -2.049873    2.767266
     38          6           0        5.572704   -1.444423    1.472924
     39          6           0        6.380091   -0.994704    5.125051
     40          6           0        5.870957   -3.485411    2.664023
     41          8           0        6.207428   -4.346836    3.457059
     42          6           0        5.478141   -3.699593    1.128884
     43          6           0        6.514716   -4.603035    0.535760
     44          8           0        6.309933   -5.818179    0.377699
     45          8           0        7.658158   -3.952228    0.154432
     46          6           0        8.590225   -4.856365   -0.554242
     47          6           0       -1.835102   -2.840361   -1.767258
     48          6           0       -2.738695   -1.948705   -0.975521
     49          6           0       -3.734820   -1.212898   -1.469562
     50          6           0       -4.186003   -1.237571   -2.937725
     51          6           0       -4.428951   -0.160913   -0.542894
     52          6           0       -5.534523   -0.496791    0.514985
     53          6           0       -6.709345    0.398453    0.500523
     54          6           0       -8.154272   -0.128276    0.874245
     55          6           0       -8.158249   -0.605917    2.332886
     56          6           0       -8.650650   -1.189725   -0.175753
     57          6           0      -10.163413   -0.910421   -0.559583
     58          6           0      -11.229443   -1.837852    0.174962
     59          6           0      -11.955646   -1.143087    1.332284
     60          6           0      -11.956805   -1.889163    2.692969
     61          6           0      -13.397551   -0.741420    0.913307
     62          6           0      -13.471402    0.691335    0.432345
     63          6           0      -14.770247    0.966329   -0.385723
     64          6           0      -15.608735    2.112252    0.221222
     65          6           0      -16.116620    1.652181    1.640649
     66          6           0      -16.748682    2.384848   -0.754442
     67          1           0        3.544809    0.078852   -4.272402
     68          1           0        4.398571    5.404401   -0.474383
     69          1           0        5.790062    1.664516    4.488101
     70          1           0        4.884156   -3.780473   -2.072982
     71          1           0        2.708328   -2.243412   -3.128456
     72          1           0        5.234515   -1.889448   -4.806786
     73          1           0        3.855202   -2.973003   -5.091421
     74          1           0        5.243649   -3.438923   -4.192925
     75          1           0        3.352451   -4.766278   -0.584727
     76          1           0        2.787958   -4.770620   -2.200415
     77          1           0        1.760738   -2.240670   -1.117626
     78          1           0        1.568988   -3.537017    0.103081
     79          1           0        2.360002    3.751573   -5.217054
     80          1           0        2.755749    2.013611   -5.409968
     81          1           0        3.902887    3.266693   -5.978868
     82          1           0        4.943863    6.709344   -2.073148
     83          1           0        3.132405    6.611531   -1.668679
     84          1           0        3.642898    7.631878   -2.965795
     85          1           0        4.440656    5.704559    2.027396
     86          1           0        6.028217    4.078701    3.847103
     87          1           0        6.687899    6.577457    2.073767
     88          1           0        6.907881    5.519164    0.695903
     89          1           0        7.341603    4.857913    2.188363
     90          1           0        3.293562    3.187681    4.247004
     91          1           0        3.159323    4.850588    3.721317
     92          1           0        3.512665    3.801572    6.326093
     93          1           0        3.814102    5.467313    5.764082
     94          1           0        5.185797    4.317587    5.864863
     95          1           0        6.547021   -1.994583    5.525282
     96          1           0        5.622399   -0.492101    5.726893
     97          1           0        7.276182   -0.381328    5.223360
     98          1           0        4.562418   -4.290283    1.159202
     99          1           0        9.255763   -5.160683    0.252666
    100          1           0        9.131140   -4.162014   -1.197888
    101          1           0        8.298085   -5.825369   -0.959700
    102          1           0       -2.189813   -3.864749   -1.879885
    103          1           0       -1.723539   -2.368036   -2.744045
    104          1           0       -2.487514   -1.759701    0.068179
    105          1           0       -4.102549   -2.201488   -3.439391
    106          1           0       -3.746470   -0.406546   -3.489073
    107          1           0       -5.234694   -0.939167   -2.929102
    108          1           0       -4.694451    0.764031   -1.054650
    109          1           0       -3.705786    0.317755    0.116348
    110          1           0       -5.051977   -0.604562    1.486101
    111          1           0       -5.843135   -1.502363    0.228998
    112          1           0       -6.779649    0.949132   -0.437094
    113          1           0       -6.461036    1.148046    1.252076
    114          1           0       -8.888040    0.663361    0.726055
    115          1           0       -7.339240   -0.329576    2.997132
    116          1           0       -8.231492   -1.693616    2.355557
    117          1           0       -9.093400   -0.144692    2.651444
    118          1           0       -8.375733   -2.231140   -0.006481
    119          1           0       -8.170113   -1.046322   -1.143035
    120          1           0      -10.153844   -0.996870   -1.646343
    121          1           0      -10.510183    0.086600   -0.287442
    122          1           0      -10.639107   -2.683080    0.527868
    123          1           0      -11.958615   -2.215224   -0.542425
    124          1           0      -11.310349   -0.288508    1.532404
    125          1           0      -12.933247   -2.297096    2.952414
    126          1           0      -11.701399   -1.217626    3.511865
    127          1           0      -11.227372   -2.698962    2.684263
    128          1           0      -14.080345   -0.982068    1.727927
    129          1           0      -13.777537   -1.282712    0.046976
    130          1           0      -12.624088    0.968001   -0.194153
    131          1           0      -13.352986    1.364511    1.280306
    132          1           0      -15.366801    0.067792   -0.543820
    133          1           0      -14.622715    1.328114   -1.404258
    134          1           0      -14.938858    2.949237    0.419831
    135          1           0      -15.542894    0.838115    2.083233
    136          1           0      -17.138100    1.274037    1.597507
    137          1           0      -16.157813    2.423526    2.410272
    138          1           0      -17.645186    2.750299   -0.255211
    139          1           0      -17.072872    1.502441   -1.306423
    140          1           0      -16.357565    3.162248   -1.410790
 ---------------------------------------------------------------------

 SCF Done:  E(RB-LYP) =  -3007.36193944     A.U. after   20 cycles

 Excitation energies and oscillator strengths:

 Excited State   1:      Singlet-A      1.7608 eV  704.14 nm  f=0.2822  <S**2>=0.000
     245 -> 248       -0.18878
     246 -> 247        0.69055
     246 <- 247       -0.15135
 This state for optimization and/or second-order correction.
 Total Energy, E(TD-HF/TD-DFT) =  -3007.29723124
 Copying the excited state density for this state as the 1-particle RhoCI density.

 Excited State   2:      Singlet-A      1.8508 eV  669.90 nm  f=0.0347  <S**2>=0.000
     244 -> 247        0.38231
     245 -> 247        0.56230
     246 -> 248        0.14479

 Excited State   3:      Singlet-A      1.9963 eV  621.08 nm  f=0.0013  <S**2>=0.000
     243 -> 247        0.65071
     244 -> 247        0.25786

 Excited State   4:      Singlet-A      2.0448 eV  606.33 nm  f=0.0241  <S**2>=0.000
     243 -> 247       -0.26632
     244 -> 247        0.52546
     245 -> 247       -0.32312
     246 -> 248       -0.18860

 Excited State   5:      Singlet-A      2.3921 eV  518.31 nm  f=0.0000  <S**2>=0.000
     241 -> 247        0.70705

 The electronic state is 1-A.
 Alpha  occ. eigenvalues --  -46.29570 -18.82525 -18.81924 -18.76963 -18.76148
 Alpha  occ. eigenvalues --  -18.76099 -18.75838 -14.03958 -14.03341 -14.01426
 Alpha  occ. eigenvalues --  -14.00776 -10.03739 -10.03361 -10.00421  -9.99675
 Alpha  occ. eigenvalues --   -9.98206  -9.97493  -9.97321  -9.97095  -9.97081
 Alpha  occ. eigenvalues --   -9.96463  -9.96157  -9.96049  -9.95218  -9.94692
 Alpha  occ. eigenvalues --   -9.94666  -9.94645  -9.94097  -9.93993  -9.93971
 Alpha  occ. eigenvalues --   -9.93757  -9.93482  -9.93476  -9.93344  -9.93285
 Alpha  occ. eigenvalues --   -9.93274  -9.93170  -9.93129  -9.93032  -9.93019
 Alpha  occ. eigenvalues --   -9.92771  -9.92676  -9.92676  -9.92674  -9.92619
 Alpha  occ. eigenvalues --   -9.92546  -9.92321  -9.92240  -9.91997  -9.91967
 Alpha  occ. eigenvalues --   -9.91705  -9.91590  -9.91581  -9.91505  -9.91488
 Alpha  occ. eigenvalues --   -9.91423  -9.91388  -9.90964  -9.90878  -9.90878
 Alpha  occ. eigenvalues --   -9.90831  -9.90827  -9.90782  -9.90743  -9.90591
 Alpha  occ. eigenvalues --   -9.90309  -2.93857  -1.74219  -1.73788  -1.73560
 Alpha  occ. eigenvalues --   -0.98471  -0.97254  -0.91856  -0.91645  -0.90481
 Alpha  occ. eigenvalues --   -0.88466  -0.86399  -0.85874  -0.85337  -0.84497
 Alpha  occ. eigenvalues --   -0.75685  -0.73496  -0.73039  -0.72667  -0.72139
 Alpha  occ. eigenvalues --   -0.71921  -0.71819  -0.70877  -0.70726  -0.70275
 Alpha  occ. eigenvalues --   -0.69203  -0.69052  -0.68253  -0.68106  -0.67536
 Alpha  occ. eigenvalues --   -0.66641  -0.66122  -0.65360  -0.64942  -0.64534
 Alpha  occ. eigenvalues --   -0.64167  -0.62578  -0.62066  -0.61456  -0.60677
 Alpha  occ. eigenvalues --   -0.60589  -0.60016  -0.59976  -0.59636  -0.58788
 Alpha  occ. eigenvalues --   -0.58528  -0.57801  -0.57144  -0.56108  -0.54267
 Alpha  occ. eigenvalues --   -0.53933  -0.53690  -0.52687  -0.52167  -0.51620
 Alpha  occ. eigenvalues --   -0.51340  -0.51101  -0.50779  -0.50478  -0.49985
 Alpha  occ. eigenvalues --   -0.49207  -0.49115  -0.48927  -0.48237  -0.46407
 Alpha  occ. eigenvalues --   -0.46347  -0.45774  -0.45452  -0.45308  -0.44347
 Alpha  occ. eigenvalues --   -0.43852  -0.43535  -0.43245  -0.43054  -0.42181
 Alpha  occ. eigenvalues --   -0.41828  -0.41728  -0.41607  -0.41148  -0.41067
 Alpha  occ. eigenvalues --   -0.40905  -0.40520  -0.40466  -0.40301  -0.40192
 Alpha  occ. eigenvalues --   -0.39967  -0.39772  -0.39640  -0.39430  -0.39257
 Alpha  occ. eigenvalues --   -0.39030  -0.38867  -0.38736  -0.38440  -0.38296
 Alpha  occ. eigenvalues --   -0.38115  -0.37776  -0.37531  -0.37308  -0.37235
 Alpha  occ. eigenvalues --   -0.36897  -0.36797  -0.36712  -0.36603  -0.36382
 Alpha  occ. eigenvalues --   -0.36255  -0.36045  -0.35932  -0.35804  -0.35562
 Alpha  occ. eigenvalues --   -0.35315  -0.35156  -0.34944  -0.34778  -0.34701
 Alpha  occ. eigenvalues --   -0.34546  -0.34329  -0.34211  -0.34046  -0.33964
 Alpha  occ. eigenvalues --   -0.33862  -0.33659  -0.33638  -0.33505  -0.33282
 Alpha  occ. eigenvalues --   -0.33116  -0.32909  -0.32595  -0.32451  -0.32298
 Alpha  occ. eigenvalues --   -0.31813  -0.31789  -0.31749  -0.31439  -0.31353
 Alpha  occ. eigenvalues --   -0.31068  -0.31033  -0.30923  -0.30843  -0.30750
 Alpha  occ. eigenvalues --   -0.30609  -0.30526  -0.30363  -0.30143  -0.30071
 Alpha  occ. eigenvalues --   -0.29947  -0.29536  -0.29395  -0.29275  -0.28815
 Alpha  occ. eigenvalues --   -0.28629  -0.28607  -0.28377  -0.28150  -0.27865
 Alpha  occ. eigenvalues --   -0.27776  -0.27503  -0.26905  -0.26641  -0.26599
 Alpha  occ. eigenvalues --   -0.26148  -0.26012  -0.25843  -0.25708  -0.25499
 Alpha  occ. eigenvalues --   -0.25412  -0.24408  -0.24309  -0.23996  -0.23405
 Alpha  occ. eigenvalues --   -0.22776  -0.22256  -0.22189  -0.21113  -0.20695
 Alpha  occ. eigenvalues --   -0.20620  -0.20252  -0.19126  -0.18905  -0.17405
 Alpha  occ. eigenvalues --   -0.15973
 Alpha virt. eigenvalues --   -0.11829  -0.07417  -0.06325  -0.05253  -0.04777
 Alpha virt. eigenvalues --   -0.02621  -0.02373  -0.02111  -0.01515  -0.00099
 Alpha virt. eigenvalues --    0.00908   0.01816   0.01935   0.02477   0.02811

 Mulliken charges:
               1
     1  Mg   0.668463
     2  C    0.059829
     3  C   -0.044886
     4  C   -0.012983
     5  C   -0.112547
     6  N   -0.214495
     7  C   -0.084316
     8  C    0.021594
     9  C   -0.005660
    10  C    0.027260
    11  C    0.096521
    12  C    0.133854
    13  C    0.073845
    14  C    0.069944
    15  O   -0.180633
    16  O   -0.277147
    17  N   -0.284427
    18  C    0.129811
    19  C   -0.176521
    20  C    0.045673
    21  C    0.094722
    22  C    0.180999
    23  C   -0.102950
    24  O   -0.160269
    25  C    0.179114
    26  N   -0.222885
    27  C   -0.032533
    28  C    0.012256
    29  C    0.021377
    30  C    0.009922
    31  C    0.155535
    32  C    0.103768
    33  C    0.056674
    34  N   -0.206756
    35  C    0.166201
    36  C   -0.164486
    37  C    0.042486
    38  C    0.060677
    39  C    0.187358
    40  C   -0.043702
    41  O   -0.113638
    42  C    0.020446
    43  C    0.099836
    44  O   -0.204827
    45  O   -0.274521
    46  C    0.222924
    47  C    0.325596
    48  C   -0.087978
    49  C   -0.124811
    50  C    0.139562
    51  C    0.083880
    52  C    0.101308
    53  C    0.077705
    54  C   -0.036308
    55  C    0.113018
    56  C    0.082530
    57  C    0.019693
    58  C    0.136963
    59  C   -0.080359
    60  C    0.100217
    61  C    0.118847
    62  C    0.077562
    63  C    0.081344
    64  C   -0.092447
    65  C    0.085521
    66  C    0.130552
    67  H   -0.052017
    68  H   -0.081808
    69  H   -0.060749
    70  H   -0.021263
    71  H   -0.006587
    72  H   -0.006012
    73  H   -0.000321
    74  H   -0.015299
    75  H   -0.001839
    76  H   -0.012107
    77  H    0.026473
    78  H    0.007409
    79  H    0.011103
    80  H   -0.025233
    81  H    0.012180
    82  H    0.034286
    83  H    0.016120
    84  H   -0.014621
    85  H   -0.027381
    86  H   -0.046176
    87  H    0.001719
    88  H   -0.019978
    89  H   -0.015693
    90  H   -0.015635
    91  H   -0.019571
    92  H    0.000283
    93  H   -0.005646
    94  H   -0.002755
    95  H    0.011688
    96  H    0.000815
    97  H   -0.006908
    98  H   -0.006121
    99  H    0.002944
   100  H    0.013087
   101  H    0.034470
   102  H    0.013022
   103  H    0.002252
   104  H   -0.034513
   105  H    0.007628
   106  H    0.005703
   107  H   -0.014797
   108  H   -0.044250
   109  H   -0.038685
   110  H   -0.023530
   111  H   -0.040726
   112  H   -0.038305
   113  H   -0.043375
   114  H   -0.044669
   115  H   -0.011085
   116  H   -0.012615
   117  H   -0.009339
   118  H   -0.022341
   119  H   -0.046091
   120  H   -0.035312
   121  H   -0.015851
   122  H   -0.047666
   123  H   -0.037040
   124  H   -0.034307
   125  H   -0.019178
   126  H   -0.014781
   127  H   -0.022556
   128  H   -0.029939
   129  H   -0.030821
   130  H   -0.037578
   131  H   -0.030717
   132  H   -0.032328
   133  H   -0.044515
   134  H   -0.028476
   135  H   -0.023196
   136  H   -0.031267
   137  H   -0.022788
   138  H   -0.023460
   139  H   -0.012973
   140  H   -0.011699
 Sum of Mulliken charges =  -0.00000

 Dipole moment (field-independent basis, Debye):
    X=              0.3320    Y=              5.5731    Z=              1.0231  Tot=              5.6759
 Quadrupole moment (field-independent basis, Debye-Ang):
   XX=           -374.7511   YY=           -436.9833   ZZ=           -415.0896
   XY=             28.8514   XZ=             -2.3627   YZ=             38.1374

 Normal termination of Gaussian 16 at Sat Apr 30 16:22:32 2022.
