 Gaussian 16, Revision A.03,
 Gaussian 16:  ES64L-G16RevA.03 25-Dec-2016

 -----------------------------------
 #p cam-b3lyp/Def2SVP td=(nstates=5)
 -----------------------------------

 -------------------------------------------------------
 step_801_chromophore_14 TDDFT with cam-b3lyp functional
 -------------------------------------------------------
 Symbolic Z-matrix:
 Charge =  0 Multiplicity = 1

                         Standard orientation:
 ---------------------------------------------------------------------
 Center     Atomic      Atomic             Coordinates (Angstroms)
 Number     Number       Type             X           Y           Z
 ---------------------------------------------------------------------
      1         12           0        5.207834    1.187680   -0.192966
      2          6           0        5.249272   -2.380450    0.489381
      3          6           0        3.891623    0.426510   -3.296625
      4          6           0        4.526965    4.320054   -0.433650
      5          6           0        5.661051    1.478265    3.419584
      6          7           0        4.562341   -0.764436   -1.144488
      7          6           0        4.647796   -2.087953   -0.765895
      8          6           0        4.082488   -3.093877   -1.802122
      9          6           0        3.784413   -2.139500   -2.990705
     10          6           0        4.140823   -0.704278   -2.471865
     11          6           0        4.556530   -2.605601   -4.342933
     12          6           0        2.973069   -4.100773   -1.360432
     13          6           0        1.711566   -3.316562   -0.954677
     14          6           0        0.430542   -3.663942   -1.661638
     15          8           0        0.282876   -4.344011   -2.649723
     16          8           0       -0.512152   -2.882851   -1.097507
     17          7           0        4.333099    2.299455   -1.732084
     18          6           0        3.948682    1.851209   -2.937261
     19          6           0        3.642128    2.997504   -3.757114
     20          6           0        3.831613    4.149727   -2.982829
     21          6           0        4.243804    3.665986   -1.652058
     22          6           0        3.158557    3.009299   -5.225091
     23          6           0        3.616412    5.661132   -3.389733
     24          8           0        3.285261    5.920481   -4.541882
     25          6           0        3.911751    6.726971   -2.422333
     26          7           0        4.774152    2.619759    1.406623
     27          6           0        4.843204    3.930741    0.883959
     28          6           0        5.231945    4.955717    2.004093
     29          6           0        5.116688    4.001144    3.253387
     30          6           0        5.297919    2.584992    2.635104
     31          6           0        6.614563    5.540539    1.745805
     32          6           0        3.838556    4.128819    4.175502
     33          6           0        4.119003    4.425711    5.668804
     34          7           0        5.507026   -0.116970    1.607255
     35          6           0        5.749415    0.227252    2.940250
     36          6           0        6.079371   -0.964146    3.694413
     37          6           0        5.861937   -2.049873    2.767266
     38          6           0        5.572704   -1.444423    1.472924
     39          6           0        6.380091   -0.994704    5.125051
     40          6           0        5.870957   -3.485411    2.664023
     41          8           0        6.207428   -4.346836    3.457059
     42          6           0        5.478141   -3.699593    1.128884
     43          6           0        6.514716   -4.603035    0.535760
     44          8           0        6.309933   -5.818179    0.377699
     45          8           0        7.658158   -3.952228    0.154432
     46          6           0        8.590225   -4.856365   -0.554242
     47          6           0       -1.835102   -2.840361   -1.767258
     48          6           0       -2.738695   -1.948705   -0.975521
     49          6           0       -3.734820   -1.212898   -1.469562
     50          6           0       -4.186003   -1.237571   -2.937725
     51          6           0       -4.428951   -0.160913   -0.542894
     52          6           0       -5.534523   -0.496791    0.514985
     53          6           0       -6.709345    0.398453    0.500523
     54          6           0       -8.154272   -0.128276    0.874245
     55          6           0       -8.158249   -0.605917    2.332886
     56          6           0       -8.650650   -1.189725   -0.175753
     57          6           0      -10.163413   -0.910421   -0.559583
     58          6           0      -11.229443   -1.837852    0.174962
     59          6           0      -11.955646   -1.143087    1.332284
     60          6           0      -11.956805   -1.889163    2.692969
     61          6           0      -13.397551   -0.741420    0.913307
     62          6           0      -13.471402    0.691335    0.432345
     63          6           0      -14.770247    0.966329   -0.385723
     64          6           0      -15.608735    2.112252    0.221222
     65          6           0      -16.116620    1.652181    1.640649
     66          6           0      -16.748682    2.384848   -0.754442
     67          1           0        3.544809    0.078852   -4.272402
     68          1           0        4.398571    5.404401   -0.474383
     69          1           0        5.790062    1.664516    4.488101
     70          1           0        4.884156   -3.780473   -2.072982
     71          1           0        2.708328   -2.243412   -3.128456
     72          1           0        5.234515   -1.889448   -4.806786
     73          1           0        3.855202   -2.973003   -5.091421
     74          1           0        5.243649   -3.438923   -4.192925
     75          1           0        3.352451   -4.766278   -0.584727
     76          1           0        2.787958   -4.770620   -2.200415
     77          1           0        1.760738   -2.240670   -1.117626
     78          1           0        1.568988   -3.537017    0.103081
     79          1           0        2.360002    3.751573   -5.217054
     80          1           0        2.755749    2.013611   -5.409968
     81          1           0        3.902887    3.266693   -5.978868
     82          1           0        4.943863    6.709344   -2.073148
     83          1           0        3.132405    6.611531   -1.668679
     84          1           0        3.642898    7.631878   -2.965795
     85          1           0        4.440656    5.704559    2.027396
     86          1           0        6.028217    4.078701    3.847103
     87          1           0        6.687899    6.577457    2.073767
     88          1           0        6.907881    5.519164    0.695903
     89          1           0        7.341603    4.857913    2.188363
     90          1           0        3.293562    3.187681    4.247004
     91          1           0        3.159323    4.850588    3.721317
     92          1           0        3.512665    3.801572    6.326093
     93          1           0        3.814102    5.467313    5.764082
     94          1           0        5.185797    4.317587    5.864863
     95          1           0        6.547021   -1.994583    5.525282
     96          1           0        5.622399   -0.492101    5.726893
     97          1           0        7.276182   -0.381328    5.223360
     98          1           0        4.562418   -4.290283    1.159202
     99          1           0        9.255763   -5.160683    0.252666
    100          1           0        9.131140   -4.162014   -1.197888
    101          1           0        8.298085   -5.825369   -0.959700
    102          1           0       -2.189813   -3.864749   -1.879885
    103          1           0       -1.723539   -2.368036   -2.744045
    104          1           0       -2.487514   -1.759701    0.068179
    105          1           0       -4.102549   -2.201488   -3.439391
    106          1           0       -3.746470   -0.406546   -3.489073
    107          1           0       -5.234694   -0.939167   -2.929102
    108          1           0       -4.694451    0.764031   -1.054650
    109          1           0       -3.705786    0.317755    0.116348
    110          1           0       -5.051977   -0.604562    1.486101
    111          1           0       -5.843135   -1.502363    0.228998
    112          1           0       -6.779649    0.949132   -0.437094
    113          1           0       -6.461036    1.148046    1.252076
    114          1           0       -8.888040    0.663361    0.726055
    115          1           0       -7.339240   -0.329576    2.997132
    116          1           0       -8.231492   -1.693616    2.355557
    117          1           0       -9.093400   -0.144692    2.651444
    118          1           0       -8.375733   -2.231140   -0.006481
    119          1           0       -8.170113   -1.046322   -1.143035
    120          1           0      -10.153844   -0.996870   -1.646343
    121          1           0      -10.510183    0.086600   -0.287442
    122          1           0      -10.639107   -2.683080    0.527868
    123          1           0      -11.958615   -2.215224   -0.542425
    124          1           0      -11.310349   -0.288508    1.532404
    125          1           0      -12.933247   -2.297096    2.952414
    126          1           0      -11.701399   -1.217626    3.511865
    127          1           0      -11.227372   -2.698962    2.684263
    128          1           0      -14.080345   -0.982068    1.727927
    129          1           0      -13.777537   -1.282712    0.046976
    130          1           0      -12.624088    0.968001   -0.194153
    131          1           0      -13.352986    1.364511    1.280306
    132          1           0      -15.366801    0.067792   -0.543820
    133          1           0      -14.622715    1.328114   -1.404258
    134          1           0      -14.938858    2.949237    0.419831
    135          1           0      -15.542894    0.838115    2.083233
    136          1           0      -17.138100    1.274037    1.597507
    137          1           0      -16.157813    2.423526    2.410272
    138          1           0      -17.645186    2.750299   -0.255211
    139          1           0      -17.072872    1.502441   -1.306423
    140          1           0      -16.357565    3.162248   -1.410790
 ---------------------------------------------------------------------

 SCF Done:  E(RCAM-B3LYP) =  -3007.14824912     A.U. after   19 cycles

 Excitation energies and oscillator strengths:

 Excited State   1:      Singlet-A      1.6708 eV  742.07 nm  f=0.3545  <S**2>=0.000
     245 -> 248        0.17339
     246 -> 247        0.68614
     245 <- 248        0.10603
 This state for optimization and/or second-order correction.
 Total Energy, E(TD-HF/TD-DFT) =  -3007.08684841
 Copying the excited state density for this state as the 1-particle RhoCI density.

 Excited State   2:      Singlet-A      2.1779 eV  569.29 nm  f=0.0753  <S**2>=0.000
     245 -> 247        0.62953
     246 -> 248       -0.30460

 Excited State   3:      Singlet-A      3.2463 eV  381.93 nm  f=0.0892  <S**2>=0.000
     241 -> 247        0.12322
     243 -> 247        0.30346
     244 -> 247        0.36127
     245 -> 247        0.12039
     246 -> 248        0.39433
     246 -> 249        0.25806

 Excited State   4:      Singlet-A      3.3122 eV  374.33 nm  f=0.0465  <S**2>=0.000
     243 -> 247       -0.20481
     244 -> 247       -0.42894
     245 -> 247        0.10232
     246 -> 248        0.16617
     246 -> 249        0.43584

 Excited State   5:      Singlet-A      3.3606 eV  368.93 nm  f=0.0068  <S**2>=0.000
     239 -> 247        0.19275
     239 -> 250       -0.11503
     240 -> 247       -0.20014
     240 -> 250        0.10490
     241 -> 247        0.44882
     241 -> 250       -0.20974
     243 -> 247       -0.10192
     246 -> 249       -0.30379

 The electronic state is 1-A.
 Alpha  occ. eigenvalues --  -46.91338 -19.25591 -19.24748 -19.19855 -19.19675
 Alpha  occ. eigenvalues --  -19.19108 -19.19066 -14.42775 -14.42329 -14.39748
 Alpha  occ. eigenvalues --  -14.39308 -10.38990 -10.38887 -10.35372 -10.35350
 Alpha  occ. eigenvalues --  -10.32246 -10.32207 -10.31547 -10.31390 -10.31362
 Alpha  occ. eigenvalues --  -10.31153 -10.30121 -10.29921 -10.29892 -10.29421
 Alpha  occ. eigenvalues --  -10.29078 -10.28640 -10.28612 -10.28202 -10.28069
 Alpha  occ. eigenvalues --  -10.27916 -10.27710 -10.27691 -10.27592 -10.27417
 Alpha  occ. eigenvalues --  -10.27264 -10.27079 -10.27072 -10.26999 -10.26948
 Alpha  occ. eigenvalues --  -10.26683 -10.26655 -10.26581 -10.26508 -10.26363
 Alpha  occ. eigenvalues --  -10.26283 -10.26040 -10.26026 -10.26010 -10.25699
 Alpha  occ. eigenvalues --  -10.25692 -10.25624 -10.25284 -10.25214 -10.25080
 Alpha  occ. eigenvalues --  -10.25064 -10.25048 -10.24612 -10.24524 -10.24494
 Alpha  occ. eigenvalues --  -10.24457 -10.24442 -10.24399 -10.24349 -10.24184
 Alpha  occ. eigenvalues --  -10.23916  -3.19502  -1.94347  -1.93986  -1.93777
 Alpha  occ. eigenvalues --   -1.16909  -1.15879  -1.10368  -1.10009  -1.08296
 Alpha  occ. eigenvalues --   -1.06576  -1.04114  -1.03371  -1.03040  -1.02067
 Alpha  occ. eigenvalues --   -0.93060  -0.90322  -0.89844  -0.89451  -0.88853
 Alpha  occ. eigenvalues --   -0.88602  -0.88502  -0.87530  -0.87440  -0.86769
 Alpha  occ. eigenvalues --   -0.85488  -0.85320  -0.84494  -0.84435  -0.83715
 Alpha  occ. eigenvalues --   -0.82695  -0.82140  -0.81307  -0.80800  -0.80353
 Alpha  occ. eigenvalues --   -0.79969  -0.78317  -0.77611  -0.76906  -0.76211
 Alpha  occ. eigenvalues --   -0.75914  -0.75377  -0.75199  -0.74922  -0.73986
 Alpha  occ. eigenvalues --   -0.73628  -0.72884  -0.72055  -0.70917  -0.68864
 Alpha  occ. eigenvalues --   -0.68702  -0.68256  -0.67095  -0.66469  -0.65714
 Alpha  occ. eigenvalues --   -0.65588  -0.65191  -0.64801  -0.64451  -0.64047
 Alpha  occ. eigenvalues --   -0.63008  -0.62964  -0.62812  -0.62024  -0.60001
 Alpha  occ. eigenvalues --   -0.59871  -0.59319  -0.58834  -0.58694  -0.57889
 Alpha  occ. eigenvalues --   -0.57257  -0.56856  -0.56642  -0.56177  -0.55296
 Alpha  occ. eigenvalues --   -0.55172  -0.54899  -0.54735  -0.53940  -0.53781
 Alpha  occ. eigenvalues --   -0.53530  -0.53427  -0.53111  -0.53041  -0.52897
 Alpha  occ. eigenvalues --   -0.52647  -0.52615  -0.52405  -0.52171  -0.51922
 Alpha  occ. eigenvalues --   -0.51862  -0.51607  -0.51144  -0.51076  -0.50582
 Alpha  occ. eigenvalues --   -0.50552  -0.50117  -0.49928  -0.49760  -0.49559
 Alpha  occ. eigenvalues --   -0.49238  -0.49168  -0.49072  -0.48925  -0.48676
 Alpha  occ. eigenvalues --   -0.48622  -0.48493  -0.48004  -0.47753  -0.47512
 Alpha  occ. eigenvalues --   -0.47333  -0.47228  -0.46762  -0.46729  -0.46509
 Alpha  occ. eigenvalues --   -0.46356  -0.46204  -0.45994  -0.45930  -0.45842
 Alpha  occ. eigenvalues --   -0.45690  -0.45590  -0.45367  -0.45277  -0.44894
 Alpha  occ. eigenvalues --   -0.44876  -0.44614  -0.44409  -0.44087  -0.43866
 Alpha  occ. eigenvalues --   -0.43793  -0.43370  -0.43194  -0.43150  -0.43029
 Alpha  occ. eigenvalues --   -0.42835  -0.42628  -0.42421  -0.42249  -0.42203
 Alpha  occ. eigenvalues --   -0.42085  -0.41777  -0.41735  -0.41394  -0.41270
 Alpha  occ. eigenvalues --   -0.41155  -0.40736  -0.40724  -0.40427  -0.39988
 Alpha  occ. eigenvalues --   -0.39760  -0.39608  -0.39322  -0.39123  -0.38801
 Alpha  occ. eigenvalues --   -0.38737  -0.38337  -0.37699  -0.37475  -0.37444
 Alpha  occ. eigenvalues --   -0.37221  -0.36997  -0.36795  -0.36497  -0.36419
 Alpha  occ. eigenvalues --   -0.36061  -0.35993  -0.34436  -0.34306  -0.34228
 Alpha  occ. eigenvalues --   -0.33943  -0.33732  -0.33179  -0.31397  -0.31084
 Alpha  occ. eigenvalues --   -0.30800  -0.30295  -0.29945  -0.29673  -0.24339
 Alpha  occ. eigenvalues --   -0.21234
 Alpha virt. eigenvalues --   -0.08897  -0.02328  -0.00273   0.00132   0.02315
 Alpha virt. eigenvalues --    0.04654   0.05110   0.05476   0.06393   0.07405
 Alpha virt. eigenvalues --    0.07628   0.08099   0.08416   0.08640   0.09177

 Mulliken charges:
               1
     1  Mg   0.795293
     2  C    0.024741
     3  C   -0.053507
     4  C   -0.035806
     5  C   -0.119608
     6  N   -0.284254
     7  C   -0.035688
     8  C   -0.021562
     9  C   -0.062851
    10  C    0.043503
    11  C    0.039536
    12  C    0.084925
    13  C   -0.002541
    14  C    0.154390
    15  O   -0.223126
    16  O   -0.341588
    17  N   -0.370756
    18  C    0.130579
    19  C   -0.186162
    20  C   -0.020424
    21  C    0.114546
    22  C    0.134782
    23  C   -0.017803
    24  O   -0.201415
    25  C    0.083144
    26  N   -0.282516
    27  C   -0.017242
    28  C   -0.045091
    29  C   -0.031584
    30  C    0.027484
    31  C    0.096596
    32  C    0.048883
    33  C   -0.004718
    34  N   -0.295663
    35  C    0.172386
    36  C   -0.148289
    37  C   -0.036835
    38  C    0.108424
    39  C    0.125212
    40  C    0.058575
    41  O   -0.150885
    42  C   -0.060999
    43  C    0.189591
    44  O   -0.244463
    45  O   -0.334786
    46  C    0.176870
    47  C    0.292591
    48  C   -0.106690
    49  C   -0.151502
    50  C    0.076223
    51  C    0.025638
    52  C    0.047963
    53  C    0.023402
    54  C   -0.087654
    55  C    0.054303
    56  C    0.025303
    57  C   -0.026628
    58  C    0.084827
    59  C   -0.139361
    60  C    0.046934
    61  C    0.067010
    62  C    0.020565
    63  C    0.026978
    64  C   -0.148609
    65  C    0.027193
    66  C    0.064632
    67  H   -0.017816
    68  H   -0.046561
    69  H   -0.023408
    70  H    0.013134
    71  H    0.025256
    72  H    0.019579
    73  H    0.024124
    74  H    0.008591
    75  H    0.025191
    76  H    0.024425
    77  H    0.057331
    78  H    0.040430
    79  H    0.036605
    80  H   -0.002868
    81  H    0.036519
    82  H    0.060159
    83  H    0.042839
    84  H    0.022465
    85  H    0.007149
    86  H   -0.011080
    87  H    0.026492
    88  H    0.006894
    89  H    0.007889
    90  H    0.014672
    91  H    0.009190
    92  H    0.023974
    93  H    0.018014
    94  H    0.018112
    95  H    0.042199
    96  H    0.028678
    97  H    0.020724
    98  H    0.035405
    99  H    0.027283
   100  H    0.037976
   101  H    0.061719
   102  H    0.041708
   103  H    0.030139
   104  H    0.001720
   105  H    0.031098
   106  H    0.031094
   107  H    0.008947
   108  H   -0.012323
   109  H   -0.006254
   110  H    0.003563
   111  H   -0.012824
   112  H   -0.009576
   113  H   -0.013973
   114  H   -0.010707
   115  H    0.013984
   116  H    0.009477
   117  H    0.010646
   118  H    0.004984
   119  H   -0.015891
   120  H   -0.004852
   121  H    0.004849
   122  H   -0.018831
   123  H   -0.007200
   124  H   -0.006988
   125  H    0.004406
   126  H    0.008655
   127  H    0.001108
   128  H   -0.003001
   129  H   -0.003181
   130  H   -0.008025
   131  H   -0.002655
   132  H   -0.004628
   133  H   -0.013271
   134  H    0.002700
   135  H   -0.001746
   136  H   -0.006218
   137  H    0.002655
   138  H    0.002583
   139  H    0.011154
   140  H    0.012973
 Sum of Mulliken charges =  -0.00000

 Dipole moment (field-independent basis, Debye):
    X=              0.6743    Y=              5.4888    Z=              1.6513  Tot=              5.7713
 Quadrupole moment (field-independent basis, Debye-Ang):
   XX=           -370.8113   YY=           -435.1766   ZZ=           -413.7458
   XY=             28.0911   XZ=              0.5804   YZ=             39.9442

 Normal termination of Gaussian 16 at Sat Apr 30 14:59:14 2022.
