 Gaussian 16, Revision A.03,
 Gaussian 16:  ES64L-G16RevA.03 25-Dec-2016

 ---------------------------------
 #p PBE1PBE/Def2SVP td=(nstates=5)
 ---------------------------------

 -----------------------------------------------------
 step_801_chromophore_14 TDDFT with PBE1PBE functional
 -----------------------------------------------------
 Symbolic Z-matrix:
 Charge =  0 Multiplicity = 1

                         Standard orientation:
 ---------------------------------------------------------------------
 Center     Atomic      Atomic             Coordinates (Angstroms)
 Number     Number       Type             X           Y           Z
 ---------------------------------------------------------------------
      1         12           0        5.207834    1.187680   -0.192966
      2          6           0        5.249272   -2.380450    0.489381
      3          6           0        3.891623    0.426510   -3.296625
      4          6           0        4.526965    4.320054   -0.433650
      5          6           0        5.661051    1.478265    3.419584
      6          7           0        4.562341   -0.764436   -1.144488
      7          6           0        4.647796   -2.087953   -0.765895
      8          6           0        4.082488   -3.093877   -1.802122
      9          6           0        3.784413   -2.139500   -2.990705
     10          6           0        4.140823   -0.704278   -2.471865
     11          6           0        4.556530   -2.605601   -4.342933
     12          6           0        2.973069   -4.100773   -1.360432
     13          6           0        1.711566   -3.316562   -0.954677
     14          6           0        0.430542   -3.663942   -1.661638
     15          8           0        0.282876   -4.344011   -2.649723
     16          8           0       -0.512152   -2.882851   -1.097507
     17          7           0        4.333099    2.299455   -1.732084
     18          6           0        3.948682    1.851209   -2.937261
     19          6           0        3.642128    2.997504   -3.757114
     20          6           0        3.831613    4.149727   -2.982829
     21          6           0        4.243804    3.665986   -1.652058
     22          6           0        3.158557    3.009299   -5.225091
     23          6           0        3.616412    5.661132   -3.389733
     24          8           0        3.285261    5.920481   -4.541882
     25          6           0        3.911751    6.726971   -2.422333
     26          7           0        4.774152    2.619759    1.406623
     27          6           0        4.843204    3.930741    0.883959
     28          6           0        5.231945    4.955717    2.004093
     29          6           0        5.116688    4.001144    3.253387
     30          6           0        5.297919    2.584992    2.635104
     31          6           0        6.614563    5.540539    1.745805
     32          6           0        3.838556    4.128819    4.175502
     33          6           0        4.119003    4.425711    5.668804
     34          7           0        5.507026   -0.116970    1.607255
     35          6           0        5.749415    0.227252    2.940250
     36          6           0        6.079371   -0.964146    3.694413
     37          6           0        5.861937   -2.049873    2.767266
     38          6           0        5.572704   -1.444423    1.472924
     39          6           0        6.380091   -0.994704    5.125051
     40          6           0        5.870957   -3.485411    2.664023
     41          8           0        6.207428   -4.346836    3.457059
     42          6           0        5.478141   -3.699593    1.128884
     43          6           0        6.514716   -4.603035    0.535760
     44          8           0        6.309933   -5.818179    0.377699
     45          8           0        7.658158   -3.952228    0.154432
     46          6           0        8.590225   -4.856365   -0.554242
     47          6           0       -1.835102   -2.840361   -1.767258
     48          6           0       -2.738695   -1.948705   -0.975521
     49          6           0       -3.734820   -1.212898   -1.469562
     50          6           0       -4.186003   -1.237571   -2.937725
     51          6           0       -4.428951   -0.160913   -0.542894
     52          6           0       -5.534523   -0.496791    0.514985
     53          6           0       -6.709345    0.398453    0.500523
     54          6           0       -8.154272   -0.128276    0.874245
     55          6           0       -8.158249   -0.605917    2.332886
     56          6           0       -8.650650   -1.189725   -0.175753
     57          6           0      -10.163413   -0.910421   -0.559583
     58          6           0      -11.229443   -1.837852    0.174962
     59          6           0      -11.955646   -1.143087    1.332284
     60          6           0      -11.956805   -1.889163    2.692969
     61          6           0      -13.397551   -0.741420    0.913307
     62          6           0      -13.471402    0.691335    0.432345
     63          6           0      -14.770247    0.966329   -0.385723
     64          6           0      -15.608735    2.112252    0.221222
     65          6           0      -16.116620    1.652181    1.640649
     66          6           0      -16.748682    2.384848   -0.754442
     67          1           0        3.544809    0.078852   -4.272402
     68          1           0        4.398571    5.404401   -0.474383
     69          1           0        5.790062    1.664516    4.488101
     70          1           0        4.884156   -3.780473   -2.072982
     71          1           0        2.708328   -2.243412   -3.128456
     72          1           0        5.234515   -1.889448   -4.806786
     73          1           0        3.855202   -2.973003   -5.091421
     74          1           0        5.243649   -3.438923   -4.192925
     75          1           0        3.352451   -4.766278   -0.584727
     76          1           0        2.787958   -4.770620   -2.200415
     77          1           0        1.760738   -2.240670   -1.117626
     78          1           0        1.568988   -3.537017    0.103081
     79          1           0        2.360002    3.751573   -5.217054
     80          1           0        2.755749    2.013611   -5.409968
     81          1           0        3.902887    3.266693   -5.978868
     82          1           0        4.943863    6.709344   -2.073148
     83          1           0        3.132405    6.611531   -1.668679
     84          1           0        3.642898    7.631878   -2.965795
     85          1           0        4.440656    5.704559    2.027396
     86          1           0        6.028217    4.078701    3.847103
     87          1           0        6.687899    6.577457    2.073767
     88          1           0        6.907881    5.519164    0.695903
     89          1           0        7.341603    4.857913    2.188363
     90          1           0        3.293562    3.187681    4.247004
     91          1           0        3.159323    4.850588    3.721317
     92          1           0        3.512665    3.801572    6.326093
     93          1           0        3.814102    5.467313    5.764082
     94          1           0        5.185797    4.317587    5.864863
     95          1           0        6.547021   -1.994583    5.525282
     96          1           0        5.622399   -0.492101    5.726893
     97          1           0        7.276182   -0.381328    5.223360
     98          1           0        4.562418   -4.290283    1.159202
     99          1           0        9.255763   -5.160683    0.252666
    100          1           0        9.131140   -4.162014   -1.197888
    101          1           0        8.298085   -5.825369   -0.959700
    102          1           0       -2.189813   -3.864749   -1.879885
    103          1           0       -1.723539   -2.368036   -2.744045
    104          1           0       -2.487514   -1.759701    0.068179
    105          1           0       -4.102549   -2.201488   -3.439391
    106          1           0       -3.746470   -0.406546   -3.489073
    107          1           0       -5.234694   -0.939167   -2.929102
    108          1           0       -4.694451    0.764031   -1.054650
    109          1           0       -3.705786    0.317755    0.116348
    110          1           0       -5.051977   -0.604562    1.486101
    111          1           0       -5.843135   -1.502363    0.228998
    112          1           0       -6.779649    0.949132   -0.437094
    113          1           0       -6.461036    1.148046    1.252076
    114          1           0       -8.888040    0.663361    0.726055
    115          1           0       -7.339240   -0.329576    2.997132
    116          1           0       -8.231492   -1.693616    2.355557
    117          1           0       -9.093400   -0.144692    2.651444
    118          1           0       -8.375733   -2.231140   -0.006481
    119          1           0       -8.170113   -1.046322   -1.143035
    120          1           0      -10.153844   -0.996870   -1.646343
    121          1           0      -10.510183    0.086600   -0.287442
    122          1           0      -10.639107   -2.683080    0.527868
    123          1           0      -11.958615   -2.215224   -0.542425
    124          1           0      -11.310349   -0.288508    1.532404
    125          1           0      -12.933247   -2.297096    2.952414
    126          1           0      -11.701399   -1.217626    3.511865
    127          1           0      -11.227372   -2.698962    2.684263
    128          1           0      -14.080345   -0.982068    1.727927
    129          1           0      -13.777537   -1.282712    0.046976
    130          1           0      -12.624088    0.968001   -0.194153
    131          1           0      -13.352986    1.364511    1.280306
    132          1           0      -15.366801    0.067792   -0.543820
    133          1           0      -14.622715    1.328114   -1.404258
    134          1           0      -14.938858    2.949237    0.419831
    135          1           0      -15.542894    0.838115    2.083233
    136          1           0      -17.138100    1.274037    1.597507
    137          1           0      -16.157813    2.423526    2.410272
    138          1           0      -17.645186    2.750299   -0.255211
    139          1           0      -17.072872    1.502441   -1.306423
    140          1           0      -16.357565    3.162248   -1.410790
 ---------------------------------------------------------------------

 SCF Done:  E(RPBE1PBE) =  -3005.33842407     A.U. after   16 cycles

 Excitation energies and oscillator strengths:

 Excited State   1:      Singlet-A      1.8112 eV  684.54 nm  f=0.3448  <S**2>=0.000
     245 -> 248        0.16903
     246 -> 247        0.69354
     246 <- 247       -0.10817
 This state for optimization and/or second-order correction.
 Total Energy, E(TD-HF/TD-DFT) =  -3005.27186396
 Copying the excited state density for this state as the 1-particle RhoCI density.

 Excited State   2:      Singlet-A      2.1748 eV  570.09 nm  f=0.0769  <S**2>=0.000
     245 -> 247        0.64517
     246 -> 248       -0.26819

 Excited State   3:      Singlet-A      2.9070 eV  426.50 nm  f=0.0025  <S**2>=0.000
     241 -> 247        0.45596
     241 -> 249        0.12143
     243 -> 247       -0.45030
     244 -> 247       -0.12793
     246 -> 248        0.11045

 Excited State   4:      Singlet-A      2.9793 eV  416.16 nm  f=0.0004  <S**2>=0.000
     243 -> 247       -0.11885
     244 -> 247        0.67855
     246 -> 248        0.12342

 Excited State   5:      Singlet-A      3.1056 eV  399.22 nm  f=0.0160  <S**2>=0.000
     241 -> 247        0.40105
     242 -> 247       -0.11357
     243 -> 247        0.46377
     246 -> 248        0.30136

 The electronic state is 1-A.
 Alpha  occ. eigenvalues --  -46.94690 -19.26148 -19.25444 -19.20128 -19.19676
 Alpha  occ. eigenvalues --  -19.19456 -19.19301 -14.42382 -14.41777 -14.39485
 Alpha  occ. eigenvalues --  -14.38871 -10.35942 -10.35896 -10.32689 -10.32307
 Alpha  occ. eigenvalues --  -10.29775 -10.29618 -10.29374 -10.29292 -10.28716
 Alpha  occ. eigenvalues --  -10.28711 -10.28129 -10.27918 -10.27275 -10.26836
 Alpha  occ. eigenvalues --  -10.26532 -10.26464 -10.26378 -10.26002 -10.25872
 Alpha  occ. eigenvalues --  -10.25528 -10.25502 -10.25418 -10.25297 -10.25262
 Alpha  occ. eigenvalues --  -10.25103 -10.24612 -10.24571 -10.24568 -10.24527
 Alpha  occ. eigenvalues --  -10.24498 -10.24186 -10.23955 -10.23931 -10.23856
 Alpha  occ. eigenvalues --  -10.23719 -10.23677 -10.23535 -10.23411 -10.23352
 Alpha  occ. eigenvalues --  -10.23287 -10.23137 -10.22991 -10.22820 -10.22708
 Alpha  occ. eigenvalues --  -10.22682 -10.22549 -10.22146 -10.22086 -10.22064
 Alpha  occ. eigenvalues --  -10.22003 -10.21971 -10.21807 -10.21731 -10.21580
 Alpha  occ. eigenvalues --  -10.21306  -3.16446  -1.89226  -1.88847  -1.88642
 Alpha  occ. eigenvalues --   -1.11728  -1.10561  -1.04915  -1.04909  -1.03171
 Alpha  occ. eigenvalues --   -1.01318  -0.98708  -0.98141  -0.97602  -0.96673
 Alpha  occ. eigenvalues --   -0.87277  -0.84457  -0.83941  -0.83620  -0.83164
 Alpha  occ. eigenvalues --   -0.82739  -0.82713  -0.81688  -0.81554  -0.81137
 Alpha  occ. eigenvalues --   -0.79993  -0.79572  -0.78730  -0.78630  -0.77950
 Alpha  occ. eigenvalues --   -0.77027  -0.76317  -0.75537  -0.75015  -0.74680
 Alpha  occ. eigenvalues --   -0.74099  -0.72576  -0.71878  -0.71252  -0.70469
 Alpha  occ. eigenvalues --   -0.70093  -0.69601  -0.69437  -0.69062  -0.68176
 Alpha  occ. eigenvalues --   -0.67931  -0.67266  -0.66475  -0.65276  -0.63170
 Alpha  occ. eigenvalues --   -0.63064  -0.62493  -0.61290  -0.61024  -0.60137
 Alpha  occ. eigenvalues --   -0.59791  -0.59722  -0.59308  -0.59007  -0.58158
 Alpha  occ. eigenvalues --   -0.57482  -0.57432  -0.56992  -0.56280  -0.54545
 Alpha  occ. eigenvalues --   -0.54291  -0.53895  -0.53392  -0.53319  -0.52462
 Alpha  occ. eigenvalues --   -0.51617  -0.51255  -0.51090  -0.50830  -0.49796
 Alpha  occ. eigenvalues --   -0.49656  -0.49473  -0.49178  -0.48352  -0.48161
 Alpha  occ. eigenvalues --   -0.48056  -0.47948  -0.47641  -0.47557  -0.47452
 Alpha  occ. eigenvalues --   -0.47210  -0.47141  -0.47001  -0.46719  -0.46367
 Alpha  occ. eigenvalues --   -0.46314  -0.46211  -0.45651  -0.45512  -0.45166
 Alpha  occ. eigenvalues --   -0.45112  -0.44670  -0.44527  -0.44345  -0.44166
 Alpha  occ. eigenvalues --   -0.43899  -0.43789  -0.43686  -0.43458  -0.43289
 Alpha  occ. eigenvalues --   -0.43192  -0.43074  -0.42648  -0.42348  -0.42233
 Alpha  occ. eigenvalues --   -0.42025  -0.41888  -0.41396  -0.41322  -0.41296
 Alpha  occ. eigenvalues --   -0.41073  -0.40922  -0.40725  -0.40559  -0.40522
 Alpha  occ. eigenvalues --   -0.40407  -0.40324  -0.40128  -0.39880  -0.39601
 Alpha  occ. eigenvalues --   -0.39529  -0.39351  -0.39185  -0.38882  -0.38557
 Alpha  occ. eigenvalues --   -0.38496  -0.38173  -0.37964  -0.37848  -0.37785
 Alpha  occ. eigenvalues --   -0.37512  -0.37385  -0.37304  -0.37150  -0.37017
 Alpha  occ. eigenvalues --   -0.36876  -0.36777  -0.36624  -0.36179  -0.36072
 Alpha  occ. eigenvalues --   -0.35966  -0.35639  -0.35418  -0.35218  -0.34935
 Alpha  occ. eigenvalues --   -0.34681  -0.34359  -0.34130  -0.34122  -0.33728
 Alpha  occ. eigenvalues --   -0.33481  -0.33091  -0.32532  -0.32517  -0.32365
 Alpha  occ. eigenvalues --   -0.32099  -0.32065  -0.31644  -0.31565  -0.31260
 Alpha  occ. eigenvalues --   -0.30898  -0.30856  -0.29474  -0.29350  -0.29119
 Alpha  occ. eigenvalues --   -0.29073  -0.28689  -0.28277  -0.26941  -0.26045
 Alpha  occ. eigenvalues --   -0.25747  -0.25555  -0.25526  -0.25239  -0.21221
 Alpha  occ. eigenvalues --   -0.18889
 Alpha virt. eigenvalues --   -0.11409  -0.05795  -0.04087  -0.03003  -0.02152
 Alpha virt. eigenvalues --    0.00251   0.00658   0.00925   0.01873   0.03043
 Alpha virt. eigenvalues --    0.03899   0.04687   0.04746   0.05149   0.05781

 Mulliken charges:
               1
     1  Mg   0.925792
     2  C    0.014621
     3  C   -0.044251
     4  C   -0.052117
     5  C   -0.103692
     6  N   -0.380803
     7  C    0.039453
     8  C   -0.081333
     9  C   -0.144174
    10  C    0.078544
    11  C   -0.016915
    12  C    0.033371
    13  C   -0.084484
    14  C    0.226663
    15  O   -0.258076
    16  O   -0.372881
    17  N   -0.487682
    18  C    0.160954
    19  C   -0.213436
    20  C   -0.064388
    21  C    0.152750
    22  C    0.077127
    23  C    0.036994
    24  O   -0.236137
    25  C    0.002050
    26  N   -0.367576
    27  C    0.016363
    28  C   -0.131472
    29  C   -0.099467
    30  C    0.059768
    31  C    0.042428
    32  C   -0.006302
    33  C   -0.077683
    34  N   -0.416147
    35  C    0.180996
    36  C   -0.161351
    37  C   -0.083572
    38  C    0.156500
    39  C    0.068076
    40  C    0.150265
    41  O   -0.199642
    42  C   -0.173892
    43  C    0.281113
    44  O   -0.280369
    45  O   -0.363919
    46  C    0.119094
    47  C    0.252403
    48  C   -0.116736
    49  C   -0.197309
    50  C    0.008806
    51  C   -0.030088
    52  C   -0.015191
    53  C   -0.037405
    54  C   -0.173847
    55  C   -0.003872
    56  C   -0.025302
    57  C   -0.092518
    58  C    0.038259
    59  C   -0.234297
    60  C   -0.009876
    61  C    0.013113
    62  C   -0.044680
    63  C   -0.026163
    64  C   -0.243884
    65  C   -0.031906
    66  C    0.000940
    67  H    0.014658
    68  H   -0.011474
    69  H    0.006691
    70  H    0.053331
    71  H    0.065091
    72  H    0.045835
    73  H    0.051209
    74  H    0.035806
    75  H    0.057766
    76  H    0.055718
    77  H    0.089502
    78  H    0.073943
    79  H    0.065014
    80  H    0.027204
    81  H    0.064814
    82  H    0.086332
    83  H    0.070901
    84  H    0.051841
    85  H    0.042756
    86  H    0.027135
    87  H    0.054352
    88  H    0.035209
    89  H    0.036568
    90  H    0.047707
    91  H    0.040355
    92  H    0.051018
    93  H    0.045832
    94  H    0.044638
    95  H    0.068672
    96  H    0.054659
    97  H    0.048370
    98  H    0.075214
    99  H    0.050866
   100  H    0.059916
   101  H    0.082026
   102  H    0.067407
   103  H    0.056544
   104  H    0.031641
   105  H    0.057343
   106  H    0.058881
   107  H    0.038315
   108  H    0.018848
   109  H    0.026973
   110  H    0.034379
   111  H    0.023333
   112  H    0.022420
   113  H    0.021148
   114  H    0.027379
   115  H    0.040311
   116  H    0.036277
   117  H    0.039282
   118  H    0.033814
   119  H    0.018533
   120  H    0.027753
   121  H    0.036214
   122  H    0.014243
   123  H    0.024918
   124  H    0.034417
   125  H    0.031261
   126  H    0.035724
   127  H    0.028159
   128  H    0.027934
   129  H    0.029545
   130  H    0.028303
   131  H    0.029927
   132  H    0.026495
   133  H    0.020907
   134  H    0.039593
   135  H    0.028078
   136  H    0.021680
   137  H    0.030571
   138  H    0.030736
   139  H    0.037956
   140  H    0.041674
 Sum of Mulliken charges =  -0.00000

 Dipole moment (field-independent basis, Debye):
    X=              0.5281    Y=              5.8369    Z=              1.2135  Tot=              5.9850
 Quadrupole moment (field-independent basis, Debye-Ang):
   XX=           -369.5775   YY=           -431.4234   ZZ=           -409.3394
   XY=             29.7524   XZ=             -1.1280   YZ=             40.4477

 Normal termination of Gaussian 16 at Sat Apr 30 15:29:06 2022.
