 Gaussian 16, Revision A.03,
 Gaussian 16:  ES64L-G16RevA.03 25-Dec-2016

 --------------------------------
 #p wB97XD/Def2SVP td=(nstates=5)
 --------------------------------

 ----------------------------------------------------
 step_801_chromophore_14 TDDFT with wB97XD functional
 ----------------------------------------------------
 Symbolic Z-matrix:
 Charge =  0 Multiplicity = 1

                         Standard orientation:
 ---------------------------------------------------------------------
 Center     Atomic      Atomic             Coordinates (Angstroms)
 Number     Number       Type             X           Y           Z
 ---------------------------------------------------------------------
      1         12           0        5.207834    1.187680   -0.192966
      2          6           0        5.249272   -2.380450    0.489381
      3          6           0        3.891623    0.426510   -3.296625
      4          6           0        4.526965    4.320054   -0.433650
      5          6           0        5.661051    1.478265    3.419584
      6          7           0        4.562341   -0.764436   -1.144488
      7          6           0        4.647796   -2.087953   -0.765895
      8          6           0        4.082488   -3.093877   -1.802122
      9          6           0        3.784413   -2.139500   -2.990705
     10          6           0        4.140823   -0.704278   -2.471865
     11          6           0        4.556530   -2.605601   -4.342933
     12          6           0        2.973069   -4.100773   -1.360432
     13          6           0        1.711566   -3.316562   -0.954677
     14          6           0        0.430542   -3.663942   -1.661638
     15          8           0        0.282876   -4.344011   -2.649723
     16          8           0       -0.512152   -2.882851   -1.097507
     17          7           0        4.333099    2.299455   -1.732084
     18          6           0        3.948682    1.851209   -2.937261
     19          6           0        3.642128    2.997504   -3.757114
     20          6           0        3.831613    4.149727   -2.982829
     21          6           0        4.243804    3.665986   -1.652058
     22          6           0        3.158557    3.009299   -5.225091
     23          6           0        3.616412    5.661132   -3.389733
     24          8           0        3.285261    5.920481   -4.541882
     25          6           0        3.911751    6.726971   -2.422333
     26          7           0        4.774152    2.619759    1.406623
     27          6           0        4.843204    3.930741    0.883959
     28          6           0        5.231945    4.955717    2.004093
     29          6           0        5.116688    4.001144    3.253387
     30          6           0        5.297919    2.584992    2.635104
     31          6           0        6.614563    5.540539    1.745805
     32          6           0        3.838556    4.128819    4.175502
     33          6           0        4.119003    4.425711    5.668804
     34          7           0        5.507026   -0.116970    1.607255
     35          6           0        5.749415    0.227252    2.940250
     36          6           0        6.079371   -0.964146    3.694413
     37          6           0        5.861937   -2.049873    2.767266
     38          6           0        5.572704   -1.444423    1.472924
     39          6           0        6.380091   -0.994704    5.125051
     40          6           0        5.870957   -3.485411    2.664023
     41          8           0        6.207428   -4.346836    3.457059
     42          6           0        5.478141   -3.699593    1.128884
     43          6           0        6.514716   -4.603035    0.535760
     44          8           0        6.309933   -5.818179    0.377699
     45          8           0        7.658158   -3.952228    0.154432
     46          6           0        8.590225   -4.856365   -0.554242
     47          6           0       -1.835102   -2.840361   -1.767258
     48          6           0       -2.738695   -1.948705   -0.975521
     49          6           0       -3.734820   -1.212898   -1.469562
     50          6           0       -4.186003   -1.237571   -2.937725
     51          6           0       -4.428951   -0.160913   -0.542894
     52          6           0       -5.534523   -0.496791    0.514985
     53          6           0       -6.709345    0.398453    0.500523
     54          6           0       -8.154272   -0.128276    0.874245
     55          6           0       -8.158249   -0.605917    2.332886
     56          6           0       -8.650650   -1.189725   -0.175753
     57          6           0      -10.163413   -0.910421   -0.559583
     58          6           0      -11.229443   -1.837852    0.174962
     59          6           0      -11.955646   -1.143087    1.332284
     60          6           0      -11.956805   -1.889163    2.692969
     61          6           0      -13.397551   -0.741420    0.913307
     62          6           0      -13.471402    0.691335    0.432345
     63          6           0      -14.770247    0.966329   -0.385723
     64          6           0      -15.608735    2.112252    0.221222
     65          6           0      -16.116620    1.652181    1.640649
     66          6           0      -16.748682    2.384848   -0.754442
     67          1           0        3.544809    0.078852   -4.272402
     68          1           0        4.398571    5.404401   -0.474383
     69          1           0        5.790062    1.664516    4.488101
     70          1           0        4.884156   -3.780473   -2.072982
     71          1           0        2.708328   -2.243412   -3.128456
     72          1           0        5.234515   -1.889448   -4.806786
     73          1           0        3.855202   -2.973003   -5.091421
     74          1           0        5.243649   -3.438923   -4.192925
     75          1           0        3.352451   -4.766278   -0.584727
     76          1           0        2.787958   -4.770620   -2.200415
     77          1           0        1.760738   -2.240670   -1.117626
     78          1           0        1.568988   -3.537017    0.103081
     79          1           0        2.360002    3.751573   -5.217054
     80          1           0        2.755749    2.013611   -5.409968
     81          1           0        3.902887    3.266693   -5.978868
     82          1           0        4.943863    6.709344   -2.073148
     83          1           0        3.132405    6.611531   -1.668679
     84          1           0        3.642898    7.631878   -2.965795
     85          1           0        4.440656    5.704559    2.027396
     86          1           0        6.028217    4.078701    3.847103
     87          1           0        6.687899    6.577457    2.073767
     88          1           0        6.907881    5.519164    0.695903
     89          1           0        7.341603    4.857913    2.188363
     90          1           0        3.293562    3.187681    4.247004
     91          1           0        3.159323    4.850588    3.721317
     92          1           0        3.512665    3.801572    6.326093
     93          1           0        3.814102    5.467313    5.764082
     94          1           0        5.185797    4.317587    5.864863
     95          1           0        6.547021   -1.994583    5.525282
     96          1           0        5.622399   -0.492101    5.726893
     97          1           0        7.276182   -0.381328    5.223360
     98          1           0        4.562418   -4.290283    1.159202
     99          1           0        9.255763   -5.160683    0.252666
    100          1           0        9.131140   -4.162014   -1.197888
    101          1           0        8.298085   -5.825369   -0.959700
    102          1           0       -2.189813   -3.864749   -1.879885
    103          1           0       -1.723539   -2.368036   -2.744045
    104          1           0       -2.487514   -1.759701    0.068179
    105          1           0       -4.102549   -2.201488   -3.439391
    106          1           0       -3.746470   -0.406546   -3.489073
    107          1           0       -5.234694   -0.939167   -2.929102
    108          1           0       -4.694451    0.764031   -1.054650
    109          1           0       -3.705786    0.317755    0.116348
    110          1           0       -5.051977   -0.604562    1.486101
    111          1           0       -5.843135   -1.502363    0.228998
    112          1           0       -6.779649    0.949132   -0.437094
    113          1           0       -6.461036    1.148046    1.252076
    114          1           0       -8.888040    0.663361    0.726055
    115          1           0       -7.339240   -0.329576    2.997132
    116          1           0       -8.231492   -1.693616    2.355557
    117          1           0       -9.093400   -0.144692    2.651444
    118          1           0       -8.375733   -2.231140   -0.006481
    119          1           0       -8.170113   -1.046322   -1.143035
    120          1           0      -10.153844   -0.996870   -1.646343
    121          1           0      -10.510183    0.086600   -0.287442
    122          1           0      -10.639107   -2.683080    0.527868
    123          1           0      -11.958615   -2.215224   -0.542425
    124          1           0      -11.310349   -0.288508    1.532404
    125          1           0      -12.933247   -2.297096    2.952414
    126          1           0      -11.701399   -1.217626    3.511865
    127          1           0      -11.227372   -2.698962    2.684263
    128          1           0      -14.080345   -0.982068    1.727927
    129          1           0      -13.777537   -1.282712    0.046976
    130          1           0      -12.624088    0.968001   -0.194153
    131          1           0      -13.352986    1.364511    1.280306
    132          1           0      -15.366801    0.067792   -0.543820
    133          1           0      -14.622715    1.328114   -1.404258
    134          1           0      -14.938858    2.949237    0.419831
    135          1           0      -15.542894    0.838115    2.083233
    136          1           0      -17.138100    1.274037    1.597507
    137          1           0      -16.157813    2.423526    2.410272
    138          1           0      -17.645186    2.750299   -0.255211
    139          1           0      -17.072872    1.502441   -1.306423
    140          1           0      -16.357565    3.162248   -1.410790
 ---------------------------------------------------------------------

 SCF Done:  E(RwB97XD) =  -3007.84845046     A.U. after   19 cycles

 Excitation energies and oscillator strengths:

 Excited State   1:      Singlet-A      1.6225 eV  764.16 nm  f=0.3538  <S**2>=0.000
     245 -> 248        0.17925
     246 -> 247        0.68376
     245 <- 248        0.11560
 This state for optimization and/or second-order correction.
 Total Energy, E(TD-HF/TD-DFT) =  -3007.78882529
 Copying the excited state density for this state as the 1-particle RhoCI density.

 Excited State   2:      Singlet-A      2.1215 eV  584.41 nm  f=0.0735  <S**2>=0.000
     245 -> 247        0.62793
     246 -> 248       -0.30642

 Excited State   3:      Singlet-A      3.2597 eV  380.36 nm  f=0.0626  <S**2>=0.000
     241 -> 247        0.12368
     243 -> 247        0.44291
     244 -> 247       -0.36326
     246 -> 248        0.34218

 Excited State   4:      Singlet-A      3.3603 eV  368.97 nm  f=0.0608  <S**2>=0.000
     239 -> 247        0.18649
     239 -> 249        0.10311
     240 -> 247       -0.26408
     240 -> 249       -0.13577
     241 -> 247        0.37588
     241 -> 249        0.21141
     243 -> 247       -0.21424
     244 -> 247        0.19969
     245 -> 247        0.10596
     246 -> 248        0.19061

 Excited State   5:      Singlet-A      3.4702 eV  357.28 nm  f=0.2940  <S**2>=0.000
     241 -> 247       -0.21385
     241 -> 249       -0.10813
     244 -> 247        0.38964
     245 -> 247        0.21024
     246 -> 248        0.40850
     246 -> 250        0.17926

 The electronic state is 1-A.
 Alpha  occ. eigenvalues --  -46.97672 -19.30850 -19.29981 -19.24801 -19.24768
 Alpha  occ. eigenvalues --  -19.24115 -19.24017 -14.47357 -14.46918 -14.44272
 Alpha  occ. eigenvalues --  -14.43927 -10.42889 -10.42655 -10.39465 -10.39252
 Alpha  occ. eigenvalues --  -10.36308 -10.36113 -10.35397 -10.35372 -10.35312
 Alpha  occ. eigenvalues --  -10.35197 -10.34071 -10.33985 -10.33867 -10.33501
 Alpha  occ. eigenvalues --  -10.33318 -10.32692 -10.32648 -10.32278 -10.32145
 Alpha  occ. eigenvalues --  -10.32012 -10.31831 -10.31727 -10.31591 -10.31475
 Alpha  occ. eigenvalues --  -10.31291 -10.31122 -10.31009 -10.30982 -10.30886
 Alpha  occ. eigenvalues --  -10.30602 -10.30601 -10.30534 -10.30339 -10.30237
 Alpha  occ. eigenvalues --  -10.30201 -10.30101 -10.29993 -10.29848 -10.29643
 Alpha  occ. eigenvalues --  -10.29625 -10.29523 -10.29267 -10.29148 -10.29017
 Alpha  occ. eigenvalues --  -10.28940 -10.28911 -10.28525 -10.28456 -10.28413
 Alpha  occ. eigenvalues --  -10.28371 -10.28323 -10.28247 -10.28157 -10.28004
 Alpha  occ. eigenvalues --  -10.27734  -3.23346  -1.96864  -1.96484  -1.96276
 Alpha  occ. eigenvalues --   -1.19074  -1.18091  -1.12681  -1.12156  -1.10476
 Alpha  occ. eigenvalues --   -1.08818  -1.06127  -1.05370  -1.05044  -1.04094
 Alpha  occ. eigenvalues --   -0.95087  -0.92119  -0.91606  -0.91273  -0.90796
 Alpha  occ. eigenvalues --   -0.90384  -0.90361  -0.89507  -0.89211  -0.88697
 Alpha  occ. eigenvalues --   -0.87370  -0.87188  -0.86361  -0.86322  -0.85577
 Alpha  occ. eigenvalues --   -0.84587  -0.83963  -0.83243  -0.82701  -0.82311
 Alpha  occ. eigenvalues --   -0.81776  -0.80272  -0.79514  -0.78821  -0.78157
 Alpha  occ. eigenvalues --   -0.77745  -0.77143  -0.77120  -0.76733  -0.75821
 Alpha  occ. eigenvalues --   -0.75535  -0.74873  -0.74007  -0.72850  -0.70774
 Alpha  occ. eigenvalues --   -0.70735  -0.70124  -0.68928  -0.68432  -0.67649
 Alpha  occ. eigenvalues --   -0.67424  -0.67194  -0.66764  -0.66468  -0.65842
 Alpha  occ. eigenvalues --   -0.65005  -0.64924  -0.64628  -0.63870  -0.61992
 Alpha  occ. eigenvalues --   -0.61799  -0.61325  -0.60773  -0.60657  -0.59892
 Alpha  occ. eigenvalues --   -0.59183  -0.58723  -0.58569  -0.58140  -0.57251
 Alpha  occ. eigenvalues --   -0.57147  -0.56877  -0.56688  -0.55798  -0.55635
 Alpha  occ. eigenvalues --   -0.55474  -0.55316  -0.54996  -0.54963  -0.54858
 Alpha  occ. eigenvalues --   -0.54547  -0.54502  -0.54313  -0.54055  -0.53939
 Alpha  occ. eigenvalues --   -0.53708  -0.53508  -0.53105  -0.52972  -0.52478
 Alpha  occ. eigenvalues --   -0.52437  -0.52095  -0.51856  -0.51638  -0.51481
 Alpha  occ. eigenvalues --   -0.51143  -0.51102  -0.50989  -0.50786  -0.50613
 Alpha  occ. eigenvalues --   -0.50479  -0.50418  -0.49885  -0.49610  -0.49412
 Alpha  occ. eigenvalues --   -0.49238  -0.49120  -0.48729  -0.48581  -0.48415
 Alpha  occ. eigenvalues --   -0.48282  -0.48139  -0.47926  -0.47844  -0.47711
 Alpha  occ. eigenvalues --   -0.47583  -0.47472  -0.47298  -0.47111  -0.46876
 Alpha  occ. eigenvalues --   -0.46724  -0.46588  -0.46315  -0.46039  -0.45808
 Alpha  occ. eigenvalues --   -0.45663  -0.45321  -0.45055  -0.45044  -0.44968
 Alpha  occ. eigenvalues --   -0.44684  -0.44621  -0.44375  -0.44231  -0.44027
 Alpha  occ. eigenvalues --   -0.43978  -0.43670  -0.43610  -0.43262  -0.43158
 Alpha  occ. eigenvalues --   -0.43040  -0.42624  -0.42562  -0.42277  -0.41938
 Alpha  occ. eigenvalues --   -0.41634  -0.41429  -0.41171  -0.41012  -0.40737
 Alpha  occ. eigenvalues --   -0.40557  -0.40157  -0.39542  -0.39491  -0.39409
 Alpha  occ. eigenvalues --   -0.39104  -0.39054  -0.38644  -0.38411  -0.38251
 Alpha  occ. eigenvalues --   -0.38110  -0.37822  -0.36297  -0.36265  -0.36169
 Alpha  occ. eigenvalues --   -0.36091  -0.35563  -0.35251  -0.33561  -0.32985
 Alpha  occ. eigenvalues --   -0.32860  -0.32297  -0.32141  -0.31829  -0.26267
 Alpha  occ. eigenvalues --   -0.23043
 Alpha virt. eigenvalues --   -0.07240  -0.00391   0.02123   0.03037   0.04474
 Alpha virt. eigenvalues --    0.07009   0.07395   0.07584   0.08755   0.09895
 Alpha virt. eigenvalues --    0.10577   0.11217   0.11404   0.11663   0.12416

 Mulliken charges:
               1
     1  Mg   0.923463
     2  C    0.010573
     3  C   -0.060761
     4  C   -0.053097
     5  C   -0.125317
     6  N   -0.351491
     7  C    0.005771
     8  C   -0.054557
     9  C   -0.117228
    10  C    0.063221
    11  C   -0.006151
    12  C    0.043309
    13  C   -0.065158
    14  C    0.214770
    15  O   -0.254879
    16  O   -0.371658
    17  N   -0.453335
    18  C    0.146821
    19  C   -0.207719
    20  C   -0.059868
    21  C    0.137643
    22  C    0.091696
    23  C    0.031187
    24  O   -0.232263
    25  C    0.016011
    26  N   -0.343336
    27  C    0.003355
    28  C   -0.101289
    29  C   -0.071189
    30  C    0.048780
    31  C    0.050539
    32  C    0.002665
    33  C   -0.060692
    34  N   -0.379946
    35  C    0.181749
    36  C   -0.154335
    37  C   -0.081108
    38  C    0.143580
    39  C    0.075915
    40  C    0.134284
    41  O   -0.187413
    42  C   -0.131909
    43  C    0.258564
    44  O   -0.275329
    45  O   -0.363844
    46  C    0.133180
    47  C    0.265146
    48  C   -0.126951
    49  C   -0.183507
    50  C    0.022680
    51  C   -0.014404
    52  C    0.000937
    53  C   -0.017633
    54  C   -0.142631
    55  C    0.006660
    56  C   -0.018011
    57  C   -0.063786
    58  C    0.046320
    59  C   -0.193856
    60  C    0.002758
    61  C    0.031000
    62  C   -0.027398
    63  C   -0.010266
    64  C   -0.212246
    65  C   -0.020458
    66  C    0.012138
    67  H    0.008058
    68  H   -0.024343
    69  H    0.002887
    70  H    0.040389
    71  H    0.051542
    72  H    0.040334
    73  H    0.046156
    74  H    0.029054
    75  H    0.049409
    76  H    0.049963
    77  H    0.080544
    78  H    0.067996
    79  H    0.058324
    80  H    0.019180
    81  H    0.059922
    82  H    0.080805
    83  H    0.064164
    84  H    0.049540
    85  H    0.033892
    86  H    0.011401
    87  H    0.049864
    88  H    0.028247
    89  H    0.028720
    90  H    0.039155
    91  H    0.034008
    92  H    0.046165
    93  H    0.040115
    94  H    0.037628
    95  H    0.067942
    96  H    0.051484
    97  H    0.043703
    98  H    0.065952
    99  H    0.046244
   100  H    0.057517
   101  H    0.079451
   102  H    0.063728
   103  H    0.050895
   104  H    0.029554
   105  H    0.053195
   106  H    0.054041
   107  H    0.031225
   108  H    0.010919
   109  H    0.019111
   110  H    0.027968
   111  H    0.009977
   112  H    0.012821
   113  H    0.011747
   114  H    0.015666
   115  H    0.035951
   116  H    0.029542
   117  H    0.031250
   118  H    0.026759
   119  H    0.008834
   120  H    0.021834
   121  H    0.017909
   122  H    0.002963
   123  H    0.017423
   124  H    0.011260
   125  H    0.025220
   126  H    0.030421
   127  H    0.021712
   128  H    0.017871
   129  H    0.017727
   130  H    0.018590
   131  H    0.019983
   132  H    0.015890
   133  H    0.011836
   134  H    0.029693
   135  H    0.017312
   136  H    0.015389
   137  H    0.025760
   138  H    0.025327
   139  H    0.031880
   140  H    0.035707
 Sum of Mulliken charges =  -0.00000

 Dipole moment (field-independent basis, Debye):
    X=              0.7967    Y=              5.4870    Z=              1.7877  Tot=              5.8256
 Quadrupole moment (field-independent basis, Debye-Ang):
   XX=           -366.1181   YY=           -431.6880   ZZ=           -409.2480
   XY=             27.8699   XZ=              1.4098   YZ=             40.4721

 Normal termination of Gaussian 16 at Sat Apr 30 16:02:03 2022.
