 Gaussian 16, Revision A.03,
 Gaussian 16:  ES64L-G16RevA.03 25-Dec-2016

 --------------------
 #p ZINDO=(nstates=5)
 --------------------

 -----------------------------
 step_801_chromophore_14 ZINDO
 -----------------------------
 Symbolic Z-matrix:
 Charge =  0 Multiplicity = 1

                         Standard orientation:
 ---------------------------------------------------------------------
 Center     Atomic      Atomic             Coordinates (Angstroms)
 Number     Number       Type             X           Y           Z
 ---------------------------------------------------------------------
      1         12           0        5.207834    1.187680   -0.192966
      2          6           0        5.249272   -2.380450    0.489381
      3          6           0        3.891623    0.426510   -3.296625
      4          6           0        4.526965    4.320054   -0.433650
      5          6           0        5.661051    1.478265    3.419584
      6          7           0        4.562341   -0.764436   -1.144488
      7          6           0        4.647796   -2.087953   -0.765895
      8          6           0        4.082488   -3.093877   -1.802122
      9          6           0        3.784413   -2.139500   -2.990705
     10          6           0        4.140823   -0.704278   -2.471865
     11          6           0        4.556530   -2.605601   -4.342933
     12          6           0        2.973069   -4.100773   -1.360432
     13          6           0        1.711566   -3.316562   -0.954677
     14          6           0        0.430542   -3.663942   -1.661638
     15          8           0        0.282876   -4.344011   -2.649723
     16          8           0       -0.512152   -2.882851   -1.097507
     17          7           0        4.333099    2.299455   -1.732084
     18          6           0        3.948682    1.851209   -2.937261
     19          6           0        3.642128    2.997504   -3.757114
     20          6           0        3.831613    4.149727   -2.982829
     21          6           0        4.243804    3.665986   -1.652058
     22          6           0        3.158557    3.009299   -5.225091
     23          6           0        3.616412    5.661132   -3.389733
     24          8           0        3.285261    5.920481   -4.541882
     25          6           0        3.911751    6.726971   -2.422333
     26          7           0        4.774152    2.619759    1.406623
     27          6           0        4.843204    3.930741    0.883959
     28          6           0        5.231945    4.955717    2.004093
     29          6           0        5.116688    4.001144    3.253387
     30          6           0        5.297919    2.584992    2.635104
     31          6           0        6.614563    5.540539    1.745805
     32          6           0        3.838556    4.128819    4.175502
     33          6           0        4.119003    4.425711    5.668804
     34          7           0        5.507026   -0.116970    1.607255
     35          6           0        5.749415    0.227252    2.940250
     36          6           0        6.079371   -0.964146    3.694413
     37          6           0        5.861937   -2.049873    2.767266
     38          6           0        5.572704   -1.444423    1.472924
     39          6           0        6.380091   -0.994704    5.125051
     40          6           0        5.870957   -3.485411    2.664023
     41          8           0        6.207428   -4.346836    3.457059
     42          6           0        5.478141   -3.699593    1.128884
     43          6           0        6.514716   -4.603035    0.535760
     44          8           0        6.309933   -5.818179    0.377699
     45          8           0        7.658158   -3.952228    0.154432
     46          6           0        8.590225   -4.856365   -0.554242
     47          6           0       -1.835102   -2.840361   -1.767258
     48          6           0       -2.738695   -1.948705   -0.975521
     49          6           0       -3.734820   -1.212898   -1.469562
     50          6           0       -4.186003   -1.237571   -2.937725
     51          6           0       -4.428951   -0.160913   -0.542894
     52          6           0       -5.534523   -0.496791    0.514985
     53          6           0       -6.709345    0.398453    0.500523
     54          6           0       -8.154272   -0.128276    0.874245
     55          6           0       -8.158249   -0.605917    2.332886
     56          6           0       -8.650650   -1.189725   -0.175753
     57          6           0      -10.163413   -0.910421   -0.559583
     58          6           0      -11.229443   -1.837852    0.174962
     59          6           0      -11.955646   -1.143087    1.332284
     60          6           0      -11.956805   -1.889163    2.692969
     61          6           0      -13.397551   -0.741420    0.913307
     62          6           0      -13.471402    0.691335    0.432345
     63          6           0      -14.770247    0.966329   -0.385723
     64          6           0      -15.608735    2.112252    0.221222
     65          6           0      -16.116620    1.652181    1.640649
     66          6           0      -16.748682    2.384848   -0.754442
     67          1           0        3.544809    0.078852   -4.272402
     68          1           0        4.398571    5.404401   -0.474383
     69          1           0        5.790062    1.664516    4.488101
     70          1           0        4.884156   -3.780473   -2.072982
     71          1           0        2.708328   -2.243412   -3.128456
     72          1           0        5.234515   -1.889448   -4.806786
     73          1           0        3.855202   -2.973003   -5.091421
     74          1           0        5.243649   -3.438923   -4.192925
     75          1           0        3.352451   -4.766278   -0.584727
     76          1           0        2.787958   -4.770620   -2.200415
     77          1           0        1.760738   -2.240670   -1.117626
     78          1           0        1.568988   -3.537017    0.103081
     79          1           0        2.360002    3.751573   -5.217054
     80          1           0        2.755749    2.013611   -5.409968
     81          1           0        3.902887    3.266693   -5.978868
     82          1           0        4.943863    6.709344   -2.073148
     83          1           0        3.132405    6.611531   -1.668679
     84          1           0        3.642898    7.631878   -2.965795
     85          1           0        4.440656    5.704559    2.027396
     86          1           0        6.028217    4.078701    3.847103
     87          1           0        6.687899    6.577457    2.073767
     88          1           0        6.907881    5.519164    0.695903
     89          1           0        7.341603    4.857913    2.188363
     90          1           0        3.293562    3.187681    4.247004
     91          1           0        3.159323    4.850588    3.721317
     92          1           0        3.512665    3.801572    6.326093
     93          1           0        3.814102    5.467313    5.764082
     94          1           0        5.185797    4.317587    5.864863
     95          1           0        6.547021   -1.994583    5.525282
     96          1           0        5.622399   -0.492101    5.726893
     97          1           0        7.276182   -0.381328    5.223360
     98          1           0        4.562418   -4.290283    1.159202
     99          1           0        9.255763   -5.160683    0.252666
    100          1           0        9.131140   -4.162014   -1.197888
    101          1           0        8.298085   -5.825369   -0.959700
    102          1           0       -2.189813   -3.864749   -1.879885
    103          1           0       -1.723539   -2.368036   -2.744045
    104          1           0       -2.487514   -1.759701    0.068179
    105          1           0       -4.102549   -2.201488   -3.439391
    106          1           0       -3.746470   -0.406546   -3.489073
    107          1           0       -5.234694   -0.939167   -2.929102
    108          1           0       -4.694451    0.764031   -1.054650
    109          1           0       -3.705786    0.317755    0.116348
    110          1           0       -5.051977   -0.604562    1.486101
    111          1           0       -5.843135   -1.502363    0.228998
    112          1           0       -6.779649    0.949132   -0.437094
    113          1           0       -6.461036    1.148046    1.252076
    114          1           0       -8.888040    0.663361    0.726055
    115          1           0       -7.339240   -0.329576    2.997132
    116          1           0       -8.231492   -1.693616    2.355557
    117          1           0       -9.093400   -0.144692    2.651444
    118          1           0       -8.375733   -2.231140   -0.006481
    119          1           0       -8.170113   -1.046322   -1.143035
    120          1           0      -10.153844   -0.996870   -1.646343
    121          1           0      -10.510183    0.086600   -0.287442
    122          1           0      -10.639107   -2.683080    0.527868
    123          1           0      -11.958615   -2.215224   -0.542425
    124          1           0      -11.310349   -0.288508    1.532404
    125          1           0      -12.933247   -2.297096    2.952414
    126          1           0      -11.701399   -1.217626    3.511865
    127          1           0      -11.227372   -2.698962    2.684263
    128          1           0      -14.080345   -0.982068    1.727927
    129          1           0      -13.777537   -1.282712    0.046976
    130          1           0      -12.624088    0.968001   -0.194153
    131          1           0      -13.352986    1.364511    1.280306
    132          1           0      -15.366801    0.067792   -0.543820
    133          1           0      -14.622715    1.328114   -1.404258
    134          1           0      -14.938858    2.949237    0.419831
    135          1           0      -15.542894    0.838115    2.083233
    136          1           0      -17.138100    1.274037    1.597507
    137          1           0      -16.157813    2.423526    2.410272
    138          1           0      -17.645186    2.750299   -0.255211
    139          1           0      -17.072872    1.502441   -1.306423
    140          1           0      -16.357565    3.162248   -1.410790
 ---------------------------------------------------------------------

 SCF Done:  E(RZINDO/S) =  -474.072082633     A.U. after   20 cycles

 Excitation energies and oscillator strengths:

 Excited State   1:      Singlet-A      1.2272 eV 1010.29 nm  f=0.5436  <S**2>=0.000
     175 ->178        -0.17875
     176 ->177         0.66560
 This state for optimization and/or second-order correction.
 Total Energy, E(CIS/TDA) =  -474.026983234
 Copying the excited state density for this state as the 1-particle RhoCI density.

 Excited State   2:      Singlet-A      1.8725 eV  662.12 nm  f=0.0153  <S**2>=0.000
     175 ->177         0.52599
     176 ->178         0.44307

 Excited State   3:      Singlet-A      2.5727 eV  481.92 nm  f=0.0494  <S**2>=0.000
     175 ->177         0.12955
     176 ->178        -0.20803
     176 ->180         0.65572

 Excited State   4:      Singlet-A      2.8964 eV  428.06 nm  f=0.1639  <S**2>=0.000
     168 ->177        -0.36354
     168 ->179         0.39560
     168 ->181        -0.11495
     168 ->185         0.16135
     175 ->177        -0.15541
     176 ->178         0.18871
     176 ->180         0.10265

 Excited State   5:      Singlet-A      2.9326 eV  422.79 nm  f=0.6630  <S**2>=0.000
     168 ->177         0.12093
     168 ->179        -0.14641
     171 ->177         0.23204
     175 ->177        -0.32239
     176 ->178         0.40941
     176 ->179         0.23232
     176 ->180         0.17637

 The electronic state is 1-A.
 Alpha  occ. eigenvalues --   -1.83570  -1.80371  -1.78541  -1.74536  -1.72184
 Alpha  occ. eigenvalues --   -1.69800  -1.65599  -1.60603  -1.58919  -1.58799
 Alpha  occ. eigenvalues --   -1.54948  -1.51463  -1.48645  -1.47561  -1.45727
 Alpha  occ. eigenvalues --   -1.45414  -1.43555  -1.40752  -1.38449  -1.36909
 Alpha  occ. eigenvalues --   -1.36323  -1.34054  -1.32088  -1.30336  -1.28971
 Alpha  occ. eigenvalues --   -1.28655  -1.26757  -1.23356  -1.21522  -1.18224
 Alpha  occ. eigenvalues --   -1.16538  -1.16034  -1.14747  -1.13925  -1.13028
 Alpha  occ. eigenvalues --   -1.12729  -1.09977  -1.08299  -1.06278  -1.04219
 Alpha  occ. eigenvalues --   -1.03603  -1.02118  -1.00381  -0.97886  -0.97215
 Alpha  occ. eigenvalues --   -0.96565  -0.94968  -0.93551  -0.93464  -0.91387
 Alpha  occ. eigenvalues --   -0.90578  -0.90209  -0.88590  -0.88474  -0.86112
 Alpha  occ. eigenvalues --   -0.84846  -0.84510  -0.83576  -0.83448  -0.81133
 Alpha  occ. eigenvalues --   -0.80379  -0.78900  -0.77684  -0.77290  -0.76360
 Alpha  occ. eigenvalues --   -0.75900  -0.75158  -0.74312  -0.73200  -0.72819
 Alpha  occ. eigenvalues --   -0.72790  -0.72255  -0.72048  -0.71440  -0.70987
 Alpha  occ. eigenvalues --   -0.70597  -0.70030  -0.69311  -0.68730  -0.67886
 Alpha  occ. eigenvalues --   -0.67409  -0.66976  -0.66341  -0.65996  -0.65790
 Alpha  occ. eigenvalues --   -0.65691  -0.64938  -0.64324  -0.64250  -0.63786
 Alpha  occ. eigenvalues --   -0.63159  -0.62943  -0.62635  -0.62309  -0.61992
 Alpha  occ. eigenvalues --   -0.61202  -0.61052  -0.60649  -0.60394  -0.59998
 Alpha  occ. eigenvalues --   -0.58925  -0.58709  -0.58619  -0.58188  -0.58003
 Alpha  occ. eigenvalues --   -0.57850  -0.57456  -0.57322  -0.56968  -0.56811
 Alpha  occ. eigenvalues --   -0.56462  -0.56288  -0.55894  -0.55635  -0.54576
 Alpha  occ. eigenvalues --   -0.53923  -0.53890  -0.53581  -0.53530  -0.53139
 Alpha  occ. eigenvalues --   -0.52890  -0.52597  -0.52403  -0.52271  -0.51882
 Alpha  occ. eigenvalues --   -0.51687  -0.51246  -0.51065  -0.50935  -0.50096
 Alpha  occ. eigenvalues --   -0.49936  -0.49801  -0.49611  -0.49300  -0.49152
 Alpha  occ. eigenvalues --   -0.48787  -0.48641  -0.47944  -0.47898  -0.47786
 Alpha  occ. eigenvalues --   -0.47592  -0.47447  -0.47146  -0.46935  -0.46756
 Alpha  occ. eigenvalues --   -0.46338  -0.46273  -0.45904  -0.45574  -0.45488
 Alpha  occ. eigenvalues --   -0.45142  -0.44689  -0.44599  -0.44563  -0.44193
 Alpha  occ. eigenvalues --   -0.44040  -0.43609  -0.43080  -0.42598  -0.42151
 Alpha  occ. eigenvalues --   -0.41988  -0.41818  -0.41226  -0.39551  -0.38926
 Alpha  occ. eigenvalues --   -0.38503  -0.37418  -0.35830  -0.35392  -0.34893
 Alpha  occ. eigenvalues --   -0.33691  -0.32779  -0.32719  -0.32371  -0.27167
 Alpha  occ. eigenvalues --   -0.21970
 Alpha virt. eigenvalues --   -0.08753  -0.02760  -0.01187  -0.00726   0.01199
 Alpha virt. eigenvalues --    0.02041   0.02332   0.02612   0.04402   0.04779
 Alpha virt. eigenvalues --    0.05664   0.06195   0.07144   0.07668   0.07700

 Mulliken charges:
               1
     1  Mg   0.450687
     2  C   -0.065425
     3  C   -0.081629
     4  C   -0.060424
     5  C   -0.058191
     6  N   -0.301586
     7  C    0.159375
     8  C    0.002516
     9  C    0.001074
    10  C    0.094023
    11  C   -0.059018
    12  C   -0.022106
    13  C    0.005485
    14  C    0.471479
    15  O   -0.518666
    16  O   -0.278527
    17  N   -0.301371
    18  C    0.094870
    19  C    0.008906
    20  C   -0.059372
    21  C    0.077961
    22  C   -0.044972
    23  C    0.328022
    24  O   -0.521938
    25  C   -0.028332
    26  N   -0.264303
    27  C    0.075217
    28  C    0.006646
    29  C   -0.001327
    30  C    0.152488
    31  C   -0.045505
    32  C   -0.028113
    33  C   -0.058822
    34  N   -0.353445
    35  C    0.126290
    36  C    0.061092
    37  C   -0.066655
    38  C    0.144660
    39  C   -0.029064
    40  C    0.332219
    41  O   -0.498695
    42  C    0.057298
    43  C    0.484309
    44  O   -0.529728
    45  O   -0.260188
    46  C    0.068319
    47  C    0.108262
    48  C   -0.075224
    49  C   -0.008665
    50  C   -0.044894
    51  C   -0.039093
    52  C   -0.015846
    53  C   -0.027799
    54  C   -0.011322
    55  C   -0.058473
    56  C   -0.041887
    57  C   -0.048563
    58  C   -0.037067
    59  C   -0.012730
    60  C   -0.059907
    61  C   -0.029950
    62  C   -0.032811
    63  C   -0.038462
    64  C   -0.008674
    65  C   -0.066389
    66  C   -0.051637
    67  H    0.034037
    68  H    0.017271
    69  H    0.031668
    70  H    0.028047
    71  H    0.037968
    72  H    0.025664
    73  H    0.023634
    74  H    0.017097
    75  H    0.031486
    76  H    0.036124
    77  H    0.054850
    78  H    0.039112
    79  H    0.039282
    80  H    0.015183
    81  H    0.041113
    82  H    0.050403
    83  H    0.041517
    84  H    0.033465
    85  H    0.031719
    86  H    0.016749
    87  H    0.024466
    88  H    0.020524
    89  H    0.022158
    90  H    0.021245
    91  H    0.026616
    92  H    0.026344
    93  H    0.019254
    94  H    0.024591
    95  H    0.039493
    96  H    0.033194
    97  H    0.031743
    98  H    0.053659
    99  H    0.030970
   100  H    0.033819
   101  H    0.069911
   102  H    0.057239
   103  H    0.047806
   104  H    0.033553
   105  H    0.032786
   106  H    0.034427
   107  H    0.015643
   108  H    0.019647
   109  H    0.008171
   110  H    0.023745
   111  H    0.010277
   112  H    0.014929
   113  H    0.004484
   114  H    0.024980
   115  H    0.026759
   116  H    0.019376
   117  H    0.017370
   118  H    0.030966
   119  H    0.006124
   120  H    0.016922
   121  H    0.025663
   122  H    0.015200
   123  H    0.019214
   124  H    0.021231
   125  H    0.018147
   126  H    0.015615
   127  H    0.016941
   128  H    0.022444
   129  H    0.019407
   130  H    0.016233
   131  H    0.017300
   132  H    0.022447
   133  H    0.009953
   134  H    0.027232
   135  H    0.017528
   136  H    0.012305
   137  H    0.013917
   138  H    0.013458
   139  H    0.024838
   140  H    0.016942
 Sum of Mulliken charges =  -0.00000

 Dipole moment (field-independent basis, Debye):
    X=              2.2120    Y=              6.3740    Z=              5.4446  Tot=              8.6698
 N-N= 4.288492696590D+03 E-N= 0.000000000000D+00  KE=-9.250589686109D+03
 Leave Link  601 at Sat Apr 30 16:22:40 2022, MaxMem=  6710886400 cpu:               0.7 elap:               0.0
 (Enter /sw/apps/gaussian-16.0/g16/l9999.exe)
 1\1\GINC-BP1-COMPUTE161\SP\RZINDO CIS\STO-3G\C55H74Mg1N4O6\OF15641\30-
 Apr-2022\0\\#p ZINDO=(nstates=5)\\step_801_chromophore_14 ZINDO\\0,1\M
 g,0,46.677,44.597,43.362\C,0,43.057,44.326,43.217\C,0,46.815,41.304,42
 .322\C,0,49.8,45.126,42.814\C,0,46.004,48.185,43.479\N,0,45.075,43.119
 ,42.744\C,0,43.696,43.145,42.748\C,0,43.024,41.839,42.25\C,0,44.267,40
 .92,42.099\C,0,45.498,41.823,42.453\C,0,44.12,39.562,42.98\C,0,42.003,
 41.909,41.07\C,0,42.728,42.399,39.803\C,0,42.648,41.522,38.584\O,0,42.

 Normal termination of Gaussian 16 at Sat Apr 30 16:22:40 2022.
