 Gaussian 16, Revision A.03,
 Gaussian 16:  ES64L-G16RevA.03 25-Dec-2016

 ------------------------------
 #p blyp/Def2SVP td=(nstates=5)
 ------------------------------

 --------------------------------------------------
 step_951_chromophore_16 TDDFT with blyp functional
 --------------------------------------------------
 Symbolic Z-matrix:
 Charge =  0 Multiplicity = 1

                         Standard orientation:
 ---------------------------------------------------------------------
 Center     Atomic      Atomic             Coordinates (Angstroms)
 Number     Number       Type             X           Y           Z
 ---------------------------------------------------------------------
      1         12           0        5.966795    0.478654    0.148653
      2          6           0        3.588754   -2.011586   -0.140273
      3          6           0        3.637474    2.647320   -1.336300
      4          6           0        8.307701    2.914859    0.048192
      5          6           0        8.249222   -1.843883    1.268210
      6          7           0        3.847271    0.310278   -0.657674
      7          6           0        3.107757   -0.731622   -0.491196
      8          6           0        1.629235   -0.540301   -0.940342
      9          6           0        1.667910    0.945606   -1.479449
     10          6           0        3.154620    1.342899   -1.220761
     11          6           0        1.065447    1.259150   -2.895641
     12          6           0        0.648123   -0.767318    0.310034
     13          6           0       -0.705773   -0.139165    0.271098
     14          6           0       -1.957948   -1.047176    0.584363
     15          8           0       -2.818752   -0.936550    1.455687
     16          8           0       -2.023067   -2.099497   -0.316519
     17          7           0        5.955839    2.479836   -0.414944
     18          6           0        4.918048    3.183028   -0.975372
     19          6           0        5.328189    4.537046   -1.163188
     20          6           0        6.698120    4.616872   -0.767419
     21          6           0        7.059417    3.288201   -0.298119
     22          6           0        4.484750    5.643446   -1.785458
     23          6           0        7.635668    5.837776   -0.786567
     24          8           0        8.836751    5.833402   -0.359707
     25          6           0        7.099987    7.101190   -1.305754
     26          7           0        7.921125    0.539164    0.634738
     27          6           0        8.698543    1.620488    0.527065
     28          6           0       10.080097    1.452472    1.096395
     29          6           0        9.988319    0.011888    1.845516
     30          6           0        8.624190   -0.498167    1.269994
     31          6           0       11.237718    1.522983   -0.000816
     32          6           0       10.042683    0.182910    3.378823
     33          6           0       11.034225   -0.686944    4.106591
     34          7           0        6.019636   -1.512157    0.398939
     35          6           0        6.979271   -2.374966    0.831185
     36          6           0        6.496855   -3.745028    0.948972
     37          6           0        5.129311   -3.604994    0.501112
     38          6           0        4.927717   -2.215478    0.197663
     39          6           0        7.181571   -4.861867    1.419721
     40          6           0        3.906266   -4.297520    0.332307
     41          8           0        3.632313   -5.458407    0.528898
     42          6           0        2.893572   -3.346489   -0.122538
     43          6           0        2.314209   -3.841485   -1.377531
     44          8           0        2.851345   -3.832801   -2.475494
     45          8           0        0.995062   -4.203832   -1.232699
     46          6           0        0.178417   -4.315526   -2.452452
     47          6           0       -3.038999   -3.157971   -0.146887
     48          6           0       -4.393430   -2.794869   -0.704282
     49          6           0       -5.498240   -3.511938   -0.887233
     50          6           0       -5.736168   -4.905516   -0.407350
     51          6           0       -6.715071   -2.826617   -1.506199
     52          6           0       -7.708658   -2.031587   -0.620117
     53          6           0       -7.784471   -0.488533   -0.867833
     54          6           0       -9.241513   -0.139015   -1.474479
     55          6           0       -9.017173    0.769426   -2.750747
     56          6           0      -10.056570    0.499205   -0.376031
     57          6           0      -11.564847    0.272398   -0.613664
     58          6           0      -12.235000    1.499599   -1.096909
     59          6           0      -13.774390    1.561849   -0.712178
     60          6           0      -14.665355    1.822180   -1.900961
     61          6           0      -14.001931    2.607757    0.358204
     62          6           0      -14.923707    1.911440    1.420311
     63          6           0      -14.041302    1.347170    2.500124
     64          6           0      -13.507639    2.397279    3.596022
     65          6           0      -13.786061    1.908748    5.038605
     66          6           0      -12.020739    2.734265    3.311484
     67          1           0        2.817530    3.268945   -1.701753
     68          1           0        9.046136    3.714342    0.137829
     69          1           0        9.102601   -2.485236    1.499518
     70          1           0        1.360828   -1.126306   -1.819217
     71          1           0        1.063651    1.501509   -0.763713
     72          1           0        1.720353    1.722388   -3.633474
     73          1           0        0.314663    2.029220   -2.717774
     74          1           0        0.495533    0.422566   -3.298816
     75          1           0        1.117300   -0.406328    1.225288
     76          1           0        0.449058   -1.834203    0.414823
     77          1           0       -0.894323    0.366297   -0.676649
     78          1           0       -0.865201    0.588426    1.065565
     79          1           0        4.638346    6.472304   -1.094483
     80          1           0        3.416330    5.434564   -1.854103
     81          1           0        4.815092    5.946561   -2.779191
     82          1           0        6.453571    7.458843   -0.503689
     83          1           0        6.534807    7.074935   -2.236871
     84          1           0        7.933065    7.804111   -1.295215
     85          1           0       10.201019    2.302012    1.767731
     86          1           0       10.800446   -0.632168    1.509736
     87          1           0       10.933074    2.189039   -0.808303
     88          1           0       11.462529    0.546215   -0.427472
     89          1           0       12.160753    1.918448    0.424114
     90          1           0        9.055870   -0.094820    3.749493
     91          1           0       10.176233    1.228408    3.656810
     92          1           0       10.490947   -1.276804    4.844218
     93          1           0       11.881447   -0.217805    4.606311
     94          1           0       11.449354   -1.386219    3.380040
     95          1           0        7.975393   -5.162711    0.736577
     96          1           0        6.443556   -5.651615    1.559455
     97          1           0        7.674084   -4.508122    2.326202
     98          1           0        2.063360   -3.309073    0.582505
     99          1           0        0.609497   -5.131721   -3.031707
    100          1           0        0.152949   -3.393663   -3.034852
    101          1           0       -0.832729   -4.594462   -2.157594
    102          1           0       -3.106000   -3.378893    0.918866
    103          1           0       -2.757465   -4.107408   -0.601048
    104          1           0       -4.535259   -1.789670   -1.103400
    105          1           0       -6.527233   -4.986591    0.338600
    106          1           0       -4.838252   -5.151197    0.158737
    107          1           0       -5.805135   -5.637021   -1.211099
    108          1           0       -7.149951   -3.695182   -2.001157
    109          1           0       -6.218801   -2.246402   -2.284077
    110          1           0       -7.374201   -2.109202    0.413628
    111          1           0       -8.704927   -2.466631   -0.696848
    112          1           0       -7.034586   -0.262359   -1.626445
    113          1           0       -7.543073    0.044626    0.052368
    114          1           0       -9.690903   -1.032468   -1.907348
    115          1           0       -8.015306    1.056406   -3.071800
    116          1           0       -9.635330    1.667220   -2.731697
    117          1           0       -9.475899    0.160037   -3.528500
    118          1           0       -9.780034    1.550215   -0.286036
    119          1           0       -9.835857    0.006343    0.570834
    120          1           0      -11.940392   -0.175660    0.306106
    121          1           0      -11.764664   -0.420682   -1.431413
    122          1           0      -12.028186    1.473407   -2.167135
    123          1           0      -11.718609    2.413565   -0.805391
    124          1           0      -13.990216    0.565632   -0.326764
    125          1           0      -14.161564    2.085340   -2.830975
    126          1           0      -15.389198    2.593710   -1.638164
    127          1           0      -15.268174    0.935920   -2.100216
    128          1           0      -14.469761    3.497299   -0.061846
    129          1           0      -13.070825    2.853075    0.870108
    130          1           0      -15.601456    1.101603    1.151847
    131          1           0      -15.536447    2.677589    1.894856
    132          1           0      -13.194448    0.840247    2.035996
    133          1           0      -14.705798    0.676742    3.044995
    134          1           0      -14.135193    3.280899    3.477992
    135          1           0      -13.365378    2.625696    5.743415
    136          1           0      -13.173141    1.012558    5.132763
    137          1           0      -14.858421    1.788808    5.190040
    138          1           0      -11.376770    2.486572    4.155532
    139          1           0      -12.091895    3.820396    3.263891
    140          1           0      -11.656626    2.302003    2.379218
 ---------------------------------------------------------------------

 SCF Done:  E(RB-LYP) =  -3007.35440189     A.U. after   22 cycles

 Excitation energies and oscillator strengths:

 Excited State   1:      Singlet-A      1.8240 eV  679.74 nm  f=0.3226  <S**2>=0.000
     245 -> 248       -0.18643
     246 -> 247        0.68659
     246 <- 247       -0.15245
 This state for optimization and/or second-order correction.
 Total Energy, E(TD-HF/TD-DFT) =  -3007.28737112
 Copying the excited state density for this state as the 1-particle RhoCI density.

 Excited State   2:      Singlet-A      1.8659 eV  664.46 nm  f=0.0049  <S**2>=0.000
     244 -> 247        0.67535
     245 -> 247       -0.19520

 Excited State   3:      Singlet-A      2.0168 eV  614.75 nm  f=0.0004  <S**2>=0.000
     243 -> 247        0.70473

 Excited State   4:      Singlet-A      2.0704 eV  598.84 nm  f=0.0583  <S**2>=0.000
     244 -> 247        0.18613
     245 -> 247        0.60721
     246 -> 248        0.27335

 Excited State   5:      Singlet-A      2.3513 eV  527.30 nm  f=0.0000  <S**2>=0.000
     242 -> 247        0.70707

 The electronic state is 1-A.
 Alpha  occ. eigenvalues --  -46.26231 -18.82025 -18.81496 -18.77451 -18.76212
 Alpha  occ. eigenvalues --  -18.75707 -18.74641 -14.03459 -14.03300 -14.01223
 Alpha  occ. eigenvalues --  -14.01012 -10.04926 -10.03643 -10.00219  -9.98581
 Alpha  occ. eigenvalues --   -9.98178  -9.97776  -9.96826  -9.96676  -9.96475
 Alpha  occ. eigenvalues --   -9.96414  -9.96012  -9.95800  -9.95054  -9.94664
 Alpha  occ. eigenvalues --   -9.94632  -9.94571  -9.94416  -9.94249  -9.93992
 Alpha  occ. eigenvalues --   -9.93979  -9.93894  -9.93534  -9.93509  -9.93367
 Alpha  occ. eigenvalues --   -9.93325  -9.93245  -9.93199  -9.93197  -9.92655
 Alpha  occ. eigenvalues --   -9.92420  -9.92385  -9.92028  -9.92012  -9.92008
 Alpha  occ. eigenvalues --   -9.91991  -9.91956  -9.91769  -9.91711  -9.91512
 Alpha  occ. eigenvalues --   -9.91440  -9.91403  -9.91368  -9.91123  -9.91066
 Alpha  occ. eigenvalues --   -9.90910  -9.90795  -9.90792  -9.90698  -9.90654
 Alpha  occ. eigenvalues --   -9.90622  -9.90613  -9.90470  -9.90436  -9.90260
 Alpha  occ. eigenvalues --   -9.90159  -2.91172  -1.71592  -1.71059  -1.70881
 Alpha  occ. eigenvalues --   -0.97339  -0.97275  -0.91733  -0.89382  -0.89237
 Alpha  occ. eigenvalues --   -0.89020  -0.87981  -0.87014  -0.85939  -0.84995
 Alpha  occ. eigenvalues --   -0.76698  -0.73745  -0.73523  -0.73085  -0.72454
 Alpha  occ. eigenvalues --   -0.72024  -0.71814  -0.71599  -0.70833  -0.70440
 Alpha  occ. eigenvalues --   -0.70395  -0.69366  -0.68203  -0.67880  -0.67404
 Alpha  occ. eigenvalues --   -0.66461  -0.66224  -0.65959  -0.65242  -0.64585
 Alpha  occ. eigenvalues --   -0.64157  -0.63082  -0.62700  -0.62026  -0.61275
 Alpha  occ. eigenvalues --   -0.60653  -0.60178  -0.60148  -0.59718  -0.58720
 Alpha  occ. eigenvalues --   -0.58283  -0.57837  -0.57232  -0.56196  -0.54640
 Alpha  occ. eigenvalues --   -0.54018  -0.53304  -0.52602  -0.52022  -0.51795
 Alpha  occ. eigenvalues --   -0.51765  -0.51182  -0.50711  -0.50180  -0.50048
 Alpha  occ. eigenvalues --   -0.49607  -0.49388  -0.48602  -0.48033  -0.46729
 Alpha  occ. eigenvalues --   -0.46368  -0.46275  -0.45815  -0.45565  -0.45130
 Alpha  occ. eigenvalues --   -0.44491  -0.44006  -0.43037  -0.42516  -0.42387
 Alpha  occ. eigenvalues --   -0.42197  -0.41643  -0.41533  -0.41401  -0.41323
 Alpha  occ. eigenvalues --   -0.41146  -0.40585  -0.40451  -0.40204  -0.40020
 Alpha  occ. eigenvalues --   -0.39901  -0.39632  -0.39583  -0.39219  -0.39124
 Alpha  occ. eigenvalues --   -0.39061  -0.38922  -0.38758  -0.38525  -0.38239
 Alpha  occ. eigenvalues --   -0.38071  -0.37919  -0.37702  -0.37445  -0.37251
 Alpha  occ. eigenvalues --   -0.37213  -0.37016  -0.36817  -0.36646  -0.36558
 Alpha  occ. eigenvalues --   -0.36373  -0.36299  -0.36208  -0.35890  -0.35680
 Alpha  occ. eigenvalues --   -0.35560  -0.35427  -0.35207  -0.35119  -0.35001
 Alpha  occ. eigenvalues --   -0.34860  -0.34775  -0.34561  -0.34445  -0.34216
 Alpha  occ. eigenvalues --   -0.34048  -0.33855  -0.33654  -0.33621  -0.33313
 Alpha  occ. eigenvalues --   -0.33251  -0.33181  -0.32996  -0.32855  -0.32795
 Alpha  occ. eigenvalues --   -0.32557  -0.32255  -0.32021  -0.31851  -0.31530
 Alpha  occ. eigenvalues --   -0.31372  -0.31319  -0.31070  -0.30488  -0.30373
 Alpha  occ. eigenvalues --   -0.30233  -0.30127  -0.29979  -0.29706  -0.29574
 Alpha  occ. eigenvalues --   -0.29479  -0.29310  -0.29296  -0.29136  -0.28956
 Alpha  occ. eigenvalues --   -0.28714  -0.28511  -0.28258  -0.28034  -0.27916
 Alpha  occ. eigenvalues --   -0.27681  -0.27339  -0.27204  -0.26679  -0.26625
 Alpha  occ. eigenvalues --   -0.26088  -0.25776  -0.25695  -0.25198  -0.24956
 Alpha  occ. eigenvalues --   -0.24648  -0.24379  -0.24057  -0.23928  -0.23645
 Alpha  occ. eigenvalues --   -0.22607  -0.22373  -0.22146  -0.21291  -0.20725
 Alpha  occ. eigenvalues --   -0.20596  -0.20202  -0.18880  -0.18326  -0.17581
 Alpha  occ. eigenvalues --   -0.15828
 Alpha virt. eigenvalues --   -0.11561  -0.07170  -0.06168  -0.04846  -0.03475
 Alpha virt. eigenvalues --   -0.02872  -0.02149  -0.01411  -0.01294  -0.00280
 Alpha virt. eigenvalues --    0.01114   0.01335   0.02050   0.02792   0.02907

 Mulliken charges:
               1
     1  Mg   0.721177
     2  C   -0.039175
     3  C   -0.068663
     4  C   -0.090888
     5  C   -0.093499
     6  N   -0.132639
     7  C   -0.107895
     8  C   -0.018838
     9  C   -0.007505
    10  C   -0.034850
    11  C    0.132384
    12  C    0.104626
    13  C    0.132089
    14  C    0.058428
    15  O   -0.180473
    16  O   -0.291408
    17  N   -0.289573
    18  C    0.176897
    19  C   -0.148368
    20  C    0.019900
    21  C    0.135104
    22  C    0.172486
    23  C   -0.056392
    24  O   -0.207792
    25  C    0.152965
    26  N   -0.260059
    27  C    0.054108
    28  C   -0.014838
    29  C    0.012515
    30  C    0.040634
    31  C    0.111111
    32  C    0.125488
    33  C    0.066275
    34  N   -0.245250
    35  C    0.113568
    36  C   -0.163871
    37  C    0.079598
    38  C    0.108730
    39  C    0.182890
    40  C   -0.136378
    41  O   -0.122672
    42  C    0.192550
    43  C    0.090729
    44  O   -0.184062
    45  O   -0.282527
    46  C    0.229003
    47  C    0.327330
    48  C   -0.065759
    49  C   -0.237116
    50  C    0.152644
    51  C    0.136498
    52  C    0.109159
    53  C    0.097906
    54  C   -0.102003
    55  C    0.085081
    56  C    0.132167
    57  C    0.056311
    58  C    0.086768
    59  C   -0.068287
    60  C    0.139602
    61  C    0.131663
    62  C    0.071236
    63  C    0.068615
    64  C   -0.110704
    65  C    0.100847
    66  C    0.115392
    67  H   -0.072279
    68  H   -0.034206
    69  H   -0.052520
    70  H   -0.006388
    71  H   -0.015135
    72  H    0.004380
    73  H   -0.019481
    74  H   -0.003941
    75  H   -0.016858
    76  H    0.014631
    77  H    0.001973
    78  H   -0.007057
    79  H   -0.006069
    80  H   -0.016671
    81  H    0.016865
    82  H    0.010645
    83  H    0.011843
    84  H   -0.013283
    85  H   -0.011928
    86  H   -0.024706
    87  H   -0.000622
    88  H   -0.007241
    89  H   -0.004156
    90  H   -0.027468
    91  H   -0.019560
    92  H   -0.009856
    93  H   -0.001742
    94  H   -0.022716
    95  H    0.003919
    96  H    0.016380
    97  H   -0.004478
    98  H   -0.007227
    99  H    0.015817
   100  H    0.015050
   101  H    0.009187
   102  H    0.004160
   103  H    0.011041
   104  H   -0.042556
   105  H    0.004959
   106  H   -0.041509
   107  H    0.004212
   108  H   -0.048145
   109  H   -0.030274
   110  H   -0.028536
   111  H   -0.022396
   112  H   -0.039449
   113  H   -0.017942
   114  H   -0.028098
   115  H   -0.005270
   116  H   -0.021073
   117  H   -0.027047
   118  H   -0.022659
   119  H   -0.040215
   120  H   -0.023224
   121  H   -0.032403
   122  H   -0.048013
   123  H   -0.040175
   124  H   -0.030454
   125  H   -0.014506
   126  H   -0.031212
   127  H   -0.028552
   128  H   -0.035570
   129  H   -0.037806
   130  H   -0.026851
   131  H   -0.050740
   132  H   -0.034181
   133  H   -0.051714
   134  H   -0.038660
   135  H   -0.019999
   136  H   -0.012961
   137  H   -0.002826
   138  H   -0.023280
   139  H   -0.015449
   140  H    0.011285
 Sum of Mulliken charges =  -0.00000

 Dipole moment (field-independent basis, Debye):
    X=             -1.7398    Y=              2.6563    Z=             -0.0918  Tot=              3.1767
 Quadrupole moment (field-independent basis, Debye-Ang):
   XX=           -392.9756   YY=           -422.2080   ZZ=           -404.5545
   XY=              0.8751   XZ=             23.0198   YZ=             -4.1666

 Normal termination of Gaussian 16 at Thu May  5 15:39:52 2022.
