 Gaussian 16, Revision A.03,
 Gaussian 16:  ES64L-G16RevA.03 25-Dec-2016

 -----------------------------------
 #p cam-b3lyp/Def2SVP td=(nstates=5)
 -----------------------------------

 -------------------------------------------------------
 step_951_chromophore_16 TDDFT with cam-b3lyp functional
 -------------------------------------------------------
 Symbolic Z-matrix:
 Charge =  0 Multiplicity = 1

                         Standard orientation:
 ---------------------------------------------------------------------
 Center     Atomic      Atomic             Coordinates (Angstroms)
 Number     Number       Type             X           Y           Z
 ---------------------------------------------------------------------
      1         12           0        5.966795    0.478654    0.148653
      2          6           0        3.588754   -2.011586   -0.140273
      3          6           0        3.637474    2.647320   -1.336300
      4          6           0        8.307701    2.914859    0.048192
      5          6           0        8.249222   -1.843883    1.268210
      6          7           0        3.847271    0.310278   -0.657674
      7          6           0        3.107757   -0.731622   -0.491196
      8          6           0        1.629235   -0.540301   -0.940342
      9          6           0        1.667910    0.945606   -1.479449
     10          6           0        3.154620    1.342899   -1.220761
     11          6           0        1.065447    1.259150   -2.895641
     12          6           0        0.648123   -0.767318    0.310034
     13          6           0       -0.705773   -0.139165    0.271098
     14          6           0       -1.957948   -1.047176    0.584363
     15          8           0       -2.818752   -0.936550    1.455687
     16          8           0       -2.023067   -2.099497   -0.316519
     17          7           0        5.955839    2.479836   -0.414944
     18          6           0        4.918048    3.183028   -0.975372
     19          6           0        5.328189    4.537046   -1.163188
     20          6           0        6.698120    4.616872   -0.767419
     21          6           0        7.059417    3.288201   -0.298119
     22          6           0        4.484750    5.643446   -1.785458
     23          6           0        7.635668    5.837776   -0.786567
     24          8           0        8.836751    5.833402   -0.359707
     25          6           0        7.099987    7.101190   -1.305754
     26          7           0        7.921125    0.539164    0.634738
     27          6           0        8.698543    1.620488    0.527065
     28          6           0       10.080097    1.452472    1.096395
     29          6           0        9.988319    0.011888    1.845516
     30          6           0        8.624190   -0.498167    1.269994
     31          6           0       11.237718    1.522983   -0.000816
     32          6           0       10.042683    0.182910    3.378823
     33          6           0       11.034225   -0.686944    4.106591
     34          7           0        6.019636   -1.512157    0.398939
     35          6           0        6.979271   -2.374966    0.831185
     36          6           0        6.496855   -3.745028    0.948972
     37          6           0        5.129311   -3.604994    0.501112
     38          6           0        4.927717   -2.215478    0.197663
     39          6           0        7.181571   -4.861867    1.419721
     40          6           0        3.906266   -4.297520    0.332307
     41          8           0        3.632313   -5.458407    0.528898
     42          6           0        2.893572   -3.346489   -0.122538
     43          6           0        2.314209   -3.841485   -1.377531
     44          8           0        2.851345   -3.832801   -2.475494
     45          8           0        0.995062   -4.203832   -1.232699
     46          6           0        0.178417   -4.315526   -2.452452
     47          6           0       -3.038999   -3.157971   -0.146887
     48          6           0       -4.393430   -2.794869   -0.704282
     49          6           0       -5.498240   -3.511938   -0.887233
     50          6           0       -5.736168   -4.905516   -0.407350
     51          6           0       -6.715071   -2.826617   -1.506199
     52          6           0       -7.708658   -2.031587   -0.620117
     53          6           0       -7.784471   -0.488533   -0.867833
     54          6           0       -9.241513   -0.139015   -1.474479
     55          6           0       -9.017173    0.769426   -2.750747
     56          6           0      -10.056570    0.499205   -0.376031
     57          6           0      -11.564847    0.272398   -0.613664
     58          6           0      -12.235000    1.499599   -1.096909
     59          6           0      -13.774390    1.561849   -0.712178
     60          6           0      -14.665355    1.822180   -1.900961
     61          6           0      -14.001931    2.607757    0.358204
     62          6           0      -14.923707    1.911440    1.420311
     63          6           0      -14.041302    1.347170    2.500124
     64          6           0      -13.507639    2.397279    3.596022
     65          6           0      -13.786061    1.908748    5.038605
     66          6           0      -12.020739    2.734265    3.311484
     67          1           0        2.817530    3.268945   -1.701753
     68          1           0        9.046136    3.714342    0.137829
     69          1           0        9.102601   -2.485236    1.499518
     70          1           0        1.360828   -1.126306   -1.819217
     71          1           0        1.063651    1.501509   -0.763713
     72          1           0        1.720353    1.722388   -3.633474
     73          1           0        0.314663    2.029220   -2.717774
     74          1           0        0.495533    0.422566   -3.298816
     75          1           0        1.117300   -0.406328    1.225288
     76          1           0        0.449058   -1.834203    0.414823
     77          1           0       -0.894323    0.366297   -0.676649
     78          1           0       -0.865201    0.588426    1.065565
     79          1           0        4.638346    6.472304   -1.094483
     80          1           0        3.416330    5.434564   -1.854103
     81          1           0        4.815092    5.946561   -2.779191
     82          1           0        6.453571    7.458843   -0.503689
     83          1           0        6.534807    7.074935   -2.236871
     84          1           0        7.933065    7.804111   -1.295215
     85          1           0       10.201019    2.302012    1.767731
     86          1           0       10.800446   -0.632168    1.509736
     87          1           0       10.933074    2.189039   -0.808303
     88          1           0       11.462529    0.546215   -0.427472
     89          1           0       12.160753    1.918448    0.424114
     90          1           0        9.055870   -0.094820    3.749493
     91          1           0       10.176233    1.228408    3.656810
     92          1           0       10.490947   -1.276804    4.844218
     93          1           0       11.881447   -0.217805    4.606311
     94          1           0       11.449354   -1.386219    3.380040
     95          1           0        7.975393   -5.162711    0.736577
     96          1           0        6.443556   -5.651615    1.559455
     97          1           0        7.674084   -4.508122    2.326202
     98          1           0        2.063360   -3.309073    0.582505
     99          1           0        0.609497   -5.131721   -3.031707
    100          1           0        0.152949   -3.393663   -3.034852
    101          1           0       -0.832729   -4.594462   -2.157594
    102          1           0       -3.106000   -3.378893    0.918866
    103          1           0       -2.757465   -4.107408   -0.601048
    104          1           0       -4.535259   -1.789670   -1.103400
    105          1           0       -6.527233   -4.986591    0.338600
    106          1           0       -4.838252   -5.151197    0.158737
    107          1           0       -5.805135   -5.637021   -1.211099
    108          1           0       -7.149951   -3.695182   -2.001157
    109          1           0       -6.218801   -2.246402   -2.284077
    110          1           0       -7.374201   -2.109202    0.413628
    111          1           0       -8.704927   -2.466631   -0.696848
    112          1           0       -7.034586   -0.262359   -1.626445
    113          1           0       -7.543073    0.044626    0.052368
    114          1           0       -9.690903   -1.032468   -1.907348
    115          1           0       -8.015306    1.056406   -3.071800
    116          1           0       -9.635330    1.667220   -2.731697
    117          1           0       -9.475899    0.160037   -3.528500
    118          1           0       -9.780034    1.550215   -0.286036
    119          1           0       -9.835857    0.006343    0.570834
    120          1           0      -11.940392   -0.175660    0.306106
    121          1           0      -11.764664   -0.420682   -1.431413
    122          1           0      -12.028186    1.473407   -2.167135
    123          1           0      -11.718609    2.413565   -0.805391
    124          1           0      -13.990216    0.565632   -0.326764
    125          1           0      -14.161564    2.085340   -2.830975
    126          1           0      -15.389198    2.593710   -1.638164
    127          1           0      -15.268174    0.935920   -2.100216
    128          1           0      -14.469761    3.497299   -0.061846
    129          1           0      -13.070825    2.853075    0.870108
    130          1           0      -15.601456    1.101603    1.151847
    131          1           0      -15.536447    2.677589    1.894856
    132          1           0      -13.194448    0.840247    2.035996
    133          1           0      -14.705798    0.676742    3.044995
    134          1           0      -14.135193    3.280899    3.477992
    135          1           0      -13.365378    2.625696    5.743415
    136          1           0      -13.173141    1.012558    5.132763
    137          1           0      -14.858421    1.788808    5.190040
    138          1           0      -11.376770    2.486572    4.155532
    139          1           0      -12.091895    3.820396    3.263891
    140          1           0      -11.656626    2.302003    2.379218
 ---------------------------------------------------------------------

 SCF Done:  E(RCAM-B3LYP) =  -3007.15800418     A.U. after   17 cycles

 Excitation energies and oscillator strengths:

 Excited State   1:      Singlet-A      1.7199 eV  720.87 nm  f=0.4082  <S**2>=0.000
     245 -> 248       -0.17519
     246 -> 247        0.68442
     245 <- 248       -0.10618
 This state for optimization and/or second-order correction.
 Total Energy, E(TD-HF/TD-DFT) =  -3007.09479776
 Copying the excited state density for this state as the 1-particle RhoCI density.

 Excited State   2:      Singlet-A      2.2752 eV  544.93 nm  f=0.0865  <S**2>=0.000
     245 -> 247        0.61924
     246 -> 248        0.32445

 Excited State   3:      Singlet-A      3.4626 eV  358.06 nm  f=0.2854  <S**2>=0.000
     241 -> 247       -0.13335
     242 -> 247        0.46840
     244 -> 247       -0.19685
     245 -> 247        0.19342
     246 -> 248       -0.41974

 Excited State   4:      Singlet-A      3.4924 eV  355.01 nm  f=0.0116  <S**2>=0.000
     241 -> 247        0.53984
     241 -> 249       -0.24832
     241 -> 250       -0.22826
     242 -> 247        0.25269

 Excited State   5:      Singlet-A      3.5348 eV  350.75 nm  f=0.2307  <S**2>=0.000
     240 -> 247       -0.11773
     242 -> 247       -0.12922
     244 -> 247        0.53817
     245 -> 247        0.17041
     246 -> 248       -0.35908

 The electronic state is 1-A.
 Alpha  occ. eigenvalues --  -46.87714 -19.24845 -19.24325 -19.20478 -19.19238
 Alpha  occ. eigenvalues --  -19.19108 -19.17710 -14.42320 -14.42194 -14.39582
 Alpha  occ. eigenvalues --  -14.39537 -10.40296 -10.38976 -10.35770 -10.33227
 Alpha  occ. eigenvalues --  -10.32630 -10.31710 -10.31262 -10.31167 -10.31061
 Alpha  occ. eigenvalues --  -10.30867 -10.30535 -10.29867 -10.29576 -10.28833
 Alpha  occ. eigenvalues --  -10.28826 -10.28761 -10.28653 -10.28591 -10.28221
 Alpha  occ. eigenvalues --  -10.27931 -10.27891 -10.27841 -10.27736 -10.27541
 Alpha  occ. eigenvalues --  -10.27480 -10.27356 -10.27303 -10.27250 -10.27020
 Alpha  occ. eigenvalues --  -10.26218 -10.26103 -10.26079 -10.26033 -10.25753
 Alpha  occ. eigenvalues --  -10.25622 -10.25621 -10.25536 -10.25445 -10.25312
 Alpha  occ. eigenvalues --  -10.25266 -10.25086 -10.25072 -10.24811 -10.24766
 Alpha  occ. eigenvalues --  -10.24552 -10.24504 -10.24413 -10.24384 -10.24346
 Alpha  occ. eigenvalues --  -10.24265 -10.24247 -10.24121 -10.24072 -10.23809
 Alpha  occ. eigenvalues --  -10.23803  -3.16573  -1.91464  -1.91041  -1.90884
 Alpha  occ. eigenvalues --   -1.15769  -1.15737  -1.10075  -1.07732  -1.07188
 Alpha  occ. eigenvalues --   -1.06848  -1.05757  -1.04579  -1.03656  -1.02617
 Alpha  occ. eigenvalues --   -0.93851  -0.90625  -0.90379  -0.89910  -0.89221
 Alpha  occ. eigenvalues --   -0.88730  -0.88387  -0.88234  -0.87481  -0.87225
 Alpha  occ. eigenvalues --   -0.86945  -0.85780  -0.84447  -0.84075  -0.83609
 Alpha  occ. eigenvalues --   -0.82548  -0.82384  -0.82011  -0.81106  -0.80446
 Alpha  occ. eigenvalues --   -0.79923  -0.78806  -0.78449  -0.77541  -0.76691
 Alpha  occ. eigenvalues --   -0.76003  -0.75540  -0.75458  -0.75019  -0.73933
 Alpha  occ. eigenvalues --   -0.73331  -0.72841  -0.72192  -0.71069  -0.69155
 Alpha  occ. eigenvalues --   -0.68649  -0.67818  -0.67140  -0.66322  -0.65931
 Alpha  occ. eigenvalues --   -0.65852  -0.65353  -0.64898  -0.64213  -0.64131
 Alpha  occ. eigenvalues --   -0.63537  -0.63096  -0.62262  -0.61874  -0.60454
 Alpha  occ. eigenvalues --   -0.60026  -0.59829  -0.59310  -0.58939  -0.58729
 Alpha  occ. eigenvalues --   -0.57949  -0.57304  -0.56364  -0.55696  -0.55647
 Alpha  occ. eigenvalues --   -0.55208  -0.54874  -0.54438  -0.54357  -0.54171
 Alpha  occ. eigenvalues --   -0.53827  -0.53435  -0.53190  -0.52900  -0.52813
 Alpha  occ. eigenvalues --   -0.52643  -0.52352  -0.52040  -0.51889  -0.51768
 Alpha  occ. eigenvalues --   -0.51656  -0.51389  -0.51082  -0.50925  -0.50881
 Alpha  occ. eigenvalues --   -0.50310  -0.50225  -0.50089  -0.49907  -0.49712
 Alpha  occ. eigenvalues --   -0.49570  -0.49314  -0.49160  -0.49131  -0.49021
 Alpha  occ. eigenvalues --   -0.48718  -0.48440  -0.48371  -0.48251  -0.48188
 Alpha  occ. eigenvalues --   -0.47891  -0.47376  -0.47310  -0.47075  -0.46979
 Alpha  occ. eigenvalues --   -0.46742  -0.46647  -0.46388  -0.46322  -0.45934
 Alpha  occ. eigenvalues --   -0.45917  -0.45632  -0.45471  -0.45339  -0.45181
 Alpha  occ. eigenvalues --   -0.44986  -0.44862  -0.44760  -0.44538  -0.44507
 Alpha  occ. eigenvalues --   -0.44332  -0.43751  -0.43634  -0.43505  -0.43128
 Alpha  occ. eigenvalues --   -0.42954  -0.42927  -0.42717  -0.41958  -0.41702
 Alpha  occ. eigenvalues --   -0.41584  -0.41389  -0.41219  -0.41185  -0.41016
 Alpha  occ. eigenvalues --   -0.40872  -0.40721  -0.40601  -0.40490  -0.40423
 Alpha  occ. eigenvalues --   -0.39714  -0.39531  -0.39430  -0.39098  -0.38964
 Alpha  occ. eigenvalues --   -0.38557  -0.38391  -0.38079  -0.37520  -0.37402
 Alpha  occ. eigenvalues --   -0.37293  -0.36721  -0.36496  -0.36147  -0.36029
 Alpha  occ. eigenvalues --   -0.35675  -0.34878  -0.34730  -0.34414  -0.34205
 Alpha  occ. eigenvalues --   -0.34023  -0.33306  -0.32822  -0.31446  -0.31320
 Alpha  occ. eigenvalues --   -0.30534  -0.30205  -0.29855  -0.29713  -0.24398
 Alpha  occ. eigenvalues --   -0.21084
 Alpha virt. eigenvalues --   -0.08688  -0.01988   0.00176   0.02074   0.02767
 Alpha virt. eigenvalues --    0.04486   0.05127   0.05615   0.06070   0.06438
 Alpha virt. eigenvalues --    0.07545   0.08236   0.08429   0.09079   0.09254

 Mulliken charges:
               1
     1  Mg   0.857908
     2  C   -0.058674
     3  C   -0.080813
     4  C   -0.105102
     5  C   -0.093011
     6  N   -0.206538
     7  C   -0.062792
     8  C   -0.063373
     9  C   -0.061500
    10  C   -0.010139
    11  C    0.070839
    12  C    0.053277
    13  C    0.063527
    14  C    0.140767
    15  O   -0.221854
    16  O   -0.355963
    17  N   -0.380622
    18  C    0.185196
    19  C   -0.153232
    20  C   -0.050791
    21  C    0.159427
    22  C    0.115060
    23  C    0.031304
    24  O   -0.249987
    25  C    0.059396
    26  N   -0.336147
    27  C    0.076711
    28  C   -0.070612
    29  C   -0.041628
    30  C    0.051114
    31  C    0.057047
    32  C    0.068543
    33  C    0.003478
    34  N   -0.338742
    35  C    0.114241
    36  C   -0.147547
    37  C   -0.004651
    38  C    0.141780
    39  C    0.119165
    40  C   -0.036228
    41  O   -0.163138
    42  C    0.106179
    43  C    0.181375
    44  O   -0.220154
    45  O   -0.347059
    46  C    0.193807
    47  C    0.300040
    48  C   -0.090169
    49  C   -0.252932
    50  C    0.090951
    51  C    0.077216
    52  C    0.050937
    53  C    0.046400
    54  C   -0.153364
    55  C    0.029029
    56  C    0.073000
    57  C    0.000873
    58  C    0.041073
    59  C   -0.125367
    60  C    0.080347
    61  C    0.074495
    62  C    0.013875
    63  C    0.018014
    64  C   -0.163573
    65  C    0.043300
    66  C    0.053342
    67  H   -0.037372
    68  H    0.008463
    69  H   -0.017479
    70  H    0.024411
    71  H    0.018697
    72  H    0.031223
    73  H    0.004311
    74  H    0.021054
    75  H    0.015925
    76  H    0.042582
    77  H    0.031720
    78  H    0.027186
    79  H    0.019126
    80  H    0.013227
    81  H    0.043104
    82  H    0.039820
    83  H    0.041162
    84  H    0.025663
    85  H    0.022073
    86  H    0.008990
    87  H    0.023734
    88  H    0.016654
    89  H    0.020652
    90  H    0.003970
    91  H    0.008970
    92  H    0.014332
    93  H    0.021996
    94  H   -0.000519
    95  H    0.031026
    96  H    0.044182
    97  H    0.020544
    98  H    0.039055
    99  H    0.040634
   100  H    0.034811
   101  H    0.029210
   102  H    0.034884
   103  H    0.034434
   104  H   -0.011039
   105  H    0.029502
   106  H   -0.017194
   107  H    0.029026
   108  H   -0.017749
   109  H   -0.001128
   110  H    0.001504
   111  H    0.004898
   112  H   -0.012660
   113  H    0.010803
   114  H    0.003089
   115  H    0.018905
   116  H    0.001015
   117  H   -0.003409
   118  H    0.005177
   119  H   -0.009711
   120  H    0.003272
   121  H   -0.003810
   122  H   -0.020101
   123  H   -0.012952
   124  H    0.001441
   125  H    0.010141
   126  H   -0.006339
   127  H   -0.003467
   128  H   -0.004460
   129  H   -0.010846
   130  H    0.001837
   131  H   -0.020538
   132  H   -0.011180
   133  H   -0.019859
   134  H   -0.008115
   135  H    0.004632
   136  H    0.009548
   137  H    0.019832
   138  H    0.003671
   139  H    0.009199
   140  H    0.027275
 Sum of Mulliken charges =  -0.00000

 Dipole moment (field-independent basis, Debye):
    X=             -1.7042    Y=              3.5743    Z=             -0.2630  Tot=              3.9685
 Quadrupole moment (field-independent basis, Debye-Ang):
   XX=           -391.4930   YY=           -417.7550   ZZ=           -404.2913
   XY=              5.5142   XZ=             23.3669   YZ=             -5.8163

 Normal termination of Gaussian 16 at Thu May  5 14:12:42 2022.
