 Gaussian 16, Revision A.03,
 Gaussian 16:  ES64L-G16RevA.03 25-Dec-2016

 ---------------------------------
 #p PBE1PBE/Def2SVP td=(nstates=5)
 ---------------------------------

 -----------------------------------------------------
 step_951_chromophore_16 TDDFT with PBE1PBE functional
 -----------------------------------------------------
 Symbolic Z-matrix:
 Charge =  0 Multiplicity = 1

                         Standard orientation:
 ---------------------------------------------------------------------
 Center     Atomic      Atomic             Coordinates (Angstroms)
 Number     Number       Type             X           Y           Z
 ---------------------------------------------------------------------
      1         12           0        5.966795    0.478654    0.148653
      2          6           0        3.588754   -2.011586   -0.140273
      3          6           0        3.637474    2.647320   -1.336300
      4          6           0        8.307701    2.914859    0.048192
      5          6           0        8.249222   -1.843883    1.268210
      6          7           0        3.847271    0.310278   -0.657674
      7          6           0        3.107757   -0.731622   -0.491196
      8          6           0        1.629235   -0.540301   -0.940342
      9          6           0        1.667910    0.945606   -1.479449
     10          6           0        3.154620    1.342899   -1.220761
     11          6           0        1.065447    1.259150   -2.895641
     12          6           0        0.648123   -0.767318    0.310034
     13          6           0       -0.705773   -0.139165    0.271098
     14          6           0       -1.957948   -1.047176    0.584363
     15          8           0       -2.818752   -0.936550    1.455687
     16          8           0       -2.023067   -2.099497   -0.316519
     17          7           0        5.955839    2.479836   -0.414944
     18          6           0        4.918048    3.183028   -0.975372
     19          6           0        5.328189    4.537046   -1.163188
     20          6           0        6.698120    4.616872   -0.767419
     21          6           0        7.059417    3.288201   -0.298119
     22          6           0        4.484750    5.643446   -1.785458
     23          6           0        7.635668    5.837776   -0.786567
     24          8           0        8.836751    5.833402   -0.359707
     25          6           0        7.099987    7.101190   -1.305754
     26          7           0        7.921125    0.539164    0.634738
     27          6           0        8.698543    1.620488    0.527065
     28          6           0       10.080097    1.452472    1.096395
     29          6           0        9.988319    0.011888    1.845516
     30          6           0        8.624190   -0.498167    1.269994
     31          6           0       11.237718    1.522983   -0.000816
     32          6           0       10.042683    0.182910    3.378823
     33          6           0       11.034225   -0.686944    4.106591
     34          7           0        6.019636   -1.512157    0.398939
     35          6           0        6.979271   -2.374966    0.831185
     36          6           0        6.496855   -3.745028    0.948972
     37          6           0        5.129311   -3.604994    0.501112
     38          6           0        4.927717   -2.215478    0.197663
     39          6           0        7.181571   -4.861867    1.419721
     40          6           0        3.906266   -4.297520    0.332307
     41          8           0        3.632313   -5.458407    0.528898
     42          6           0        2.893572   -3.346489   -0.122538
     43          6           0        2.314209   -3.841485   -1.377531
     44          8           0        2.851345   -3.832801   -2.475494
     45          8           0        0.995062   -4.203832   -1.232699
     46          6           0        0.178417   -4.315526   -2.452452
     47          6           0       -3.038999   -3.157971   -0.146887
     48          6           0       -4.393430   -2.794869   -0.704282
     49          6           0       -5.498240   -3.511938   -0.887233
     50          6           0       -5.736168   -4.905516   -0.407350
     51          6           0       -6.715071   -2.826617   -1.506199
     52          6           0       -7.708658   -2.031587   -0.620117
     53          6           0       -7.784471   -0.488533   -0.867833
     54          6           0       -9.241513   -0.139015   -1.474479
     55          6           0       -9.017173    0.769426   -2.750747
     56          6           0      -10.056570    0.499205   -0.376031
     57          6           0      -11.564847    0.272398   -0.613664
     58          6           0      -12.235000    1.499599   -1.096909
     59          6           0      -13.774390    1.561849   -0.712178
     60          6           0      -14.665355    1.822180   -1.900961
     61          6           0      -14.001931    2.607757    0.358204
     62          6           0      -14.923707    1.911440    1.420311
     63          6           0      -14.041302    1.347170    2.500124
     64          6           0      -13.507639    2.397279    3.596022
     65          6           0      -13.786061    1.908748    5.038605
     66          6           0      -12.020739    2.734265    3.311484
     67          1           0        2.817530    3.268945   -1.701753
     68          1           0        9.046136    3.714342    0.137829
     69          1           0        9.102601   -2.485236    1.499518
     70          1           0        1.360828   -1.126306   -1.819217
     71          1           0        1.063651    1.501509   -0.763713
     72          1           0        1.720353    1.722388   -3.633474
     73          1           0        0.314663    2.029220   -2.717774
     74          1           0        0.495533    0.422566   -3.298816
     75          1           0        1.117300   -0.406328    1.225288
     76          1           0        0.449058   -1.834203    0.414823
     77          1           0       -0.894323    0.366297   -0.676649
     78          1           0       -0.865201    0.588426    1.065565
     79          1           0        4.638346    6.472304   -1.094483
     80          1           0        3.416330    5.434564   -1.854103
     81          1           0        4.815092    5.946561   -2.779191
     82          1           0        6.453571    7.458843   -0.503689
     83          1           0        6.534807    7.074935   -2.236871
     84          1           0        7.933065    7.804111   -1.295215
     85          1           0       10.201019    2.302012    1.767731
     86          1           0       10.800446   -0.632168    1.509736
     87          1           0       10.933074    2.189039   -0.808303
     88          1           0       11.462529    0.546215   -0.427472
     89          1           0       12.160753    1.918448    0.424114
     90          1           0        9.055870   -0.094820    3.749493
     91          1           0       10.176233    1.228408    3.656810
     92          1           0       10.490947   -1.276804    4.844218
     93          1           0       11.881447   -0.217805    4.606311
     94          1           0       11.449354   -1.386219    3.380040
     95          1           0        7.975393   -5.162711    0.736577
     96          1           0        6.443556   -5.651615    1.559455
     97          1           0        7.674084   -4.508122    2.326202
     98          1           0        2.063360   -3.309073    0.582505
     99          1           0        0.609497   -5.131721   -3.031707
    100          1           0        0.152949   -3.393663   -3.034852
    101          1           0       -0.832729   -4.594462   -2.157594
    102          1           0       -3.106000   -3.378893    0.918866
    103          1           0       -2.757465   -4.107408   -0.601048
    104          1           0       -4.535259   -1.789670   -1.103400
    105          1           0       -6.527233   -4.986591    0.338600
    106          1           0       -4.838252   -5.151197    0.158737
    107          1           0       -5.805135   -5.637021   -1.211099
    108          1           0       -7.149951   -3.695182   -2.001157
    109          1           0       -6.218801   -2.246402   -2.284077
    110          1           0       -7.374201   -2.109202    0.413628
    111          1           0       -8.704927   -2.466631   -0.696848
    112          1           0       -7.034586   -0.262359   -1.626445
    113          1           0       -7.543073    0.044626    0.052368
    114          1           0       -9.690903   -1.032468   -1.907348
    115          1           0       -8.015306    1.056406   -3.071800
    116          1           0       -9.635330    1.667220   -2.731697
    117          1           0       -9.475899    0.160037   -3.528500
    118          1           0       -9.780034    1.550215   -0.286036
    119          1           0       -9.835857    0.006343    0.570834
    120          1           0      -11.940392   -0.175660    0.306106
    121          1           0      -11.764664   -0.420682   -1.431413
    122          1           0      -12.028186    1.473407   -2.167135
    123          1           0      -11.718609    2.413565   -0.805391
    124          1           0      -13.990216    0.565632   -0.326764
    125          1           0      -14.161564    2.085340   -2.830975
    126          1           0      -15.389198    2.593710   -1.638164
    127          1           0      -15.268174    0.935920   -2.100216
    128          1           0      -14.469761    3.497299   -0.061846
    129          1           0      -13.070825    2.853075    0.870108
    130          1           0      -15.601456    1.101603    1.151847
    131          1           0      -15.536447    2.677589    1.894856
    132          1           0      -13.194448    0.840247    2.035996
    133          1           0      -14.705798    0.676742    3.044995
    134          1           0      -14.135193    3.280899    3.477992
    135          1           0      -13.365378    2.625696    5.743415
    136          1           0      -13.173141    1.012558    5.132763
    137          1           0      -14.858421    1.788808    5.190040
    138          1           0      -11.376770    2.486572    4.155532
    139          1           0      -12.091895    3.820396    3.263891
    140          1           0      -11.656626    2.302003    2.379218
 ---------------------------------------------------------------------

 SCF Done:  E(RPBE1PBE) =  -3005.34601909     A.U. after   15 cycles

 Excitation energies and oscillator strengths:

 Excited State   1:      Singlet-A      1.8714 eV  662.51 nm  f=0.3948  <S**2>=0.000
     245 -> 248       -0.17081
     246 -> 247        0.69191
     246 <- 247       -0.11139
 This state for optimization and/or second-order correction.
 Total Energy, E(TD-HF/TD-DFT) =  -3005.27724564
 Copying the excited state density for this state as the 1-particle RhoCI density.

 Excited State   2:      Singlet-A      2.2851 eV  542.57 nm  f=0.0862  <S**2>=0.000
     245 -> 247        0.63371
     246 -> 248        0.29687

 Excited State   3:      Singlet-A      2.9466 eV  420.77 nm  f=0.0003  <S**2>=0.000
     242 -> 247       -0.18988
     243 -> 247        0.64709
     243 -> 249        0.13642
     243 -> 250       -0.10749

 Excited State   4:      Singlet-A      3.1202 eV  397.36 nm  f=0.0001  <S**2>=0.000
     240 -> 247        0.63949
     240 -> 249       -0.17852
     241 -> 247        0.13809
     242 -> 247       -0.12567

 Excited State   5:      Singlet-A      3.1626 eV  392.04 nm  f=0.0052  <S**2>=0.000
     240 -> 247        0.17333
     241 -> 247       -0.33001
     242 -> 247        0.57329
     243 -> 247        0.12757

 The electronic state is 1-A.
 Alpha  occ. eigenvalues --  -46.91124 -19.25567 -19.25016 -19.20785 -19.19493
 Alpha  occ. eigenvalues --  -19.19262 -19.18020 -14.41783 -14.41718 -14.39266
 Alpha  occ. eigenvalues --  -14.39155 -10.37401 -10.36031 -10.32788 -10.30405
 Alpha  occ. eigenvalues --  -10.30047 -10.29045 -10.28958 -10.28915 -10.28663
 Alpha  occ. eigenvalues --  -10.28625 -10.28092 -10.27762 -10.27094 -10.26654
 Alpha  occ. eigenvalues --  -10.26551 -10.26355 -10.26341 -10.26157 -10.26116
 Alpha  occ. eigenvalues --  -10.25731 -10.25607 -10.25568 -10.25562 -10.25139
 Alpha  occ. eigenvalues --  -10.24997 -10.24992 -10.24848 -10.24809 -10.24476
 Alpha  occ. eigenvalues --  -10.23724 -10.23670 -10.23585 -10.23504 -10.23418
 Alpha  occ. eigenvalues --  -10.23235 -10.23220 -10.22994 -10.22942 -10.22854
 Alpha  occ. eigenvalues --  -10.22704 -10.22659 -10.22640 -10.22511 -10.22429
 Alpha  occ. eigenvalues --  -10.22391 -10.21978 -10.21922 -10.21885 -10.21804
 Alpha  occ. eigenvalues --  -10.21778 -10.21692 -10.21692 -10.21607 -10.21366
 Alpha  occ. eigenvalues --  -10.21181  -3.13555  -1.86388  -1.85943  -1.85789
 Alpha  occ. eigenvalues --   -1.10596  -1.10533  -1.04901  -1.02313  -1.02089
 Alpha  occ. eigenvalues --   -1.01705  -1.00421  -0.99337  -0.98243  -0.97222
 Alpha  occ. eigenvalues --   -0.88295  -0.84754  -0.84502  -0.84089  -0.83529
 Alpha  occ. eigenvalues --   -0.82837  -0.82723  -0.82548  -0.81747  -0.81430
 Alpha  occ. eigenvalues --   -0.81056  -0.80052  -0.78703  -0.78342  -0.77867
 Alpha  occ. eigenvalues --   -0.76737  -0.76554  -0.76310  -0.75306  -0.74808
 Alpha  occ. eigenvalues --   -0.74118  -0.73122  -0.72675  -0.71859  -0.71053
 Alpha  occ. eigenvalues --   -0.70175  -0.69780  -0.69614  -0.69169  -0.68096
 Alpha  occ. eigenvalues --   -0.67679  -0.67300  -0.66598  -0.65398  -0.63618
 Alpha  occ. eigenvalues --   -0.63111  -0.62071  -0.61512  -0.60648  -0.60369
 Alpha  occ. eigenvalues --   -0.60270  -0.59846  -0.59124  -0.58759  -0.58236
 Alpha  occ. eigenvalues --   -0.57791  -0.57538  -0.56885  -0.56046  -0.54960
 Alpha  occ. eigenvalues --   -0.54534  -0.54421  -0.53709  -0.53549  -0.53188
 Alpha  occ. eigenvalues --   -0.52527  -0.51716  -0.50882  -0.50266  -0.50177
 Alpha  occ. eigenvalues --   -0.49781  -0.49517  -0.49038  -0.48788  -0.48586
 Alpha  occ. eigenvalues --   -0.48261  -0.48092  -0.47673  -0.47415  -0.47173
 Alpha  occ. eigenvalues --   -0.47136  -0.46894  -0.46609  -0.46470  -0.46351
 Alpha  occ. eigenvalues --   -0.46097  -0.46036  -0.45612  -0.45520  -0.45391
 Alpha  occ. eigenvalues --   -0.44880  -0.44829  -0.44665  -0.44458  -0.44271
 Alpha  occ. eigenvalues --   -0.44164  -0.43839  -0.43752  -0.43722  -0.43637
 Alpha  occ. eigenvalues --   -0.43329  -0.43045  -0.42938  -0.42883  -0.42781
 Alpha  occ. eigenvalues --   -0.42459  -0.42054  -0.41891  -0.41776  -0.41723
 Alpha  occ. eigenvalues --   -0.41470  -0.41311  -0.41170  -0.40927  -0.40712
 Alpha  occ. eigenvalues --   -0.40492  -0.40405  -0.40287  -0.39956  -0.39889
 Alpha  occ. eigenvalues --   -0.39745  -0.39538  -0.39441  -0.39359  -0.39261
 Alpha  occ. eigenvalues --   -0.39069  -0.38588  -0.38472  -0.38344  -0.37857
 Alpha  occ. eigenvalues --   -0.37751  -0.37678  -0.37456  -0.36791  -0.36484
 Alpha  occ. eigenvalues --   -0.36431  -0.36264  -0.36074  -0.36009  -0.35877
 Alpha  occ. eigenvalues --   -0.35732  -0.35510  -0.35411  -0.35358  -0.35174
 Alpha  occ. eigenvalues --   -0.34524  -0.34369  -0.34228  -0.33944  -0.33728
 Alpha  occ. eigenvalues --   -0.33401  -0.33320  -0.32854  -0.32549  -0.32341
 Alpha  occ. eigenvalues --   -0.32217  -0.31666  -0.31579  -0.31086  -0.30882
 Alpha  occ. eigenvalues --   -0.30554  -0.29856  -0.29759  -0.29319  -0.29279
 Alpha  occ. eigenvalues --   -0.29146  -0.28467  -0.27859  -0.26988  -0.26058
 Alpha  occ. eigenvalues --   -0.25751  -0.25513  -0.25350  -0.25139  -0.21309
 Alpha  occ. eigenvalues --   -0.18751
 Alpha virt. eigenvalues --   -0.11160  -0.05502  -0.03973  -0.02327  -0.00237
 Alpha virt. eigenvalues --   -0.00019   0.00456   0.01422   0.01614   0.02625
 Alpha virt. eigenvalues --    0.03902   0.04196   0.04866   0.05785   0.05915

 Mulliken charges:
               1
     1  Mg   1.012365
     2  C   -0.039954
     3  C   -0.072193
     4  C   -0.082408
     5  C   -0.079852
     6  N   -0.321148
     7  C    0.012988
     8  C   -0.138005
     9  C   -0.133610
    10  C    0.034202
    11  C    0.011224
    12  C    0.000781
    13  C   -0.010918
    14  C    0.203736
    15  O   -0.254670
    16  O   -0.384577
    17  N   -0.501875
    18  C    0.205016
    19  C   -0.180398
    20  C   -0.095898
    21  C    0.185127
    22  C    0.052646
    23  C    0.078607
    24  O   -0.287967
    25  C   -0.017315
    26  N   -0.444152
    27  C    0.110995
    28  C   -0.143228
    29  C   -0.118948
    30  C    0.080223
    31  C    0.000341
    32  C    0.014137
    33  C   -0.068376
    34  N   -0.477383
    35  C    0.136276
    36  C   -0.160127
    37  C   -0.047286
    38  C    0.185797
    39  C    0.060290
    40  C    0.060116
    41  O   -0.212508
    42  C   -0.016710
    43  C    0.277876
    44  O   -0.255996
    45  O   -0.381651
    46  C    0.136127
    47  C    0.259158
    48  C   -0.100988
    49  C   -0.293407
    50  C    0.026458
    51  C    0.012503
    52  C   -0.012456
    53  C   -0.007505
    54  C   -0.238337
    55  C   -0.026241
    56  C    0.015573
    57  C   -0.063442
    58  C   -0.006191
    59  C   -0.213097
    60  C    0.025628
    61  C    0.011700
    62  C   -0.053322
    63  C   -0.046005
    64  C   -0.243082
    65  C   -0.023780
    66  C   -0.013441
    67  H   -0.003843
    68  H    0.038378
    69  H    0.013653
    70  H    0.064612
    71  H    0.058259
    72  H    0.057828
    73  H    0.031077
    74  H    0.047243
    75  H    0.048264
    76  H    0.078718
    77  H    0.065227
    78  H    0.059407
    79  H    0.047753
    80  H    0.040607
    81  H    0.069831
    82  H    0.067893
    83  H    0.067280
    84  H    0.053498
    85  H    0.057413
    86  H    0.044257
    87  H    0.051710
    88  H    0.043604
    89  H    0.048295
    90  H    0.037777
    91  H    0.041233
    92  H    0.041932
    93  H    0.049400
    94  H    0.026800
    95  H    0.059925
    96  H    0.072245
    97  H    0.048773
    98  H    0.078010
    99  H    0.062725
   100  H    0.056328
   101  H    0.053744
   102  H    0.061340
   103  H    0.061179
   104  H    0.019280
   105  H    0.056913
   106  H    0.012305
   107  H    0.056301
   108  H    0.016362
   109  H    0.030448
   110  H    0.035049
   111  H    0.036204
   112  H    0.020328
   113  H    0.041607
   114  H    0.039343
   115  H    0.044591
   116  H    0.028709
   117  H    0.024102
   118  H    0.036671
   119  H    0.024432
   120  H    0.034242
   121  H    0.029714
   122  H    0.013535
   123  H    0.017689
   124  H    0.039337
   125  H    0.036498
   126  H    0.020948
   127  H    0.024379
   128  H    0.027496
   129  H    0.029089
   130  H    0.033591
   131  H    0.014042
   132  H    0.028404
   133  H    0.014456
   134  H    0.028970
   135  H    0.033696
   136  H    0.038174
   137  H    0.047235
   138  H    0.031770
   139  H    0.037328
   140  H    0.052939
 Sum of Mulliken charges =  -0.00000

 Dipole moment (field-independent basis, Debye):
    X=             -1.7036    Y=              3.2497    Z=             -0.1280  Tot=              3.6714
 Quadrupole moment (field-independent basis, Debye-Ang):
   XX=           -385.8586   YY=           -415.3246   ZZ=           -401.5728
   XY=              3.2018   XZ=             24.9381   YZ=             -5.9891

 Normal termination of Gaussian 16 at Thu May  5 14:41:00 2022.
