 Gaussian 16, Revision A.03,
 Gaussian 16:  ES64L-G16RevA.03 25-Dec-2016

 --------------------------------
 #p wB97XD/Def2SVP td=(nstates=5)
 --------------------------------

 ----------------------------------------------------
 step_951_chromophore_16 TDDFT with wB97XD functional
 ----------------------------------------------------
 Symbolic Z-matrix:
 Charge =  0 Multiplicity = 1

                         Standard orientation:
 ---------------------------------------------------------------------
 Center     Atomic      Atomic             Coordinates (Angstroms)
 Number     Number       Type             X           Y           Z
 ---------------------------------------------------------------------
      1         12           0        5.966795    0.478654    0.148653
      2          6           0        3.588754   -2.011586   -0.140273
      3          6           0        3.637474    2.647320   -1.336300
      4          6           0        8.307701    2.914859    0.048192
      5          6           0        8.249222   -1.843883    1.268210
      6          7           0        3.847271    0.310278   -0.657674
      7          6           0        3.107757   -0.731622   -0.491196
      8          6           0        1.629235   -0.540301   -0.940342
      9          6           0        1.667910    0.945606   -1.479449
     10          6           0        3.154620    1.342899   -1.220761
     11          6           0        1.065447    1.259150   -2.895641
     12          6           0        0.648123   -0.767318    0.310034
     13          6           0       -0.705773   -0.139165    0.271098
     14          6           0       -1.957948   -1.047176    0.584363
     15          8           0       -2.818752   -0.936550    1.455687
     16          8           0       -2.023067   -2.099497   -0.316519
     17          7           0        5.955839    2.479836   -0.414944
     18          6           0        4.918048    3.183028   -0.975372
     19          6           0        5.328189    4.537046   -1.163188
     20          6           0        6.698120    4.616872   -0.767419
     21          6           0        7.059417    3.288201   -0.298119
     22          6           0        4.484750    5.643446   -1.785458
     23          6           0        7.635668    5.837776   -0.786567
     24          8           0        8.836751    5.833402   -0.359707
     25          6           0        7.099987    7.101190   -1.305754
     26          7           0        7.921125    0.539164    0.634738
     27          6           0        8.698543    1.620488    0.527065
     28          6           0       10.080097    1.452472    1.096395
     29          6           0        9.988319    0.011888    1.845516
     30          6           0        8.624190   -0.498167    1.269994
     31          6           0       11.237718    1.522983   -0.000816
     32          6           0       10.042683    0.182910    3.378823
     33          6           0       11.034225   -0.686944    4.106591
     34          7           0        6.019636   -1.512157    0.398939
     35          6           0        6.979271   -2.374966    0.831185
     36          6           0        6.496855   -3.745028    0.948972
     37          6           0        5.129311   -3.604994    0.501112
     38          6           0        4.927717   -2.215478    0.197663
     39          6           0        7.181571   -4.861867    1.419721
     40          6           0        3.906266   -4.297520    0.332307
     41          8           0        3.632313   -5.458407    0.528898
     42          6           0        2.893572   -3.346489   -0.122538
     43          6           0        2.314209   -3.841485   -1.377531
     44          8           0        2.851345   -3.832801   -2.475494
     45          8           0        0.995062   -4.203832   -1.232699
     46          6           0        0.178417   -4.315526   -2.452452
     47          6           0       -3.038999   -3.157971   -0.146887
     48          6           0       -4.393430   -2.794869   -0.704282
     49          6           0       -5.498240   -3.511938   -0.887233
     50          6           0       -5.736168   -4.905516   -0.407350
     51          6           0       -6.715071   -2.826617   -1.506199
     52          6           0       -7.708658   -2.031587   -0.620117
     53          6           0       -7.784471   -0.488533   -0.867833
     54          6           0       -9.241513   -0.139015   -1.474479
     55          6           0       -9.017173    0.769426   -2.750747
     56          6           0      -10.056570    0.499205   -0.376031
     57          6           0      -11.564847    0.272398   -0.613664
     58          6           0      -12.235000    1.499599   -1.096909
     59          6           0      -13.774390    1.561849   -0.712178
     60          6           0      -14.665355    1.822180   -1.900961
     61          6           0      -14.001931    2.607757    0.358204
     62          6           0      -14.923707    1.911440    1.420311
     63          6           0      -14.041302    1.347170    2.500124
     64          6           0      -13.507639    2.397279    3.596022
     65          6           0      -13.786061    1.908748    5.038605
     66          6           0      -12.020739    2.734265    3.311484
     67          1           0        2.817530    3.268945   -1.701753
     68          1           0        9.046136    3.714342    0.137829
     69          1           0        9.102601   -2.485236    1.499518
     70          1           0        1.360828   -1.126306   -1.819217
     71          1           0        1.063651    1.501509   -0.763713
     72          1           0        1.720353    1.722388   -3.633474
     73          1           0        0.314663    2.029220   -2.717774
     74          1           0        0.495533    0.422566   -3.298816
     75          1           0        1.117300   -0.406328    1.225288
     76          1           0        0.449058   -1.834203    0.414823
     77          1           0       -0.894323    0.366297   -0.676649
     78          1           0       -0.865201    0.588426    1.065565
     79          1           0        4.638346    6.472304   -1.094483
     80          1           0        3.416330    5.434564   -1.854103
     81          1           0        4.815092    5.946561   -2.779191
     82          1           0        6.453571    7.458843   -0.503689
     83          1           0        6.534807    7.074935   -2.236871
     84          1           0        7.933065    7.804111   -1.295215
     85          1           0       10.201019    2.302012    1.767731
     86          1           0       10.800446   -0.632168    1.509736
     87          1           0       10.933074    2.189039   -0.808303
     88          1           0       11.462529    0.546215   -0.427472
     89          1           0       12.160753    1.918448    0.424114
     90          1           0        9.055870   -0.094820    3.749493
     91          1           0       10.176233    1.228408    3.656810
     92          1           0       10.490947   -1.276804    4.844218
     93          1           0       11.881447   -0.217805    4.606311
     94          1           0       11.449354   -1.386219    3.380040
     95          1           0        7.975393   -5.162711    0.736577
     96          1           0        6.443556   -5.651615    1.559455
     97          1           0        7.674084   -4.508122    2.326202
     98          1           0        2.063360   -3.309073    0.582505
     99          1           0        0.609497   -5.131721   -3.031707
    100          1           0        0.152949   -3.393663   -3.034852
    101          1           0       -0.832729   -4.594462   -2.157594
    102          1           0       -3.106000   -3.378893    0.918866
    103          1           0       -2.757465   -4.107408   -0.601048
    104          1           0       -4.535259   -1.789670   -1.103400
    105          1           0       -6.527233   -4.986591    0.338600
    106          1           0       -4.838252   -5.151197    0.158737
    107          1           0       -5.805135   -5.637021   -1.211099
    108          1           0       -7.149951   -3.695182   -2.001157
    109          1           0       -6.218801   -2.246402   -2.284077
    110          1           0       -7.374201   -2.109202    0.413628
    111          1           0       -8.704927   -2.466631   -0.696848
    112          1           0       -7.034586   -0.262359   -1.626445
    113          1           0       -7.543073    0.044626    0.052368
    114          1           0       -9.690903   -1.032468   -1.907348
    115          1           0       -8.015306    1.056406   -3.071800
    116          1           0       -9.635330    1.667220   -2.731697
    117          1           0       -9.475899    0.160037   -3.528500
    118          1           0       -9.780034    1.550215   -0.286036
    119          1           0       -9.835857    0.006343    0.570834
    120          1           0      -11.940392   -0.175660    0.306106
    121          1           0      -11.764664   -0.420682   -1.431413
    122          1           0      -12.028186    1.473407   -2.167135
    123          1           0      -11.718609    2.413565   -0.805391
    124          1           0      -13.990216    0.565632   -0.326764
    125          1           0      -14.161564    2.085340   -2.830975
    126          1           0      -15.389198    2.593710   -1.638164
    127          1           0      -15.268174    0.935920   -2.100216
    128          1           0      -14.469761    3.497299   -0.061846
    129          1           0      -13.070825    2.853075    0.870108
    130          1           0      -15.601456    1.101603    1.151847
    131          1           0      -15.536447    2.677589    1.894856
    132          1           0      -13.194448    0.840247    2.035996
    133          1           0      -14.705798    0.676742    3.044995
    134          1           0      -14.135193    3.280899    3.477992
    135          1           0      -13.365378    2.625696    5.743415
    136          1           0      -13.173141    1.012558    5.132763
    137          1           0      -14.858421    1.788808    5.190040
    138          1           0      -11.376770    2.486572    4.155532
    139          1           0      -12.091895    3.820396    3.263891
    140          1           0      -11.656626    2.302003    2.379218
 ---------------------------------------------------------------------

 SCF Done:  E(RwB97XD) =  -3007.85552163     A.U. after   19 cycles

 Excitation energies and oscillator strengths:

 Excited State   1:      Singlet-A      1.6632 eV  745.45 nm  f=0.4061  <S**2>=0.000
     245 -> 248       -0.18032
     246 -> 247        0.68249
     245 <- 248       -0.11546
 This state for optimization and/or second-order correction.
 Total Energy, E(TD-HF/TD-DFT) =  -3007.79439949
 Copying the excited state density for this state as the 1-particle RhoCI density.

 Excited State   2:      Singlet-A      2.2204 eV  558.38 nm  f=0.0840  <S**2>=0.000
     245 -> 247        0.61795
     246 -> 248        0.32630

 Excited State   3:      Singlet-A      3.4730 eV  357.00 nm  f=0.3023  <S**2>=0.000
     241 -> 247        0.31502
     242 -> 247       -0.38399
     243 -> 247        0.10283
     245 -> 247       -0.19299
     246 -> 248        0.43094

 Excited State   4:      Singlet-A      3.5254 eV  351.69 nm  f=0.0282  <S**2>=0.000
     241 -> 247        0.35555
     241 -> 249       -0.21789
     241 -> 250       -0.20009
     242 -> 247        0.45023
     242 -> 249       -0.15909
     242 -> 250       -0.14187
     246 -> 248        0.11535

 Excited State   5:      Singlet-A      3.5632 eV  347.95 nm  f=0.2404  <S**2>=0.000
     241 -> 247        0.20476
     242 -> 247       -0.11331
     243 -> 247        0.39514
     244 -> 247        0.31629
     245 -> 247        0.17216
     246 -> 248       -0.34437

 The electronic state is 1-A.
 Alpha  occ. eigenvalues --  -46.94074 -19.30098 -19.29550 -19.25434 -19.24202
 Alpha  occ. eigenvalues --  -19.24179 -19.22730 -14.46884 -14.46801 -14.44177
 Alpha  occ. eigenvalues --  -14.44160 -10.44139 -10.42828 -10.39791 -10.37183
 Alpha  occ. eigenvalues --  -10.36533 -10.35445 -10.35322 -10.35186 -10.35088
 Alpha  occ. eigenvalues --  -10.34840 -10.34620 -10.33862 -10.33636 -10.33031
 Alpha  occ. eigenvalues --  -10.32897 -10.32829 -10.32581 -10.32562 -10.32287
 Alpha  occ. eigenvalues --  -10.31948 -10.31918 -10.31915 -10.31858 -10.31605
 Alpha  occ. eigenvalues --  -10.31460 -10.31391 -10.31382 -10.31328 -10.30899
 Alpha  occ. eigenvalues --  -10.30119 -10.30046 -10.29970 -10.29937 -10.29756
 Alpha  occ. eigenvalues --  -10.29683 -10.29487 -10.29437 -10.29268 -10.29240
 Alpha  occ. eigenvalues --  -10.29061 -10.29021 -10.28998 -10.28792 -10.28714
 Alpha  occ. eigenvalues --  -10.28582 -10.28332 -10.28319 -10.28278 -10.28201
 Alpha  occ. eigenvalues --  -10.28154 -10.28105 -10.28035 -10.27978 -10.27733
 Alpha  occ. eigenvalues --  -10.27618  -3.20329  -1.93919  -1.93473  -1.93316
 Alpha  occ. eigenvalues --   -1.17953  -1.17901  -1.12280  -1.09975  -1.09411
 Alpha  occ. eigenvalues --   -1.09043  -1.07755  -1.06595  -1.05687  -1.04678
 Alpha  occ. eigenvalues --   -0.95843  -0.92412  -0.92161  -0.91736  -0.91154
 Alpha  occ. eigenvalues --   -0.90495  -0.90264  -0.90146  -0.89428  -0.89173
 Alpha  occ. eigenvalues --   -0.88716  -0.87690  -0.86325  -0.85963  -0.85501
 Alpha  occ. eigenvalues --   -0.84488  -0.84254  -0.83938  -0.82955  -0.82408
 Alpha  occ. eigenvalues --   -0.81763  -0.80768  -0.80364  -0.79475  -0.78635
 Alpha  occ. eigenvalues --   -0.77837  -0.77383  -0.77320  -0.76837  -0.75760
 Alpha  occ. eigenvalues --   -0.75256  -0.74823  -0.74156  -0.73009  -0.71088
 Alpha  occ. eigenvalues --   -0.70645  -0.69691  -0.69143  -0.68218  -0.67869
 Alpha  occ. eigenvalues --   -0.67774  -0.67350  -0.66753  -0.66210  -0.65929
 Alpha  occ. eigenvalues --   -0.65377  -0.65058  -0.64258  -0.63690  -0.62483
 Alpha  occ. eigenvalues --   -0.61984  -0.61818  -0.61197  -0.60915  -0.60670
 Alpha  occ. eigenvalues --   -0.59935  -0.59195  -0.58365  -0.57642  -0.57582
 Alpha  occ. eigenvalues --   -0.57149  -0.56876  -0.56375  -0.56224  -0.56034
 Alpha  occ. eigenvalues --   -0.55681  -0.55391  -0.55127  -0.54800  -0.54755
 Alpha  occ. eigenvalues --   -0.54518  -0.54290  -0.53920  -0.53802  -0.53707
 Alpha  occ. eigenvalues --   -0.53506  -0.53314  -0.52957  -0.52843  -0.52766
 Alpha  occ. eigenvalues --   -0.52188  -0.52150  -0.51974  -0.51869  -0.51632
 Alpha  occ. eigenvalues --   -0.51522  -0.51270  -0.51090  -0.51026  -0.50953
 Alpha  occ. eigenvalues --   -0.50628  -0.50381  -0.50241  -0.50174  -0.50082
 Alpha  occ. eigenvalues --   -0.49857  -0.49280  -0.49162  -0.49002  -0.48944
 Alpha  occ. eigenvalues --   -0.48656  -0.48551  -0.48324  -0.48178  -0.47830
 Alpha  occ. eigenvalues --   -0.47763  -0.47551  -0.47431  -0.47181  -0.47090
 Alpha  occ. eigenvalues --   -0.46893  -0.46695  -0.46675  -0.46472  -0.46396
 Alpha  occ. eigenvalues --   -0.46216  -0.45696  -0.45562  -0.45450  -0.45066
 Alpha  occ. eigenvalues --   -0.44913  -0.44818  -0.44577  -0.43886  -0.43552
 Alpha  occ. eigenvalues --   -0.43499  -0.43303  -0.43155  -0.43091  -0.42936
 Alpha  occ. eigenvalues --   -0.42812  -0.42723  -0.42466  -0.42391  -0.42279
 Alpha  occ. eigenvalues --   -0.41568  -0.41404  -0.41297  -0.40991  -0.40816
 Alpha  occ. eigenvalues --   -0.40389  -0.40326  -0.39919  -0.39539  -0.39330
 Alpha  occ. eigenvalues --   -0.39231  -0.38671  -0.38453  -0.38150  -0.37905
 Alpha  occ. eigenvalues --   -0.37509  -0.36720  -0.36699  -0.36264  -0.36137
 Alpha  occ. eigenvalues --   -0.36088  -0.35437  -0.34667  -0.33585  -0.33367
 Alpha  occ. eigenvalues --   -0.32502  -0.32389  -0.31883  -0.31878  -0.26323
 Alpha  occ. eigenvalues --   -0.22898
 Alpha virt. eigenvalues --   -0.07044  -0.00074   0.02220   0.04177   0.05849
 Alpha virt. eigenvalues --    0.06706   0.07256   0.08092   0.08327   0.09119
 Alpha virt. eigenvalues --    0.10215   0.11067   0.11623   0.12404   0.12719

 Mulliken charges:
               1
     1  Mg   1.000147
     2  C   -0.056836
     3  C   -0.090336
     4  C   -0.107244
     5  C   -0.098087
     6  N   -0.280205
     7  C   -0.020181
     8  C   -0.110543
     9  C   -0.108139
    10  C    0.018012
    11  C    0.021316
    12  C    0.016317
    13  C    0.004555
    14  C    0.194549
    15  O   -0.252134
    16  O   -0.384284
    17  N   -0.466664
    18  C    0.201019
    19  C   -0.171049
    20  C   -0.091854
    21  C    0.181300
    22  C    0.068841
    23  C    0.076579
    24  O   -0.280903
    25  C   -0.005335
    26  N   -0.411870
    27  C    0.100208
    28  C   -0.119837
    29  C   -0.089467
    30  C    0.069064
    31  C    0.010968
    32  C    0.023283
    33  C   -0.051335
    34  N   -0.434339
    35  C    0.124562
    36  C   -0.153446
    37  C   -0.048983
    38  C    0.170100
    39  C    0.068966
    40  C    0.042562
    41  O   -0.202094
    42  C    0.030375
    43  C    0.248721
    44  O   -0.249269
    45  O   -0.378889
    46  C    0.152976
    47  C    0.275062
    48  C   -0.111250
    49  C   -0.280443
    50  C    0.040146
    51  C    0.034019
    52  C    0.001955
    53  C    0.009365
    54  C   -0.207374
    55  C   -0.015576
    56  C    0.031042
    57  C   -0.045650
    58  C    0.009652
    59  C   -0.181633
    60  C    0.034684
    61  C    0.036169
    62  C   -0.035021
    63  C   -0.017504
    64  C   -0.220653
    65  C   -0.008696
    66  C    0.001669
    67  H   -0.011568
    68  H    0.034146
    69  H    0.009713
    70  H    0.050674
    71  H    0.044215
    72  H    0.053390
    73  H    0.025052
    74  H    0.042594
    75  H    0.042154
    76  H    0.063435
    77  H    0.056726
    78  H    0.054168
    79  H    0.039501
    80  H    0.037632
    81  H    0.065369
    82  H    0.062158
    83  H    0.062353
    84  H    0.052916
    85  H    0.047581
    86  H    0.032055
    87  H    0.045045
    88  H    0.037998
    89  H    0.043351
    90  H    0.029027
    91  H    0.033558
    92  H    0.036392
    93  H    0.044238
    94  H    0.018885
    95  H    0.055031
    96  H    0.068860
    97  H    0.042190
    98  H    0.070060
    99  H    0.058834
   100  H    0.052020
   101  H    0.048968
   102  H    0.056830
   103  H    0.055241
   104  H    0.013851
   105  H    0.051853
   106  H    0.004802
   107  H    0.051678
   108  H    0.008145
   109  H    0.020583
   110  H    0.026726
   111  H    0.027977
   112  H    0.007247
   113  H    0.035201
   114  H    0.025063
   115  H    0.040261
   116  H    0.020373
   117  H    0.018255
   118  H    0.027101
   119  H    0.015276
   120  H    0.026244
   121  H    0.020326
   122  H    0.001618
   123  H    0.007178
   124  H    0.023261
   125  H    0.031513
   126  H    0.013939
   127  H    0.019177
   128  H    0.020409
   129  H    0.008109
   130  H    0.025926
   131  H    0.004706
   132  H    0.006044
   133  H    0.005715
   134  H    0.016598
   135  H    0.027752
   136  H    0.030429
   137  H    0.041728
   138  H    0.027271
   139  H    0.031737
   140  H    0.044072
 Sum of Mulliken charges =  -0.00000

 Dipole moment (field-independent basis, Debye):
    X=             -1.7120    Y=              3.7056    Z=             -0.2577  Tot=              4.0901
 Quadrupole moment (field-independent basis, Debye-Ang):
   XX=           -386.3495   YY=           -413.1319   ZZ=           -401.1754
   XY=              6.1704   XZ=             24.0549   YZ=             -6.4280

 Normal termination of Gaussian 16 at Thu May  5 15:23:26 2022.
