 Gaussian 16, Revision A.03,
 Gaussian 16:  ES64L-G16RevA.03 25-Dec-2016

 --------------------
 #p ZINDO=(nstates=5)
 --------------------

 -----------------------------
 step_951_chromophore_16 ZINDO
 -----------------------------
 Symbolic Z-matrix:
 Charge =  0 Multiplicity = 1

                         Standard orientation:
 ---------------------------------------------------------------------
 Center     Atomic      Atomic             Coordinates (Angstroms)
 Number     Number       Type             X           Y           Z
 ---------------------------------------------------------------------
      1         12           0        5.966795    0.478654    0.148653
      2          6           0        3.588754   -2.011586   -0.140273
      3          6           0        3.637474    2.647320   -1.336300
      4          6           0        8.307701    2.914859    0.048192
      5          6           0        8.249222   -1.843883    1.268210
      6          7           0        3.847271    0.310278   -0.657674
      7          6           0        3.107757   -0.731622   -0.491196
      8          6           0        1.629235   -0.540301   -0.940342
      9          6           0        1.667910    0.945606   -1.479449
     10          6           0        3.154620    1.342899   -1.220761
     11          6           0        1.065447    1.259150   -2.895641
     12          6           0        0.648123   -0.767318    0.310034
     13          6           0       -0.705773   -0.139165    0.271098
     14          6           0       -1.957948   -1.047176    0.584363
     15          8           0       -2.818752   -0.936550    1.455687
     16          8           0       -2.023067   -2.099497   -0.316519
     17          7           0        5.955839    2.479836   -0.414944
     18          6           0        4.918048    3.183028   -0.975372
     19          6           0        5.328189    4.537046   -1.163188
     20          6           0        6.698120    4.616872   -0.767419
     21          6           0        7.059417    3.288201   -0.298119
     22          6           0        4.484750    5.643446   -1.785458
     23          6           0        7.635668    5.837776   -0.786567
     24          8           0        8.836751    5.833402   -0.359707
     25          6           0        7.099987    7.101190   -1.305754
     26          7           0        7.921125    0.539164    0.634738
     27          6           0        8.698543    1.620488    0.527065
     28          6           0       10.080097    1.452472    1.096395
     29          6           0        9.988319    0.011888    1.845516
     30          6           0        8.624190   -0.498167    1.269994
     31          6           0       11.237718    1.522983   -0.000816
     32          6           0       10.042683    0.182910    3.378823
     33          6           0       11.034225   -0.686944    4.106591
     34          7           0        6.019636   -1.512157    0.398939
     35          6           0        6.979271   -2.374966    0.831185
     36          6           0        6.496855   -3.745028    0.948972
     37          6           0        5.129311   -3.604994    0.501112
     38          6           0        4.927717   -2.215478    0.197663
     39          6           0        7.181571   -4.861867    1.419721
     40          6           0        3.906266   -4.297520    0.332307
     41          8           0        3.632313   -5.458407    0.528898
     42          6           0        2.893572   -3.346489   -0.122538
     43          6           0        2.314209   -3.841485   -1.377531
     44          8           0        2.851345   -3.832801   -2.475494
     45          8           0        0.995062   -4.203832   -1.232699
     46          6           0        0.178417   -4.315526   -2.452452
     47          6           0       -3.038999   -3.157971   -0.146887
     48          6           0       -4.393430   -2.794869   -0.704282
     49          6           0       -5.498240   -3.511938   -0.887233
     50          6           0       -5.736168   -4.905516   -0.407350
     51          6           0       -6.715071   -2.826617   -1.506199
     52          6           0       -7.708658   -2.031587   -0.620117
     53          6           0       -7.784471   -0.488533   -0.867833
     54          6           0       -9.241513   -0.139015   -1.474479
     55          6           0       -9.017173    0.769426   -2.750747
     56          6           0      -10.056570    0.499205   -0.376031
     57          6           0      -11.564847    0.272398   -0.613664
     58          6           0      -12.235000    1.499599   -1.096909
     59          6           0      -13.774390    1.561849   -0.712178
     60          6           0      -14.665355    1.822180   -1.900961
     61          6           0      -14.001931    2.607757    0.358204
     62          6           0      -14.923707    1.911440    1.420311
     63          6           0      -14.041302    1.347170    2.500124
     64          6           0      -13.507639    2.397279    3.596022
     65          6           0      -13.786061    1.908748    5.038605
     66          6           0      -12.020739    2.734265    3.311484
     67          1           0        2.817530    3.268945   -1.701753
     68          1           0        9.046136    3.714342    0.137829
     69          1           0        9.102601   -2.485236    1.499518
     70          1           0        1.360828   -1.126306   -1.819217
     71          1           0        1.063651    1.501509   -0.763713
     72          1           0        1.720353    1.722388   -3.633474
     73          1           0        0.314663    2.029220   -2.717774
     74          1           0        0.495533    0.422566   -3.298816
     75          1           0        1.117300   -0.406328    1.225288
     76          1           0        0.449058   -1.834203    0.414823
     77          1           0       -0.894323    0.366297   -0.676649
     78          1           0       -0.865201    0.588426    1.065565
     79          1           0        4.638346    6.472304   -1.094483
     80          1           0        3.416330    5.434564   -1.854103
     81          1           0        4.815092    5.946561   -2.779191
     82          1           0        6.453571    7.458843   -0.503689
     83          1           0        6.534807    7.074935   -2.236871
     84          1           0        7.933065    7.804111   -1.295215
     85          1           0       10.201019    2.302012    1.767731
     86          1           0       10.800446   -0.632168    1.509736
     87          1           0       10.933074    2.189039   -0.808303
     88          1           0       11.462529    0.546215   -0.427472
     89          1           0       12.160753    1.918448    0.424114
     90          1           0        9.055870   -0.094820    3.749493
     91          1           0       10.176233    1.228408    3.656810
     92          1           0       10.490947   -1.276804    4.844218
     93          1           0       11.881447   -0.217805    4.606311
     94          1           0       11.449354   -1.386219    3.380040
     95          1           0        7.975393   -5.162711    0.736577
     96          1           0        6.443556   -5.651615    1.559455
     97          1           0        7.674084   -4.508122    2.326202
     98          1           0        2.063360   -3.309073    0.582505
     99          1           0        0.609497   -5.131721   -3.031707
    100          1           0        0.152949   -3.393663   -3.034852
    101          1           0       -0.832729   -4.594462   -2.157594
    102          1           0       -3.106000   -3.378893    0.918866
    103          1           0       -2.757465   -4.107408   -0.601048
    104          1           0       -4.535259   -1.789670   -1.103400
    105          1           0       -6.527233   -4.986591    0.338600
    106          1           0       -4.838252   -5.151197    0.158737
    107          1           0       -5.805135   -5.637021   -1.211099
    108          1           0       -7.149951   -3.695182   -2.001157
    109          1           0       -6.218801   -2.246402   -2.284077
    110          1           0       -7.374201   -2.109202    0.413628
    111          1           0       -8.704927   -2.466631   -0.696848
    112          1           0       -7.034586   -0.262359   -1.626445
    113          1           0       -7.543073    0.044626    0.052368
    114          1           0       -9.690903   -1.032468   -1.907348
    115          1           0       -8.015306    1.056406   -3.071800
    116          1           0       -9.635330    1.667220   -2.731697
    117          1           0       -9.475899    0.160037   -3.528500
    118          1           0       -9.780034    1.550215   -0.286036
    119          1           0       -9.835857    0.006343    0.570834
    120          1           0      -11.940392   -0.175660    0.306106
    121          1           0      -11.764664   -0.420682   -1.431413
    122          1           0      -12.028186    1.473407   -2.167135
    123          1           0      -11.718609    2.413565   -0.805391
    124          1           0      -13.990216    0.565632   -0.326764
    125          1           0      -14.161564    2.085340   -2.830975
    126          1           0      -15.389198    2.593710   -1.638164
    127          1           0      -15.268174    0.935920   -2.100216
    128          1           0      -14.469761    3.497299   -0.061846
    129          1           0      -13.070825    2.853075    0.870108
    130          1           0      -15.601456    1.101603    1.151847
    131          1           0      -15.536447    2.677589    1.894856
    132          1           0      -13.194448    0.840247    2.035996
    133          1           0      -14.705798    0.676742    3.044995
    134          1           0      -14.135193    3.280899    3.477992
    135          1           0      -13.365378    2.625696    5.743415
    136          1           0      -13.173141    1.012558    5.132763
    137          1           0      -14.858421    1.788808    5.190040
    138          1           0      -11.376770    2.486572    4.155532
    139          1           0      -12.091895    3.820396    3.263891
    140          1           0      -11.656626    2.302003    2.379218
 ---------------------------------------------------------------------

 SCF Done:  E(RZINDO/S) =  -474.549067065     A.U. after   20 cycles

 Excitation energies and oscillator strengths:

 Excited State   1:      Singlet-A      1.2731 eV  973.88 nm  f=0.6192  <S**2>=0.000
     175 ->178         0.19535
     176 ->177         0.66177
 This state for optimization and/or second-order correction.
 Total Energy, E(CIS/TDA) =  -474.502281816
 Copying the excited state density for this state as the 1-particle RhoCI density.

 Excited State   2:      Singlet-A      1.9094 eV  649.34 nm  f=0.0441  <S**2>=0.000
     175 ->177         0.53702
     176 ->178        -0.43537

 Excited State   3:      Singlet-A      2.9118 eV  425.80 nm  f=0.0014  <S**2>=0.000
     170 ->177         0.37393
     170 ->179         0.30805
     170 ->180        -0.33708
     170 ->185         0.18365
     170 ->187        -0.16655
     170 ->200        -0.10968

 Excited State   4:      Singlet-A      2.9428 eV  421.32 nm  f=0.0024  <S**2>=0.000
     167 ->179        -0.13226
     168 ->177         0.32635
     168 ->179        -0.40306
     168 ->180        -0.30101
     168 ->185        -0.21250

 Excited State   5:      Singlet-A      3.0177 eV  410.86 nm  f=0.5925  <S**2>=0.000
     175 ->177        -0.28425
     176 ->178        -0.36458
     176 ->179         0.46565
     176 ->180        -0.13802

 The electronic state is 1-A.
 Alpha  occ. eigenvalues --   -1.86731  -1.81804  -1.80534  -1.73687  -1.71800
 Alpha  occ. eigenvalues --   -1.70297  -1.68156  -1.61811  -1.61185  -1.57078
 Alpha  occ. eigenvalues --   -1.55204  -1.50890  -1.49023  -1.48247  -1.46998
 Alpha  occ. eigenvalues --   -1.44303  -1.43591  -1.41385  -1.39443  -1.38854
 Alpha  occ. eigenvalues --   -1.36988  -1.36290  -1.32812  -1.31608  -1.29113
 Alpha  occ. eigenvalues --   -1.27359  -1.25185  -1.21890  -1.20701  -1.19012
 Alpha  occ. eigenvalues --   -1.18222  -1.16476  -1.16239  -1.15483  -1.13038
 Alpha  occ. eigenvalues --   -1.12374  -1.11224  -1.09507  -1.05376  -1.04342
 Alpha  occ. eigenvalues --   -1.02525  -1.01915  -0.99180  -0.97392  -0.96810
 Alpha  occ. eigenvalues --   -0.96453  -0.94634  -0.94047  -0.92825  -0.92668
 Alpha  occ. eigenvalues --   -0.90860  -0.90717  -0.90195  -0.88881  -0.86376
 Alpha  occ. eigenvalues --   -0.85871  -0.83735  -0.82928  -0.81958  -0.79982
 Alpha  occ. eigenvalues --   -0.79643  -0.79146  -0.77498  -0.77317  -0.76523
 Alpha  occ. eigenvalues --   -0.76183  -0.75678  -0.74771  -0.73888  -0.73595
 Alpha  occ. eigenvalues --   -0.72553  -0.72173  -0.71017  -0.70279  -0.69935
 Alpha  occ. eigenvalues --   -0.69849  -0.69420  -0.68667  -0.68476  -0.67688
 Alpha  occ. eigenvalues --   -0.67501  -0.67248  -0.67046  -0.66561  -0.66060
 Alpha  occ. eigenvalues --   -0.65425  -0.65264  -0.64136  -0.63552  -0.63526
 Alpha  occ. eigenvalues --   -0.63035  -0.62697  -0.62286  -0.61840  -0.61468
 Alpha  occ. eigenvalues --   -0.61143  -0.60779  -0.60471  -0.60244  -0.60073
 Alpha  occ. eigenvalues --   -0.59827  -0.59131  -0.59078  -0.58963  -0.58218
 Alpha  occ. eigenvalues --   -0.57945  -0.57878  -0.57727  -0.57332  -0.57210
 Alpha  occ. eigenvalues --   -0.56994  -0.56430  -0.56299  -0.55454  -0.55027
 Alpha  occ. eigenvalues --   -0.54998  -0.54673  -0.54034  -0.53413  -0.53055
 Alpha  occ. eigenvalues --   -0.52560  -0.51789  -0.51569  -0.51302  -0.51123
 Alpha  occ. eigenvalues --   -0.50910  -0.50691  -0.50494  -0.50314  -0.50025
 Alpha  occ. eigenvalues --   -0.49836  -0.49732  -0.49554  -0.49423  -0.49000
 Alpha  occ. eigenvalues --   -0.48916  -0.48468  -0.48377  -0.48088  -0.47764
 Alpha  occ. eigenvalues --   -0.47411  -0.47178  -0.47061  -0.46452  -0.46347
 Alpha  occ. eigenvalues --   -0.46083  -0.45873  -0.45637  -0.45523  -0.45058
 Alpha  occ. eigenvalues --   -0.45002  -0.44608  -0.43896  -0.43695  -0.43562
 Alpha  occ. eigenvalues --   -0.43289  -0.42745  -0.42555  -0.41895  -0.41475
 Alpha  occ. eigenvalues --   -0.41391  -0.41108  -0.40126  -0.39409  -0.39144
 Alpha  occ. eigenvalues --   -0.38202  -0.37021  -0.35580  -0.35071  -0.34079
 Alpha  occ. eigenvalues --   -0.33696  -0.32833  -0.31966  -0.31906  -0.26741
 Alpha  occ. eigenvalues --   -0.21983
 Alpha virt. eigenvalues --   -0.08649  -0.02341  -0.00815   0.01125   0.01743
 Alpha virt. eigenvalues --    0.02614   0.02786   0.02983   0.04437   0.05678
 Alpha virt. eigenvalues --    0.06223   0.06947   0.07051   0.07639   0.08138

 Mulliken charges:
               1
     1  Mg   0.423707
     2  C   -0.052164
     3  C   -0.078418
     4  C   -0.067563
     5  C   -0.067818
     6  N   -0.258872
     7  C    0.131940
     8  C   -0.011442
     9  C   -0.005318
    10  C    0.116270
    11  C   -0.051570
    12  C   -0.017213
    13  C    0.011510
    14  C    0.458368
    15  O   -0.507574
    16  O   -0.287744
    17  N   -0.333741
    18  C    0.121161
    19  C    0.013531
    20  C   -0.053628
    21  C    0.145908
    22  C   -0.045585
    23  C    0.330229
    24  O   -0.547398
    25  C   -0.029835
    26  N   -0.259443
    27  C    0.166190
    28  C   -0.007713
    29  C   -0.001236
    30  C    0.091478
    31  C   -0.051347
    32  C   -0.021134
    33  C   -0.055780
    34  N   -0.297282
    35  C    0.074535
    36  C    0.044996
    37  C   -0.087744
    38  C    0.113939
    39  C   -0.025630
    40  C    0.347550
    41  O   -0.542399
    42  C    0.072254
    43  C    0.499481
    44  O   -0.528488
    45  O   -0.279622
    46  C    0.078552
    47  C    0.114704
    48  C   -0.077203
    49  C   -0.012536
    50  C   -0.044863
    51  C   -0.029904
    52  C   -0.028874
    53  C   -0.046268
    54  C   -0.013934
    55  C   -0.069810
    56  C   -0.027486
    57  C   -0.034484
    58  C   -0.039464
    59  C   -0.008827
    60  C   -0.055527
    61  C   -0.031226
    62  C   -0.039590
    63  C   -0.042015
    64  C   -0.022525
    65  C   -0.056981
    66  C   -0.060477
    67  H    0.026198
    68  H    0.057100
    69  H    0.029411
    70  H    0.045065
    71  H    0.025227
    72  H    0.033012
    73  H    0.009345
    74  H    0.027786
    75  H    0.029718
    76  H    0.031019
    77  H    0.043790
    78  H    0.033803
    79  H    0.027415
    80  H    0.023901
    81  H    0.035257
    82  H    0.040938
    83  H    0.044223
    84  H    0.036579
    85  H    0.039363
    86  H    0.033569
    87  H    0.025972
    88  H    0.023641
    89  H    0.021772
    90  H    0.017990
    91  H    0.023244
    92  H    0.016772
    93  H    0.024605
    94  H    0.014756
    95  H    0.037467
    96  H    0.040937
    97  H    0.031216
    98  H    0.051713
    99  H    0.047470
   100  H    0.042600
   101  H    0.032500
   102  H    0.050703
   103  H    0.042942
   104  H    0.028084
   105  H    0.032951
   106  H    0.006924
   107  H    0.033016
   108  H    0.014579
   109  H    0.022052
   110  H    0.018309
   111  H    0.022817
   112  H    0.018286
   113  H    0.029783
   114  H    0.030194
   115  H    0.029762
   116  H    0.014308
   117  H    0.008525
   118  H    0.026723
   119  H    0.011485
   120  H    0.017634
   121  H    0.018043
   122  H    0.011888
   123  H    0.015020
   124  H    0.023978
   125  H    0.023071
   126  H    0.015761
   127  H    0.010283
   128  H    0.022279
   129  H    0.025790
   130  H    0.026451
   131  H    0.006028
   132  H    0.025116
   133  H    0.006509
   134  H    0.016531
   135  H    0.014103
   136  H    0.020850
   137  H    0.026092
   138  H    0.021833
   139  H    0.015729
   140  H    0.029588
 Sum of Mulliken charges =  -0.00000

 Dipole moment (field-independent basis, Debye):
    X=             -1.8895    Y=              5.8736    Z=             -0.5263  Tot=              6.1925
 N-N= 4.263180376714D+03 E-N= 0.000000000000D+00  KE=-9.200897163761D+03
 Leave Link  601 at Thu May  5 15:40:00 2022, MaxMem=  6710886400 cpu:               1.7 elap:               0.1
 (Enter /sw/apps/gaussian-16.0/g16/l9999.exe)
 1\1\GINC-BP1-COMPUTE183\SP\RZINDO CIS\STO-3G\C55H74Mg1N4O6\OF15641\05-
 May-2022\0\\#p ZINDO=(nstates=5)\\step_951_chromophore_16 ZINDO\\0,1\M
 g,0,40.55,41.085,27.467\C,0,39.814,43.173,30.12\C,0,41.745,38.777,29.8
 29\C,0,41.639,39.094,24.962\C,0,39.666,43.583,25.268\N,0,40.76,41.01,2
 9.73\C,0,40.242,41.888,30.518\C,0,40.332,41.519,32.028\C,0,41.104,40.1
 41,31.956\C,0,41.296,39.96,30.418\C,0,42.356,39.919,32.878\C,0,38.856,
 41.421,32.652\C,0,38.659,40.592,33.878\C,0,37.895,41.237,35.099\O,0,36

 Normal termination of Gaussian 16 at Thu May  5 15:40:00 2022.
