 Gaussian 16, Revision A.03,
 Gaussian 16:  ES64L-G16RevA.03 25-Dec-2016

 ------------------------------
 #p blyp/Def2SVP td=(nstates=5)
 ------------------------------

 --------------------------------------------------
 step_1251_chromophore_2 TDDFT with blyp functional
 --------------------------------------------------
 Symbolic Z-matrix:
 Charge =  0 Multiplicity = 1

                         Standard orientation:
 ---------------------------------------------------------------------
 Center     Atomic      Atomic             Coordinates (Angstroms)
 Number     Number       Type             X           Y           Z
 ---------------------------------------------------------------------
      1         12           0       -4.499042    1.262335    0.418527
      2          6           0       -5.100385   -2.149433    0.267682
      3          6           0       -2.247401    0.729428    3.024872
      4          6           0       -3.376256    4.480389    0.077747
      5          6           0       -6.673552    1.748678   -2.220479
      6          7           0       -3.692604   -0.494635    1.486836
      7          6           0       -4.054319   -1.824207    1.134423
      8          6           0       -3.349458   -2.859897    2.092387
      9          6           0       -2.520932   -1.862373    3.050387
     10          6           0       -2.870256   -0.420612    2.564269
     11          6           0       -2.911889   -2.095751    4.595373
     12          6           0       -2.525127   -3.918011    1.258064
     13          6           0       -1.780064   -3.278465    0.010557
     14          6           0       -0.370736   -3.899331   -0.170576
     15          8           0        0.378725   -4.392010    0.657311
     16          8           0       -0.175208   -4.009246   -1.531631
     17          7           0       -3.011751    2.459620    1.437195
     18          6           0       -2.229746    2.054422    2.514337
     19          6           0       -1.446492    3.150354    3.001368
     20          6           0       -1.753657    4.254869    2.065383
     21          6           0       -2.718219    3.757886    1.097480
     22          6           0       -0.391150    2.956172    4.168557
     23          6           0       -1.102191    5.572551    2.093928
     24          8           0       -0.401361    5.921334    3.041954
     25          6           0       -1.168554    6.563452    0.949724
     26          7           0       -4.872869    2.839928   -1.008993
     27          6           0       -4.425697    4.103472   -0.767482
     28          6           0       -5.247347    5.166567   -1.490059
     29          6           0       -6.283343    4.240021   -2.339525
     30          6           0       -5.998213    2.917726   -1.795176
     31          6           0       -5.808589    6.235628   -0.529391
     32          6           0       -6.221225    4.402547   -3.835661
     33          6           0       -7.569889    4.363656   -4.601127
     34          7           0       -5.579234    0.143357   -0.778902
     35          6           0       -6.478838    0.454772   -1.809492
     36          6           0       -6.980542   -0.774169   -2.465367
     37          6           0       -6.552246   -1.767121   -1.628331
     38          6           0       -5.603652   -1.211657   -0.699338
     39          6           0       -7.941721   -0.782848   -3.619918
     40          6           0       -6.680142   -3.170084   -1.357364
     41          8           0       -7.341592   -3.988896   -2.013678
     42          6           0       -5.706948   -3.513104   -0.116989
     43          6           0       -6.424344   -4.206566    0.973643
     44          8           0       -6.524222   -5.420709    1.022477
     45          8           0       -6.879175   -3.329163    1.941899
     46          6           0       -7.758867   -3.970475    2.953591
     47          6           0        0.923520   -4.908713   -1.939959
     48          6           0        2.199303   -4.061287   -2.244574
     49          6           0        3.359224   -4.001238   -1.616495
     50          6           0        3.839023   -4.937913   -0.470464
     51          6           0        4.459051   -3.046060   -2.001725
     52          6           0        4.594282   -1.800710   -0.993082
     53          6           0        6.026470   -1.486493   -0.697720
     54          6           0        6.402722    0.012884   -0.476762
     55          6           0        6.575162    0.719204   -1.880421
     56          6           0        7.496957    0.256606    0.606827
     57          6           0        8.882517    0.008769    0.147966
     58          6           0        9.842794    1.176247    0.495702
     59          6           0       11.061771    0.688483    1.288476
     60          6           0       10.772421    0.875807    2.802225
     61          6           0       12.384913    1.424621    0.813218
     62          6           0       13.289874    0.440407    0.097998
     63          6           0       14.676147    1.056377   -0.369518
     64          6           0       15.330551    0.282906   -1.525594
     65          6           0       16.828642    0.047938   -1.464305
     66          6           0       14.847602    0.885281   -2.845803
     67          1           0       -1.581807    0.608907    3.882227
     68          1           0       -3.180498    5.555010    0.107415
     69          1           0       -7.413853    1.818731   -3.020276
     70          1           0       -4.204593   -3.390723    2.508053
     71          1           0       -1.459167   -1.982046    2.837868
     72          1           0       -3.914837   -1.745324    4.838261
     73          1           0       -2.207620   -1.555957    5.227885
     74          1           0       -3.072934   -3.149663    4.823789
     75          1           0       -3.266651   -4.551927    0.771573
     76          1           0       -1.925673   -4.415249    2.020126
     77          1           0       -1.468842   -2.260356    0.243446
     78          1           0       -2.312347   -3.270321   -0.940885
     79          1           0        0.134820    3.830779    4.550911
     80          1           0        0.344345    2.241680    3.797907
     81          1           0       -1.004481    2.489553    4.939296
     82          1           0       -2.144647    7.042961    0.869191
     83          1           0       -0.981096    6.033719    0.015903
     84          1           0       -0.358266    7.285657    1.048494
     85          1           0       -4.521325    5.613254   -2.169308
     86          1           0       -7.303939    4.416989   -1.999650
     87          1           0       -6.838506    6.321735   -0.874750
     88          1           0       -5.317039    7.196223   -0.685385
     89          1           0       -5.769238    5.861443    0.494554
     90          1           0       -5.551588    3.648867   -4.250003
     91          1           0       -5.775199    5.392115   -3.936800
     92          1           0       -8.450524    4.200158   -3.979183
     93          1           0       -7.390578    3.528061   -5.277709
     94          1           0       -7.767542    5.258772   -5.189628
     95          1           0       -7.496704   -0.937002   -4.603664
     96          1           0       -8.684006    0.015960   -3.623107
     97          1           0       -8.646977   -1.612927   -3.564610
     98          1           0       -5.027304   -4.253320   -0.540364
     99          1           0       -8.762185   -3.600154    2.741040
    100          1           0       -7.520477   -3.565171    3.937498
    101          1           0       -7.662699   -5.052431    3.044006
    102          1           0        0.563499   -5.491172   -2.788061
    103          1           0        1.262149   -5.476790   -1.073156
    104          1           0        1.983948   -3.343630   -3.036817
    105          1           0        4.047896   -4.330787    0.410131
    106          1           0        4.638072   -5.645899   -0.689154
    107          1           0        3.080144   -5.667090   -0.184123
    108          1           0        4.284743   -2.682595   -3.014589
    109          1           0        5.412939   -3.572976   -2.049335
    110          1           0        3.948324   -2.028919   -0.145484
    111          1           0        4.077163   -0.898126   -1.321585
    112          1           0        6.662823   -1.946787   -1.454500
    113          1           0        6.277814   -2.052166    0.198958
    114          1           0        5.457783    0.435144   -0.135605
    115          1           0        7.416294    1.410879   -1.850220
    116          1           0        5.660959    1.278899   -2.078532
    117          1           0        6.693661    0.022030   -2.710332
    118          1           0        7.279987   -0.471719    1.387655
    119          1           0        7.217482    1.250058    0.957142
    120          1           0        8.794418   -0.094686   -0.933154
    121          1           0        9.223587   -0.947830    0.544330
    122          1           0        9.286746    1.931243    1.051249
    123          1           0       10.112761    1.644611   -0.450697
    124          1           0       11.170778   -0.394359    1.229829
    125          1           0        9.727700    1.004474    3.083568
    126          1           0       11.274920    1.777986    3.152178
    127          1           0       11.227615    0.020217    3.301438
    128          1           0       12.975507    1.843674    1.628160
    129          1           0       12.150096    2.220701    0.106562
    130          1           0       12.758961   -0.064732   -0.708501
    131          1           0       13.504054   -0.415022    0.738390
    132          1           0       15.442588    1.041144    0.405773
    133          1           0       14.528914    2.072008   -0.734711
    134          1           0       14.898946   -0.717452   -1.479360
    135          1           0       17.413304    0.902438   -1.123616
    136          1           0       17.197745   -0.057760   -2.484288
    137          1           0       17.115824   -0.892347   -0.993725
    138          1           0       15.354347    1.791251   -3.178420
    139          1           0       13.782239    0.938921   -3.068149
    140          1           0       15.097867    0.063168   -3.516233
 ---------------------------------------------------------------------

 SCF Done:  E(RB-LYP) =  -3007.39238468     A.U. after   22 cycles

 Excitation energies and oscillator strengths:

 Excited State   1:      Singlet-A      1.5204 eV  815.47 nm  f=0.0001  <S**2>=0.000
     245 -> 247        0.70578
 This state for optimization and/or second-order correction.
 Total Energy, E(TD-HF/TD-DFT) =  -3007.33651086
 Copying the excited state density for this state as the 1-particle RhoCI density.

 Excited State   2:      Singlet-A      1.7809 eV  696.19 nm  f=0.2896  <S**2>=0.000
     244 -> 248        0.18781
     246 -> 247        0.69119
     246 <- 247       -0.15493

 Excited State   3:      Singlet-A      1.9947 eV  621.58 nm  f=0.0590  <S**2>=0.000
     242 -> 247        0.11293
     243 -> 247       -0.23640
     244 -> 247        0.60551
     246 -> 248       -0.23272

 Excited State   4:      Singlet-A      2.0342 eV  609.50 nm  f=0.0082  <S**2>=0.000
     243 -> 247        0.66514
     244 -> 247        0.20895

 Excited State   5:      Singlet-A      2.2813 eV  543.47 nm  f=0.0120  <S**2>=0.000
     242 -> 247        0.68429

 The electronic state is 1-A.
 Alpha  occ. eigenvalues --  -46.27064 -18.82794 -18.81397 -18.77144 -18.76784
 Alpha  occ. eigenvalues --  -18.76596 -18.74223 -14.03575 -14.03548 -14.01651
 Alpha  occ. eigenvalues --  -14.00898 -10.04101 -10.04015 -10.00496  -9.98664
 Alpha  occ. eigenvalues --   -9.98047  -9.97388  -9.97169  -9.96917  -9.96778
 Alpha  occ. eigenvalues --   -9.96690  -9.95997  -9.95969  -9.95610  -9.95539
 Alpha  occ. eigenvalues --   -9.95070  -9.95016  -9.94536  -9.94486  -9.94440
 Alpha  occ. eigenvalues --   -9.94418  -9.94240  -9.94180  -9.94039  -9.93785
 Alpha  occ. eigenvalues --   -9.93451  -9.93323  -9.93009  -9.92998  -9.92991
 Alpha  occ. eigenvalues --   -9.92975  -9.92898  -9.92810  -9.92794  -9.92585
 Alpha  occ. eigenvalues --   -9.92511  -9.91839  -9.91754  -9.91555  -9.91545
 Alpha  occ. eigenvalues --   -9.91519  -9.91467  -9.91436  -9.91411  -9.91354
 Alpha  occ. eigenvalues --   -9.90939  -9.90889  -9.90812  -9.90734  -9.90564
 Alpha  occ. eigenvalues --   -9.90558  -9.90503  -9.90466  -9.90413  -9.90388
 Alpha  occ. eigenvalues --   -9.90385  -2.91791  -1.72210  -1.71671  -1.71511
 Alpha  occ. eigenvalues --   -0.97672  -0.97244  -0.91106  -0.90271  -0.89993
 Alpha  occ. eigenvalues --   -0.89590  -0.86847  -0.85914  -0.84772  -0.83922
 Alpha  occ. eigenvalues --   -0.75550  -0.73455  -0.73191  -0.72558  -0.72303
 Alpha  occ. eigenvalues --   -0.71976  -0.71743  -0.71168  -0.70671  -0.70544
 Alpha  occ. eigenvalues --   -0.68633  -0.68479  -0.68205  -0.68060  -0.67355
 Alpha  occ. eigenvalues --   -0.66207  -0.65768  -0.65064  -0.64726  -0.64358
 Alpha  occ. eigenvalues --   -0.63402  -0.63146  -0.62329  -0.61585  -0.61414
 Alpha  occ. eigenvalues --   -0.60241  -0.60207  -0.59952  -0.59448  -0.58906
 Alpha  occ. eigenvalues --   -0.58406  -0.57773  -0.57361  -0.55979  -0.55701
 Alpha  occ. eigenvalues --   -0.54433  -0.53934  -0.52513  -0.52412  -0.52229
 Alpha  occ. eigenvalues --   -0.51437  -0.50907  -0.50772  -0.50659  -0.49774
 Alpha  occ. eigenvalues --   -0.49608  -0.48470  -0.48351  -0.47469  -0.46498
 Alpha  occ. eigenvalues --   -0.46329  -0.45761  -0.45420  -0.45186  -0.44587
 Alpha  occ. eigenvalues --   -0.43898  -0.43498  -0.43173  -0.42842  -0.42217
 Alpha  occ. eigenvalues --   -0.41905  -0.41593  -0.41560  -0.41033  -0.40921
 Alpha  occ. eigenvalues --   -0.40669  -0.40522  -0.40250  -0.40175  -0.40121
 Alpha  occ. eigenvalues --   -0.39991  -0.39673  -0.39436  -0.39232  -0.39092
 Alpha  occ. eigenvalues --   -0.38901  -0.38749  -0.38539  -0.38292  -0.38189
 Alpha  occ. eigenvalues --   -0.37945  -0.37876  -0.37644  -0.37527  -0.37414
 Alpha  occ. eigenvalues --   -0.37111  -0.37056  -0.36821  -0.36469  -0.36243
 Alpha  occ. eigenvalues --   -0.36098  -0.36057  -0.35815  -0.35470  -0.35314
 Alpha  occ. eigenvalues --   -0.35103  -0.35023  -0.34908  -0.34829  -0.34647
 Alpha  occ. eigenvalues --   -0.34568  -0.34439  -0.34241  -0.34138  -0.33974
 Alpha  occ. eigenvalues --   -0.33830  -0.33752  -0.33563  -0.33484  -0.33307
 Alpha  occ. eigenvalues --   -0.33132  -0.32951  -0.32689  -0.32658  -0.32285
 Alpha  occ. eigenvalues --   -0.32175  -0.31922  -0.31781  -0.31535  -0.31326
 Alpha  occ. eigenvalues --   -0.31260  -0.31140  -0.30767  -0.30706  -0.30663
 Alpha  occ. eigenvalues --   -0.30491  -0.30405  -0.30262  -0.30071  -0.29694
 Alpha  occ. eigenvalues --   -0.29672  -0.29568  -0.29472  -0.29265  -0.29207
 Alpha  occ. eigenvalues --   -0.28614  -0.28543  -0.28223  -0.27955  -0.27859
 Alpha  occ. eigenvalues --   -0.27323  -0.27143  -0.27005  -0.26772  -0.26557
 Alpha  occ. eigenvalues --   -0.25971  -0.25669  -0.25630  -0.25317  -0.25218
 Alpha  occ. eigenvalues --   -0.25006  -0.24537  -0.24232  -0.24194  -0.23580
 Alpha  occ. eigenvalues --   -0.23556  -0.22751  -0.22468  -0.22108  -0.21730
 Alpha  occ. eigenvalues --   -0.20899  -0.19749  -0.19363  -0.17792  -0.17533
 Alpha  occ. eigenvalues --   -0.16170
 Alpha virt. eigenvalues --   -0.12022  -0.07385  -0.06894  -0.04817  -0.03019
 Alpha virt. eigenvalues --   -0.02924  -0.02429  -0.01916  -0.01418  -0.00171
 Alpha virt. eigenvalues --    0.00712   0.01635   0.02385   0.02948   0.03005

 Mulliken charges:
               1
     1  Mg   0.692773
     2  C    0.056816
     3  C   -0.046147
     4  C   -0.036039
     5  C   -0.077927
     6  N   -0.234304
     7  C   -0.068911
     8  C   -0.005027
     9  C    0.038293
    10  C    0.043804
    11  C    0.103177
    12  C    0.114251
    13  C    0.094528
    14  C    0.072340
    15  O   -0.182775
    16  O   -0.282378
    17  N   -0.282519
    18  C    0.099741
    19  C   -0.117268
    20  C    0.041351
    21  C    0.129735
    22  C    0.159155
    23  C   -0.122091
    24  O   -0.175435
    25  C    0.132378
    26  N   -0.215121
    27  C   -0.007615
    28  C   -0.022894
    29  C    0.054694
    30  C    0.019910
    31  C    0.154069
    32  C    0.110643
    33  C    0.064167
    34  N   -0.315409
    35  C    0.106046
    36  C   -0.148931
    37  C    0.130531
    38  C    0.050606
    39  C    0.150790
    40  C   -0.052291
    41  O   -0.134749
    42  C    0.023580
    43  C    0.109417
    44  O   -0.164028
    45  O   -0.286266
    46  C    0.203988
    47  C    0.324627
    48  C   -0.132224
    49  C   -0.095703
    50  C    0.125039
    51  C    0.131988
    52  C    0.068372
    53  C    0.098554
    54  C   -0.098403
    55  C    0.096947
    56  C    0.110835
    57  C    0.084933
    58  C    0.122467
    59  C   -0.075138
    60  C    0.093837
    61  C    0.142847
    62  C    0.007539
    63  C    0.153759
    64  C   -0.088383
    65  C    0.121968
    66  C    0.084344
    67  H   -0.070554
    68  H   -0.094716
    69  H   -0.079584
    70  H   -0.017524
    71  H   -0.008074
    72  H   -0.015483
    73  H    0.007363
    74  H   -0.003683
    75  H   -0.002965
    76  H    0.011880
    77  H    0.012573
    78  H    0.012019
    79  H    0.015126
    80  H    0.007202
    81  H    0.004762
    82  H    0.024581
    83  H   -0.007700
    84  H   -0.010302
    85  H   -0.017331
    86  H   -0.030170
    87  H   -0.016265
    88  H    0.001277
    89  H    0.011189
    90  H   -0.010501
    91  H   -0.021509
    92  H    0.001411
    93  H    0.001323
    94  H   -0.004967
    95  H    0.008448
    96  H   -0.003519
    97  H   -0.009722
    98  H    0.012902
    99  H    0.020278
   100  H    0.005509
   101  H    0.037553
   102  H    0.001500
   103  H   -0.004347
   104  H   -0.043799
   105  H    0.004146
   106  H   -0.002932
   107  H   -0.026306
   108  H   -0.033698
   109  H   -0.022709
   110  H   -0.024736
   111  H   -0.037903
   112  H   -0.031195
   113  H   -0.049768
   114  H   -0.046429
   115  H   -0.011836
   116  H   -0.014133
   117  H   -0.013705
   118  H   -0.039150
   119  H   -0.026826
   120  H   -0.031646
   121  H   -0.029564
   122  H   -0.031162
   123  H   -0.039331
   124  H   -0.031404
   125  H   -0.011493
   126  H   -0.022363
   127  H   -0.018663
   128  H   -0.033643
   129  H   -0.029023
   130  H   -0.032288
   131  H   -0.036399
   132  H   -0.043668
   133  H   -0.039940
   134  H   -0.046009
   135  H   -0.018781
   136  H   -0.039500
   137  H   -0.010400
   138  H   -0.007508
   139  H   -0.020521
   140  H   -0.030554
 Sum of Mulliken charges =  -0.00000

 Dipole moment (field-independent basis, Debye):
    X=             -2.2183    Y=              3.3139    Z=             -1.3250  Tot=              4.2022
 Quadrupole moment (field-independent basis, Debye-Ang):
   XX=           -382.6544   YY=           -430.6490   ZZ=           -397.0818
   XY=            -53.5503   XZ=            -10.4555   YZ=            -32.4171

 Normal termination of Gaussian 16 at Wed May  4 02:35:30 2022.
