 Gaussian 16, Revision A.03,
 Gaussian 16:  ES64L-G16RevA.03 25-Dec-2016

 -----------------------------------
 #p cam-b3lyp/Def2SVP td=(nstates=5)
 -----------------------------------

 -------------------------------------------------------
 step_1251_chromophore_2 TDDFT with cam-b3lyp functional
 -------------------------------------------------------
 Symbolic Z-matrix:
 Charge =  0 Multiplicity = 1

                         Standard orientation:
 ---------------------------------------------------------------------
 Center     Atomic      Atomic             Coordinates (Angstroms)
 Number     Number       Type             X           Y           Z
 ---------------------------------------------------------------------
      1         12           0       -4.499042    1.262335    0.418527
      2          6           0       -5.100385   -2.149433    0.267682
      3          6           0       -2.247401    0.729428    3.024872
      4          6           0       -3.376256    4.480389    0.077747
      5          6           0       -6.673552    1.748678   -2.220479
      6          7           0       -3.692604   -0.494635    1.486836
      7          6           0       -4.054319   -1.824207    1.134423
      8          6           0       -3.349458   -2.859897    2.092387
      9          6           0       -2.520932   -1.862373    3.050387
     10          6           0       -2.870256   -0.420612    2.564269
     11          6           0       -2.911889   -2.095751    4.595373
     12          6           0       -2.525127   -3.918011    1.258064
     13          6           0       -1.780064   -3.278465    0.010557
     14          6           0       -0.370736   -3.899331   -0.170576
     15          8           0        0.378725   -4.392010    0.657311
     16          8           0       -0.175208   -4.009246   -1.531631
     17          7           0       -3.011751    2.459620    1.437195
     18          6           0       -2.229746    2.054422    2.514337
     19          6           0       -1.446492    3.150354    3.001368
     20          6           0       -1.753657    4.254869    2.065383
     21          6           0       -2.718219    3.757886    1.097480
     22          6           0       -0.391150    2.956172    4.168557
     23          6           0       -1.102191    5.572551    2.093928
     24          8           0       -0.401361    5.921334    3.041954
     25          6           0       -1.168554    6.563452    0.949724
     26          7           0       -4.872869    2.839928   -1.008993
     27          6           0       -4.425697    4.103472   -0.767482
     28          6           0       -5.247347    5.166567   -1.490059
     29          6           0       -6.283343    4.240021   -2.339525
     30          6           0       -5.998213    2.917726   -1.795176
     31          6           0       -5.808589    6.235628   -0.529391
     32          6           0       -6.221225    4.402547   -3.835661
     33          6           0       -7.569889    4.363656   -4.601127
     34          7           0       -5.579234    0.143357   -0.778902
     35          6           0       -6.478838    0.454772   -1.809492
     36          6           0       -6.980542   -0.774169   -2.465367
     37          6           0       -6.552246   -1.767121   -1.628331
     38          6           0       -5.603652   -1.211657   -0.699338
     39          6           0       -7.941721   -0.782848   -3.619918
     40          6           0       -6.680142   -3.170084   -1.357364
     41          8           0       -7.341592   -3.988896   -2.013678
     42          6           0       -5.706948   -3.513104   -0.116989
     43          6           0       -6.424344   -4.206566    0.973643
     44          8           0       -6.524222   -5.420709    1.022477
     45          8           0       -6.879175   -3.329163    1.941899
     46          6           0       -7.758867   -3.970475    2.953591
     47          6           0        0.923520   -4.908713   -1.939959
     48          6           0        2.199303   -4.061287   -2.244574
     49          6           0        3.359224   -4.001238   -1.616495
     50          6           0        3.839023   -4.937913   -0.470464
     51          6           0        4.459051   -3.046060   -2.001725
     52          6           0        4.594282   -1.800710   -0.993082
     53          6           0        6.026470   -1.486493   -0.697720
     54          6           0        6.402722    0.012884   -0.476762
     55          6           0        6.575162    0.719204   -1.880421
     56          6           0        7.496957    0.256606    0.606827
     57          6           0        8.882517    0.008769    0.147966
     58          6           0        9.842794    1.176247    0.495702
     59          6           0       11.061771    0.688483    1.288476
     60          6           0       10.772421    0.875807    2.802225
     61          6           0       12.384913    1.424621    0.813218
     62          6           0       13.289874    0.440407    0.097998
     63          6           0       14.676147    1.056377   -0.369518
     64          6           0       15.330551    0.282906   -1.525594
     65          6           0       16.828642    0.047938   -1.464305
     66          6           0       14.847602    0.885281   -2.845803
     67          1           0       -1.581807    0.608907    3.882227
     68          1           0       -3.180498    5.555010    0.107415
     69          1           0       -7.413853    1.818731   -3.020276
     70          1           0       -4.204593   -3.390723    2.508053
     71          1           0       -1.459167   -1.982046    2.837868
     72          1           0       -3.914837   -1.745324    4.838261
     73          1           0       -2.207620   -1.555957    5.227885
     74          1           0       -3.072934   -3.149663    4.823789
     75          1           0       -3.266651   -4.551927    0.771573
     76          1           0       -1.925673   -4.415249    2.020126
     77          1           0       -1.468842   -2.260356    0.243446
     78          1           0       -2.312347   -3.270321   -0.940885
     79          1           0        0.134820    3.830779    4.550911
     80          1           0        0.344345    2.241680    3.797907
     81          1           0       -1.004481    2.489553    4.939296
     82          1           0       -2.144647    7.042961    0.869191
     83          1           0       -0.981096    6.033719    0.015903
     84          1           0       -0.358266    7.285657    1.048494
     85          1           0       -4.521325    5.613254   -2.169308
     86          1           0       -7.303939    4.416989   -1.999650
     87          1           0       -6.838506    6.321735   -0.874750
     88          1           0       -5.317039    7.196223   -0.685385
     89          1           0       -5.769238    5.861443    0.494554
     90          1           0       -5.551588    3.648867   -4.250003
     91          1           0       -5.775199    5.392115   -3.936800
     92          1           0       -8.450524    4.200158   -3.979183
     93          1           0       -7.390578    3.528061   -5.277709
     94          1           0       -7.767542    5.258772   -5.189628
     95          1           0       -7.496704   -0.937002   -4.603664
     96          1           0       -8.684006    0.015960   -3.623107
     97          1           0       -8.646977   -1.612927   -3.564610
     98          1           0       -5.027304   -4.253320   -0.540364
     99          1           0       -8.762185   -3.600154    2.741040
    100          1           0       -7.520477   -3.565171    3.937498
    101          1           0       -7.662699   -5.052431    3.044006
    102          1           0        0.563499   -5.491172   -2.788061
    103          1           0        1.262149   -5.476790   -1.073156
    104          1           0        1.983948   -3.343630   -3.036817
    105          1           0        4.047896   -4.330787    0.410131
    106          1           0        4.638072   -5.645899   -0.689154
    107          1           0        3.080144   -5.667090   -0.184123
    108          1           0        4.284743   -2.682595   -3.014589
    109          1           0        5.412939   -3.572976   -2.049335
    110          1           0        3.948324   -2.028919   -0.145484
    111          1           0        4.077163   -0.898126   -1.321585
    112          1           0        6.662823   -1.946787   -1.454500
    113          1           0        6.277814   -2.052166    0.198958
    114          1           0        5.457783    0.435144   -0.135605
    115          1           0        7.416294    1.410879   -1.850220
    116          1           0        5.660959    1.278899   -2.078532
    117          1           0        6.693661    0.022030   -2.710332
    118          1           0        7.279987   -0.471719    1.387655
    119          1           0        7.217482    1.250058    0.957142
    120          1           0        8.794418   -0.094686   -0.933154
    121          1           0        9.223587   -0.947830    0.544330
    122          1           0        9.286746    1.931243    1.051249
    123          1           0       10.112761    1.644611   -0.450697
    124          1           0       11.170778   -0.394359    1.229829
    125          1           0        9.727700    1.004474    3.083568
    126          1           0       11.274920    1.777986    3.152178
    127          1           0       11.227615    0.020217    3.301438
    128          1           0       12.975507    1.843674    1.628160
    129          1           0       12.150096    2.220701    0.106562
    130          1           0       12.758961   -0.064732   -0.708501
    131          1           0       13.504054   -0.415022    0.738390
    132          1           0       15.442588    1.041144    0.405773
    133          1           0       14.528914    2.072008   -0.734711
    134          1           0       14.898946   -0.717452   -1.479360
    135          1           0       17.413304    0.902438   -1.123616
    136          1           0       17.197745   -0.057760   -2.484288
    137          1           0       17.115824   -0.892347   -0.993725
    138          1           0       15.354347    1.791251   -3.178420
    139          1           0       13.782239    0.938921   -3.068149
    140          1           0       15.097867    0.063168   -3.516233
 ---------------------------------------------------------------------

 SCF Done:  E(RCAM-B3LYP) =  -3007.17573211     A.U. after   19 cycles

 Excitation energies and oscillator strengths:

 Excited State   1:      Singlet-A      1.6587 eV  747.46 nm  f=0.3719  <S**2>=0.000
     245 -> 248        0.17951
     246 -> 247        0.68610
     245 <- 248        0.11049
 This state for optimization and/or second-order correction.
 Total Energy, E(TD-HF/TD-DFT) =  -3007.11477474
 Copying the excited state density for this state as the 1-particle RhoCI density.

 Excited State   2:      Singlet-A      2.2302 eV  555.94 nm  f=0.0817  <S**2>=0.000
     245 -> 247        0.62617
     246 -> 248       -0.31365

 Excited State   3:      Singlet-A      3.0903 eV  401.21 nm  f=0.0024  <S**2>=0.000
     244 -> 247        0.68269
     246 -> 248        0.11658

 Excited State   4:      Singlet-A      3.3155 eV  373.95 nm  f=0.0001  <S**2>=0.000
     243 -> 247        0.58081
     243 -> 248       -0.13080
     243 -> 249       -0.19436
     243 -> 251        0.27620

 Excited State   5:      Singlet-A      3.4523 eV  359.14 nm  f=0.0060  <S**2>=0.000
     239 -> 247       -0.15525
     239 -> 249       -0.16087
     240 -> 247        0.38515
     240 -> 249        0.27579
     241 -> 247       -0.36840
     241 -> 249       -0.20127

 The electronic state is 1-A.
 Alpha  occ. eigenvalues --  -46.88611 -19.25859 -19.24198 -19.20095 -19.20080
 Alpha  occ. eigenvalues --  -19.19883 -19.17351 -14.42519 -14.42414 -14.40207
 Alpha  occ. eigenvalues --  -14.39285 -10.39738 -10.39322 -10.36035 -10.33726
 Alpha  occ. eigenvalues --  -10.32132 -10.31835 -10.31515 -10.31335 -10.31224
 Alpha  occ. eigenvalues --  -10.31121 -10.30350 -10.30331 -10.30137 -10.29765
 Alpha  occ. eigenvalues --  -10.29581 -10.29141 -10.29135 -10.28809 -10.28746
 Alpha  occ. eigenvalues --  -10.28606 -10.28518 -10.28077 -10.28044 -10.27769
 Alpha  occ. eigenvalues --  -10.27148 -10.27118 -10.27092 -10.27013 -10.26997
 Alpha  occ. eigenvalues --  -10.26909 -10.26832 -10.26746 -10.26738 -10.26443
 Alpha  occ. eigenvalues --  -10.26389 -10.26052 -10.25493 -10.25462 -10.25289
 Alpha  occ. eigenvalues --  -10.25263 -10.25256 -10.25177 -10.25094 -10.25060
 Alpha  occ. eigenvalues --  -10.24583 -10.24470 -10.24449 -10.24308 -10.24207
 Alpha  occ. eigenvalues --  -10.24180 -10.24114 -10.24063 -10.23989 -10.23950
 Alpha  occ. eigenvalues --  -10.23944  -3.17243  -1.92136  -1.91689  -1.91560
 Alpha  occ. eigenvalues --   -1.16355  -1.15669  -1.09564  -1.08586  -1.08100
 Alpha  occ. eigenvalues --   -1.07380  -1.04625  -1.03592  -1.02325  -1.01360
 Alpha  occ. eigenvalues --   -0.92775  -0.90169  -0.90021  -0.89342  -0.88980
 Alpha  occ. eigenvalues --   -0.88707  -0.88443  -0.87880  -0.87236  -0.87055
 Alpha  occ. eigenvalues --   -0.84965  -0.84811  -0.84556  -0.84345  -0.83520
 Alpha  occ. eigenvalues --   -0.82261  -0.81808  -0.80864  -0.80709  -0.80238
 Alpha  occ. eigenvalues --   -0.79112  -0.78737  -0.77960  -0.77125  -0.76972
 Alpha  occ. eigenvalues --   -0.75559  -0.75553  -0.75264  -0.74729  -0.74147
 Alpha  occ. eigenvalues --   -0.73503  -0.72778  -0.72296  -0.70791  -0.70380
 Alpha  occ. eigenvalues --   -0.69124  -0.68519  -0.66974  -0.66579  -0.66543
 Alpha  occ. eigenvalues --   -0.65709  -0.64968  -0.64862  -0.64628  -0.63811
 Alpha  occ. eigenvalues --   -0.63412  -0.62244  -0.62168  -0.61213  -0.60097
 Alpha  occ. eigenvalues --   -0.59891  -0.59244  -0.58828  -0.58615  -0.58065
 Alpha  occ. eigenvalues --   -0.57379  -0.56933  -0.56272  -0.56233  -0.55420
 Alpha  occ. eigenvalues --   -0.55112  -0.54770  -0.54327  -0.54240  -0.53751
 Alpha  occ. eigenvalues --   -0.53387  -0.53181  -0.53169  -0.52965  -0.52782
 Alpha  occ. eigenvalues --   -0.52669  -0.52584  -0.52085  -0.51859  -0.51684
 Alpha  occ. eigenvalues --   -0.51461  -0.51180  -0.50907  -0.50864  -0.50667
 Alpha  occ. eigenvalues --   -0.50277  -0.50270  -0.49894  -0.49776  -0.49662
 Alpha  occ. eigenvalues --   -0.49392  -0.49272  -0.49250  -0.48925  -0.48691
 Alpha  occ. eigenvalues --   -0.48347  -0.48132  -0.48025  -0.47859  -0.47512
 Alpha  occ. eigenvalues --   -0.47143  -0.47062  -0.46908  -0.46680  -0.46590
 Alpha  occ. eigenvalues --   -0.46493  -0.46317  -0.46206  -0.45893  -0.45745
 Alpha  occ. eigenvalues --   -0.45588  -0.45466  -0.45320  -0.45280  -0.45061
 Alpha  occ. eigenvalues --   -0.44942  -0.44783  -0.44455  -0.44196  -0.44121
 Alpha  occ. eigenvalues --   -0.44015  -0.43475  -0.43096  -0.42994  -0.42942
 Alpha  occ. eigenvalues --   -0.42873  -0.42670  -0.42474  -0.42189  -0.41934
 Alpha  occ. eigenvalues --   -0.41906  -0.41690  -0.41473  -0.41280  -0.41142
 Alpha  occ. eigenvalues --   -0.40901  -0.40831  -0.40700  -0.40586  -0.40320
 Alpha  occ. eigenvalues --   -0.39741  -0.39660  -0.39181  -0.38970  -0.38855
 Alpha  occ. eigenvalues --   -0.38160  -0.38126  -0.37960  -0.37803  -0.37256
 Alpha  occ. eigenvalues --   -0.37031  -0.36719  -0.36660  -0.36373  -0.35877
 Alpha  occ. eigenvalues --   -0.35676  -0.35203  -0.34961  -0.34916  -0.34585
 Alpha  occ. eigenvalues --   -0.34392  -0.33854  -0.33470  -0.32041  -0.31322
 Alpha  occ. eigenvalues --   -0.31068  -0.30647  -0.29922  -0.28926  -0.24643
 Alpha  occ. eigenvalues --   -0.21347
 Alpha virt. eigenvalues --   -0.09160  -0.02360  -0.00434   0.02055   0.02159
 Alpha virt. eigenvalues --    0.04465   0.05145   0.05664   0.06154   0.06595
 Alpha virt. eigenvalues --    0.07280   0.08196   0.08749   0.09096   0.09359

 Mulliken charges:
               1
     1  Mg   0.825286
     2  C    0.038188
     3  C   -0.062882
     4  C   -0.053977
     5  C   -0.085643
     6  N   -0.304383
     7  C   -0.026419
     8  C   -0.050251
     9  C   -0.022313
    10  C    0.065701
    11  C    0.050432
    12  C    0.066588
    13  C    0.021155
    14  C    0.162567
    15  O   -0.226443
    16  O   -0.348088
    17  N   -0.368183
    18  C    0.106145
    19  C   -0.118366
    20  C   -0.036016
    21  C    0.157196
    22  C    0.107289
    23  C   -0.042274
    24  O   -0.216934
    25  C    0.047008
    26  N   -0.281731
    27  C    0.015153
    28  C   -0.076362
    29  C   -0.004071
    30  C    0.041336
    31  C    0.091151
    32  C    0.050491
    33  C    0.000648
    34  N   -0.404829
    35  C    0.112935
    36  C   -0.138885
    37  C    0.051650
    38  C    0.085186
    39  C    0.091242
    40  C    0.045419
    41  O   -0.173341
    42  C   -0.061957
    43  C    0.201014
    44  O   -0.202468
    45  O   -0.348189
    46  C    0.165216
    47  C    0.290350
    48  C   -0.151156
    49  C   -0.125253
    50  C    0.068897
    51  C    0.072330
    52  C    0.015570
    53  C    0.046054
    54  C   -0.152624
    55  C    0.037358
    56  C    0.056909
    57  C    0.027541
    58  C    0.068230
    59  C   -0.133489
    60  C    0.040046
    61  C    0.088041
    62  C   -0.040558
    63  C    0.095681
    64  C   -0.149953
    65  C    0.060160
    66  C    0.024139
    67  H   -0.034891
    68  H   -0.058323
    69  H   -0.043079
    70  H    0.016259
    71  H    0.025678
    72  H    0.009107
    73  H    0.029919
    74  H    0.019916
    75  H    0.021784
    76  H    0.044501
    77  H    0.040951
    78  H    0.045983
    79  H    0.046422
    80  H    0.032395
    81  H    0.027188
    82  H    0.049109
    83  H    0.022286
    84  H    0.026377
    85  H    0.017201
    86  H    0.005437
    87  H    0.008832
    88  H    0.024755
    89  H    0.036783
    90  H    0.019397
    91  H    0.007967
    92  H    0.022706
    93  H    0.023188
    94  H    0.020437
    95  H    0.036619
    96  H    0.022435
    97  H    0.020652
    98  H    0.053250
    99  H    0.042759
   100  H    0.027527
   101  H    0.064112
   102  H    0.030636
   103  H    0.025814
   104  H   -0.009723
   105  H    0.026719
   106  H    0.021895
   107  H   -0.000404
   108  H   -0.002710
   109  H    0.006657
   110  H    0.004120
   111  H   -0.009136
   112  H   -0.004797
   113  H   -0.020651
   114  H   -0.012648
   115  H    0.010278
   116  H    0.010168
   117  H    0.009831
   118  H   -0.009368
   119  H    0.001975
   120  H   -0.002982
   121  H   -0.000952
   122  H   -0.002713
   123  H   -0.010277
   124  H   -0.000578
   125  H    0.011403
   126  H    0.001486
   127  H    0.004964
   128  H   -0.004772
   129  H   -0.001725
   130  H   -0.006507
   131  H   -0.008968
   132  H   -0.013527
   133  H   -0.011988
   134  H   -0.013019
   135  H    0.005698
   136  H   -0.012849
   137  H    0.014770
   138  H    0.016248
   139  H    0.005044
   140  H   -0.006317
 Sum of Mulliken charges =  -0.00000

 Dipole moment (field-independent basis, Debye):
    X=             -2.4349    Y=              3.3760    Z=             -1.3831  Tot=              4.3862
 Quadrupole moment (field-independent basis, Debye-Ang):
   XX=           -380.0699   YY=           -428.1584   ZZ=           -395.7658
   XY=            -53.7009   XZ=            -10.6938   YZ=            -34.1218

 Normal termination of Gaussian 16 at Wed May  4 01:35:29 2022.
