 Gaussian 16, Revision A.03,
 Gaussian 16:  ES64L-G16RevA.03 25-Dec-2016

 ---------------------------------
 #p PBE1PBE/Def2SVP td=(nstates=5)
 ---------------------------------

 -----------------------------------------------------
 step_1251_chromophore_2 TDDFT with PBE1PBE functional
 -----------------------------------------------------
 Symbolic Z-matrix:
 Charge =  0 Multiplicity = 1

                         Standard orientation:
 ---------------------------------------------------------------------
 Center     Atomic      Atomic             Coordinates (Angstroms)
 Number     Number       Type             X           Y           Z
 ---------------------------------------------------------------------
      1         12           0       -4.499042    1.262335    0.418527
      2          6           0       -5.100385   -2.149433    0.267682
      3          6           0       -2.247401    0.729428    3.024872
      4          6           0       -3.376256    4.480389    0.077747
      5          6           0       -6.673552    1.748678   -2.220479
      6          7           0       -3.692604   -0.494635    1.486836
      7          6           0       -4.054319   -1.824207    1.134423
      8          6           0       -3.349458   -2.859897    2.092387
      9          6           0       -2.520932   -1.862373    3.050387
     10          6           0       -2.870256   -0.420612    2.564269
     11          6           0       -2.911889   -2.095751    4.595373
     12          6           0       -2.525127   -3.918011    1.258064
     13          6           0       -1.780064   -3.278465    0.010557
     14          6           0       -0.370736   -3.899331   -0.170576
     15          8           0        0.378725   -4.392010    0.657311
     16          8           0       -0.175208   -4.009246   -1.531631
     17          7           0       -3.011751    2.459620    1.437195
     18          6           0       -2.229746    2.054422    2.514337
     19          6           0       -1.446492    3.150354    3.001368
     20          6           0       -1.753657    4.254869    2.065383
     21          6           0       -2.718219    3.757886    1.097480
     22          6           0       -0.391150    2.956172    4.168557
     23          6           0       -1.102191    5.572551    2.093928
     24          8           0       -0.401361    5.921334    3.041954
     25          6           0       -1.168554    6.563452    0.949724
     26          7           0       -4.872869    2.839928   -1.008993
     27          6           0       -4.425697    4.103472   -0.767482
     28          6           0       -5.247347    5.166567   -1.490059
     29          6           0       -6.283343    4.240021   -2.339525
     30          6           0       -5.998213    2.917726   -1.795176
     31          6           0       -5.808589    6.235628   -0.529391
     32          6           0       -6.221225    4.402547   -3.835661
     33          6           0       -7.569889    4.363656   -4.601127
     34          7           0       -5.579234    0.143357   -0.778902
     35          6           0       -6.478838    0.454772   -1.809492
     36          6           0       -6.980542   -0.774169   -2.465367
     37          6           0       -6.552246   -1.767121   -1.628331
     38          6           0       -5.603652   -1.211657   -0.699338
     39          6           0       -7.941721   -0.782848   -3.619918
     40          6           0       -6.680142   -3.170084   -1.357364
     41          8           0       -7.341592   -3.988896   -2.013678
     42          6           0       -5.706948   -3.513104   -0.116989
     43          6           0       -6.424344   -4.206566    0.973643
     44          8           0       -6.524222   -5.420709    1.022477
     45          8           0       -6.879175   -3.329163    1.941899
     46          6           0       -7.758867   -3.970475    2.953591
     47          6           0        0.923520   -4.908713   -1.939959
     48          6           0        2.199303   -4.061287   -2.244574
     49          6           0        3.359224   -4.001238   -1.616495
     50          6           0        3.839023   -4.937913   -0.470464
     51          6           0        4.459051   -3.046060   -2.001725
     52          6           0        4.594282   -1.800710   -0.993082
     53          6           0        6.026470   -1.486493   -0.697720
     54          6           0        6.402722    0.012884   -0.476762
     55          6           0        6.575162    0.719204   -1.880421
     56          6           0        7.496957    0.256606    0.606827
     57          6           0        8.882517    0.008769    0.147966
     58          6           0        9.842794    1.176247    0.495702
     59          6           0       11.061771    0.688483    1.288476
     60          6           0       10.772421    0.875807    2.802225
     61          6           0       12.384913    1.424621    0.813218
     62          6           0       13.289874    0.440407    0.097998
     63          6           0       14.676147    1.056377   -0.369518
     64          6           0       15.330551    0.282906   -1.525594
     65          6           0       16.828642    0.047938   -1.464305
     66          6           0       14.847602    0.885281   -2.845803
     67          1           0       -1.581807    0.608907    3.882227
     68          1           0       -3.180498    5.555010    0.107415
     69          1           0       -7.413853    1.818731   -3.020276
     70          1           0       -4.204593   -3.390723    2.508053
     71          1           0       -1.459167   -1.982046    2.837868
     72          1           0       -3.914837   -1.745324    4.838261
     73          1           0       -2.207620   -1.555957    5.227885
     74          1           0       -3.072934   -3.149663    4.823789
     75          1           0       -3.266651   -4.551927    0.771573
     76          1           0       -1.925673   -4.415249    2.020126
     77          1           0       -1.468842   -2.260356    0.243446
     78          1           0       -2.312347   -3.270321   -0.940885
     79          1           0        0.134820    3.830779    4.550911
     80          1           0        0.344345    2.241680    3.797907
     81          1           0       -1.004481    2.489553    4.939296
     82          1           0       -2.144647    7.042961    0.869191
     83          1           0       -0.981096    6.033719    0.015903
     84          1           0       -0.358266    7.285657    1.048494
     85          1           0       -4.521325    5.613254   -2.169308
     86          1           0       -7.303939    4.416989   -1.999650
     87          1           0       -6.838506    6.321735   -0.874750
     88          1           0       -5.317039    7.196223   -0.685385
     89          1           0       -5.769238    5.861443    0.494554
     90          1           0       -5.551588    3.648867   -4.250003
     91          1           0       -5.775199    5.392115   -3.936800
     92          1           0       -8.450524    4.200158   -3.979183
     93          1           0       -7.390578    3.528061   -5.277709
     94          1           0       -7.767542    5.258772   -5.189628
     95          1           0       -7.496704   -0.937002   -4.603664
     96          1           0       -8.684006    0.015960   -3.623107
     97          1           0       -8.646977   -1.612927   -3.564610
     98          1           0       -5.027304   -4.253320   -0.540364
     99          1           0       -8.762185   -3.600154    2.741040
    100          1           0       -7.520477   -3.565171    3.937498
    101          1           0       -7.662699   -5.052431    3.044006
    102          1           0        0.563499   -5.491172   -2.788061
    103          1           0        1.262149   -5.476790   -1.073156
    104          1           0        1.983948   -3.343630   -3.036817
    105          1           0        4.047896   -4.330787    0.410131
    106          1           0        4.638072   -5.645899   -0.689154
    107          1           0        3.080144   -5.667090   -0.184123
    108          1           0        4.284743   -2.682595   -3.014589
    109          1           0        5.412939   -3.572976   -2.049335
    110          1           0        3.948324   -2.028919   -0.145484
    111          1           0        4.077163   -0.898126   -1.321585
    112          1           0        6.662823   -1.946787   -1.454500
    113          1           0        6.277814   -2.052166    0.198958
    114          1           0        5.457783    0.435144   -0.135605
    115          1           0        7.416294    1.410879   -1.850220
    116          1           0        5.660959    1.278899   -2.078532
    117          1           0        6.693661    0.022030   -2.710332
    118          1           0        7.279987   -0.471719    1.387655
    119          1           0        7.217482    1.250058    0.957142
    120          1           0        8.794418   -0.094686   -0.933154
    121          1           0        9.223587   -0.947830    0.544330
    122          1           0        9.286746    1.931243    1.051249
    123          1           0       10.112761    1.644611   -0.450697
    124          1           0       11.170778   -0.394359    1.229829
    125          1           0        9.727700    1.004474    3.083568
    126          1           0       11.274920    1.777986    3.152178
    127          1           0       11.227615    0.020217    3.301438
    128          1           0       12.975507    1.843674    1.628160
    129          1           0       12.150096    2.220701    0.106562
    130          1           0       12.758961   -0.064732   -0.708501
    131          1           0       13.504054   -0.415022    0.738390
    132          1           0       15.442588    1.041144    0.405773
    133          1           0       14.528914    2.072008   -0.734711
    134          1           0       14.898946   -0.717452   -1.479360
    135          1           0       17.413304    0.902438   -1.123616
    136          1           0       17.197745   -0.057760   -2.484288
    137          1           0       17.115824   -0.892347   -0.993725
    138          1           0       15.354347    1.791251   -3.178420
    139          1           0       13.782239    0.938921   -3.068149
    140          1           0       15.097867    0.063168   -3.516233
 ---------------------------------------------------------------------

 SCF Done:  E(RPBE1PBE) =  -3005.36449512     A.U. after   15 cycles

 Excitation energies and oscillator strengths:

 Excited State   1:      Singlet-A      1.8226 eV  680.24 nm  f=0.3593  <S**2>=0.000
     245 -> 248        0.17237
     246 -> 247        0.69390
     246 <- 247       -0.11209
 This state for optimization and/or second-order correction.
 Total Energy, E(TD-HF/TD-DFT) =  -3005.29751397
 Copying the excited state density for this state as the 1-particle RhoCI density.

 Excited State   2:      Singlet-A      2.2310 eV  555.74 nm  f=0.0839  <S**2>=0.000
     245 -> 247        0.64066
     246 -> 248       -0.28034

 Excited State   3:      Singlet-A      2.6939 eV  460.25 nm  f=0.0006  <S**2>=0.000
     243 -> 247        0.38324
     243 -> 250       -0.10053
     244 -> 247        0.56327

 Excited State   4:      Singlet-A      2.7731 eV  447.10 nm  f=0.0077  <S**2>=0.000
     243 -> 247        0.56932
     244 -> 247       -0.39518

 Excited State   5:      Singlet-A      3.0182 eV  410.79 nm  f=0.0006  <S**2>=0.000
     241 -> 247        0.65915
     241 -> 249        0.20547

 The electronic state is 1-A.
 Alpha  occ. eigenvalues --  -46.92016 -19.26468 -19.24912 -19.20354 -19.20288
 Alpha  occ. eigenvalues --  -19.20099 -19.17590 -14.42014 -14.41994 -14.39853
 Alpha  occ. eigenvalues --  -14.38987 -10.36690 -10.36353 -10.33164 -10.30876
 Alpha  occ. eigenvalues --  -10.29625 -10.29332 -10.29076 -10.28950 -10.28906
 Alpha  occ. eigenvalues --  -10.28870 -10.28062 -10.28041 -10.27813 -10.27511
 Alpha  occ. eigenvalues --  -10.27179 -10.26978 -10.26738 -10.26597 -10.26593
 Alpha  occ. eigenvalues --  -10.26448 -10.26377 -10.25915 -10.25555 -10.25420
 Alpha  occ. eigenvalues --  -10.24788 -10.24763 -10.24712 -10.24655 -10.24546
 Alpha  occ. eigenvalues --  -10.24528 -10.24500 -10.24241 -10.24230 -10.23901
 Alpha  occ. eigenvalues --  -10.23887 -10.23725 -10.23022 -10.23015 -10.22973
 Alpha  occ. eigenvalues --  -10.22816 -10.22792 -10.22728 -10.22602 -10.22569
 Alpha  occ. eigenvalues --  -10.22096 -10.21992 -10.21880 -10.21742 -10.21741
 Alpha  occ. eigenvalues --  -10.21678 -10.21662 -10.21606 -10.21501 -10.21335
 Alpha  occ. eigenvalues --  -10.21333  -3.14225  -1.87059  -1.86590  -1.86465
 Alpha  occ. eigenvalues --   -1.11060  -1.10462  -1.04271  -1.03336  -1.02887
 Alpha  occ. eigenvalues --   -1.02246  -0.99221  -0.98222  -0.96962  -0.96026
 Alpha  occ. eigenvalues --   -0.87078  -0.84479  -0.84106  -0.83444  -0.83311
 Alpha  occ. eigenvalues --   -0.82896  -0.82570  -0.82166  -0.81439  -0.81309
 Alpha  occ. eigenvalues --   -0.79207  -0.79130  -0.78846  -0.78541  -0.77754
 Alpha  occ. eigenvalues --   -0.76521  -0.75962  -0.75201  -0.74903  -0.74465
 Alpha  occ. eigenvalues --   -0.73302  -0.73062  -0.72205  -0.71355  -0.71274
 Alpha  occ. eigenvalues --   -0.69887  -0.69643  -0.69407  -0.68849  -0.68298
 Alpha  occ. eigenvalues --   -0.67920  -0.67104  -0.66726  -0.65111  -0.64748
 Alpha  occ. eigenvalues --   -0.63589  -0.62748  -0.61475  -0.60983  -0.60751
 Alpha  occ. eigenvalues --   -0.59868  -0.59542  -0.59328  -0.59224  -0.57930
 Alpha  occ. eigenvalues --   -0.57926  -0.56716  -0.56405  -0.55481  -0.54660
 Alpha  occ. eigenvalues --   -0.54491  -0.53612  -0.53433  -0.53204  -0.52515
 Alpha  occ. eigenvalues --   -0.51894  -0.51334  -0.50843  -0.50622  -0.49912
 Alpha  occ. eigenvalues --   -0.49655  -0.49308  -0.48859  -0.48682  -0.48177
 Alpha  occ. eigenvalues --   -0.47914  -0.47703  -0.47701  -0.47560  -0.47357
 Alpha  occ. eigenvalues --   -0.47254  -0.47028  -0.46592  -0.46354  -0.46160
 Alpha  occ. eigenvalues --   -0.46002  -0.45726  -0.45495  -0.45397  -0.45196
 Alpha  occ. eigenvalues --   -0.44875  -0.44804  -0.44509  -0.44316  -0.44253
 Alpha  occ. eigenvalues --   -0.43991  -0.43877  -0.43815  -0.43495  -0.43301
 Alpha  occ. eigenvalues --   -0.42901  -0.42715  -0.42641  -0.42499  -0.42210
 Alpha  occ. eigenvalues --   -0.41880  -0.41734  -0.41606  -0.41389  -0.41309
 Alpha  occ. eigenvalues --   -0.41160  -0.41055  -0.40761  -0.40632  -0.40446
 Alpha  occ. eigenvalues --   -0.40331  -0.40211  -0.40051  -0.39979  -0.39790
 Alpha  occ. eigenvalues --   -0.39668  -0.39421  -0.39224  -0.38898  -0.38815
 Alpha  occ. eigenvalues --   -0.38718  -0.38212  -0.37914  -0.37764  -0.37710
 Alpha  occ. eigenvalues --   -0.37620  -0.37382  -0.37334  -0.37060  -0.36799
 Alpha  occ. eigenvalues --   -0.36638  -0.36574  -0.36248  -0.36177  -0.35975
 Alpha  occ. eigenvalues --   -0.35762  -0.35640  -0.35495  -0.35374  -0.35068
 Alpha  occ. eigenvalues --   -0.34669  -0.34471  -0.34200  -0.33946  -0.33652
 Alpha  occ. eigenvalues --   -0.33013  -0.32967  -0.32921  -0.32568  -0.32344
 Alpha  occ. eigenvalues --   -0.31925  -0.31764  -0.31442  -0.31228  -0.30650
 Alpha  occ. eigenvalues --   -0.30514  -0.30099  -0.29852  -0.29841  -0.29653
 Alpha  occ. eigenvalues --   -0.29273  -0.29072  -0.28859  -0.27547  -0.26824
 Alpha  occ. eigenvalues --   -0.26187  -0.25919  -0.24710  -0.24531  -0.21554
 Alpha  occ. eigenvalues --   -0.19062
 Alpha virt. eigenvalues --   -0.11637  -0.05819  -0.04648  -0.02256  -0.00679
 Alpha virt. eigenvalues --   -0.00089   0.00736   0.01079   0.01670   0.02753
 Alpha virt. eigenvalues --    0.03491   0.04414   0.05275   0.05859   0.05879

 Mulliken charges:
               1
     1  Mg   0.974819
     2  C    0.046869
     3  C   -0.059474
     4  C   -0.050684
     5  C   -0.080449
     6  N   -0.404779
     7  C    0.037149
     8  C   -0.114949
     9  C   -0.103802
    10  C    0.108218
    11  C   -0.007090
    12  C    0.011399
    13  C   -0.061154
    14  C    0.236947
    15  O   -0.260268
    16  O   -0.376470
    17  N   -0.480379
    18  C    0.129071
    19  C   -0.129915
    20  C   -0.098266
    21  C    0.192309
    22  C    0.045896
    23  C    0.014407
    24  O   -0.252147
    25  C   -0.033470
    26  N   -0.380490
    27  C    0.052740
    28  C   -0.152015
    29  C   -0.076991
    30  C    0.076793
    31  C    0.027791
    32  C   -0.013347
    33  C   -0.070895
    34  N   -0.529464
    35  C    0.130299
    36  C   -0.149632
    37  C   -0.001805
    38  C    0.123845
    39  C    0.038691
    40  C    0.141008
    41  O   -0.217846
    42  C   -0.180375
    43  C    0.293178
    44  O   -0.239683
    45  O   -0.378574
    46  C    0.110544
    47  C    0.236484
    48  C   -0.156899
    49  C   -0.173064
    50  C    0.011287
    51  C    0.008500
    52  C   -0.040815
    53  C   -0.007223
    54  C   -0.239294
    55  C   -0.022954
    56  C   -0.001554
    57  C   -0.034531
    58  C    0.014710
    59  C   -0.222151
    60  C   -0.016028
    61  C    0.032356
    62  C   -0.102327
    63  C    0.038626
    64  C   -0.244414
    65  C    0.000068
    66  C   -0.037498
    67  H   -0.002710
    68  H   -0.021927
    69  H   -0.007088
    70  H    0.057738
    71  H    0.061651
    72  H    0.036759
    73  H    0.056809
    74  H    0.047677
    75  H    0.059304
    76  H    0.074880
    77  H    0.076106
    78  H    0.077363
    79  H    0.073613
    80  H    0.060542
    81  H    0.054326
    82  H    0.074314
    83  H    0.050958
    84  H    0.054841
    85  H    0.054298
    86  H    0.044177
    87  H    0.038106
    88  H    0.051987
    89  H    0.064984
    90  H    0.052057
    91  H    0.042137
    92  H    0.048229
    93  H    0.050126
    94  H    0.048422
    95  H    0.063746
    96  H    0.046916
    97  H    0.048341
    98  H    0.089137
    99  H    0.065173
   100  H    0.048838
   101  H    0.083986
   102  H    0.057493
   103  H    0.055172
   104  H    0.020741
   105  H    0.053537
   106  H    0.048529
   107  H    0.026863
   108  H    0.029603
   109  H    0.038696
   110  H    0.036385
   111  H    0.023229
   112  H    0.026727
   113  H    0.012910
   114  H    0.027276
   115  H    0.038807
   116  H    0.037815
   117  H    0.036808
   118  H    0.024671
   119  H    0.033323
   120  H    0.032203
   121  H    0.030417
   122  H    0.029028
   123  H    0.021954
   124  H    0.035403
   125  H    0.038632
   126  H    0.029053
   127  H    0.032656
   128  H    0.027537
   129  H    0.030263
   130  H    0.026073
   131  H    0.024920
   132  H    0.020012
   133  H    0.021062
   134  H    0.026337
   135  H    0.033080
   136  H    0.014948
   137  H    0.042127
   138  H    0.043796
   139  H    0.032739
   140  H    0.022517
 Sum of Mulliken charges =  -0.00000

 Dipole moment (field-independent basis, Debye):
    X=             -2.4139    Y=              3.5052    Z=             -1.3581  Tot=              4.4674
 Quadrupole moment (field-independent basis, Debye-Ang):
   XX=           -376.6878   YY=           -425.0757   ZZ=           -391.9237
   XY=            -55.0404   XZ=             -9.8856   YZ=            -35.1225

 Normal termination of Gaussian 16 at Wed May  4 01:53:12 2022.
