 Gaussian 16, Revision A.03,
 Gaussian 16:  ES64L-G16RevA.03 25-Dec-2016

 --------------------------------
 #p wB97XD/Def2SVP td=(nstates=5)
 --------------------------------

 ----------------------------------------------------
 step_1251_chromophore_2 TDDFT with wB97XD functional
 ----------------------------------------------------
 Symbolic Z-matrix:
 Charge =  0 Multiplicity = 1

                         Standard orientation:
 ---------------------------------------------------------------------
 Center     Atomic      Atomic             Coordinates (Angstroms)
 Number     Number       Type             X           Y           Z
 ---------------------------------------------------------------------
      1         12           0       -4.499042    1.262335    0.418527
      2          6           0       -5.100385   -2.149433    0.267682
      3          6           0       -2.247401    0.729428    3.024872
      4          6           0       -3.376256    4.480389    0.077747
      5          6           0       -6.673552    1.748678   -2.220479
      6          7           0       -3.692604   -0.494635    1.486836
      7          6           0       -4.054319   -1.824207    1.134423
      8          6           0       -3.349458   -2.859897    2.092387
      9          6           0       -2.520932   -1.862373    3.050387
     10          6           0       -2.870256   -0.420612    2.564269
     11          6           0       -2.911889   -2.095751    4.595373
     12          6           0       -2.525127   -3.918011    1.258064
     13          6           0       -1.780064   -3.278465    0.010557
     14          6           0       -0.370736   -3.899331   -0.170576
     15          8           0        0.378725   -4.392010    0.657311
     16          8           0       -0.175208   -4.009246   -1.531631
     17          7           0       -3.011751    2.459620    1.437195
     18          6           0       -2.229746    2.054422    2.514337
     19          6           0       -1.446492    3.150354    3.001368
     20          6           0       -1.753657    4.254869    2.065383
     21          6           0       -2.718219    3.757886    1.097480
     22          6           0       -0.391150    2.956172    4.168557
     23          6           0       -1.102191    5.572551    2.093928
     24          8           0       -0.401361    5.921334    3.041954
     25          6           0       -1.168554    6.563452    0.949724
     26          7           0       -4.872869    2.839928   -1.008993
     27          6           0       -4.425697    4.103472   -0.767482
     28          6           0       -5.247347    5.166567   -1.490059
     29          6           0       -6.283343    4.240021   -2.339525
     30          6           0       -5.998213    2.917726   -1.795176
     31          6           0       -5.808589    6.235628   -0.529391
     32          6           0       -6.221225    4.402547   -3.835661
     33          6           0       -7.569889    4.363656   -4.601127
     34          7           0       -5.579234    0.143357   -0.778902
     35          6           0       -6.478838    0.454772   -1.809492
     36          6           0       -6.980542   -0.774169   -2.465367
     37          6           0       -6.552246   -1.767121   -1.628331
     38          6           0       -5.603652   -1.211657   -0.699338
     39          6           0       -7.941721   -0.782848   -3.619918
     40          6           0       -6.680142   -3.170084   -1.357364
     41          8           0       -7.341592   -3.988896   -2.013678
     42          6           0       -5.706948   -3.513104   -0.116989
     43          6           0       -6.424344   -4.206566    0.973643
     44          8           0       -6.524222   -5.420709    1.022477
     45          8           0       -6.879175   -3.329163    1.941899
     46          6           0       -7.758867   -3.970475    2.953591
     47          6           0        0.923520   -4.908713   -1.939959
     48          6           0        2.199303   -4.061287   -2.244574
     49          6           0        3.359224   -4.001238   -1.616495
     50          6           0        3.839023   -4.937913   -0.470464
     51          6           0        4.459051   -3.046060   -2.001725
     52          6           0        4.594282   -1.800710   -0.993082
     53          6           0        6.026470   -1.486493   -0.697720
     54          6           0        6.402722    0.012884   -0.476762
     55          6           0        6.575162    0.719204   -1.880421
     56          6           0        7.496957    0.256606    0.606827
     57          6           0        8.882517    0.008769    0.147966
     58          6           0        9.842794    1.176247    0.495702
     59          6           0       11.061771    0.688483    1.288476
     60          6           0       10.772421    0.875807    2.802225
     61          6           0       12.384913    1.424621    0.813218
     62          6           0       13.289874    0.440407    0.097998
     63          6           0       14.676147    1.056377   -0.369518
     64          6           0       15.330551    0.282906   -1.525594
     65          6           0       16.828642    0.047938   -1.464305
     66          6           0       14.847602    0.885281   -2.845803
     67          1           0       -1.581807    0.608907    3.882227
     68          1           0       -3.180498    5.555010    0.107415
     69          1           0       -7.413853    1.818731   -3.020276
     70          1           0       -4.204593   -3.390723    2.508053
     71          1           0       -1.459167   -1.982046    2.837868
     72          1           0       -3.914837   -1.745324    4.838261
     73          1           0       -2.207620   -1.555957    5.227885
     74          1           0       -3.072934   -3.149663    4.823789
     75          1           0       -3.266651   -4.551927    0.771573
     76          1           0       -1.925673   -4.415249    2.020126
     77          1           0       -1.468842   -2.260356    0.243446
     78          1           0       -2.312347   -3.270321   -0.940885
     79          1           0        0.134820    3.830779    4.550911
     80          1           0        0.344345    2.241680    3.797907
     81          1           0       -1.004481    2.489553    4.939296
     82          1           0       -2.144647    7.042961    0.869191
     83          1           0       -0.981096    6.033719    0.015903
     84          1           0       -0.358266    7.285657    1.048494
     85          1           0       -4.521325    5.613254   -2.169308
     86          1           0       -7.303939    4.416989   -1.999650
     87          1           0       -6.838506    6.321735   -0.874750
     88          1           0       -5.317039    7.196223   -0.685385
     89          1           0       -5.769238    5.861443    0.494554
     90          1           0       -5.551588    3.648867   -4.250003
     91          1           0       -5.775199    5.392115   -3.936800
     92          1           0       -8.450524    4.200158   -3.979183
     93          1           0       -7.390578    3.528061   -5.277709
     94          1           0       -7.767542    5.258772   -5.189628
     95          1           0       -7.496704   -0.937002   -4.603664
     96          1           0       -8.684006    0.015960   -3.623107
     97          1           0       -8.646977   -1.612927   -3.564610
     98          1           0       -5.027304   -4.253320   -0.540364
     99          1           0       -8.762185   -3.600154    2.741040
    100          1           0       -7.520477   -3.565171    3.937498
    101          1           0       -7.662699   -5.052431    3.044006
    102          1           0        0.563499   -5.491172   -2.788061
    103          1           0        1.262149   -5.476790   -1.073156
    104          1           0        1.983948   -3.343630   -3.036817
    105          1           0        4.047896   -4.330787    0.410131
    106          1           0        4.638072   -5.645899   -0.689154
    107          1           0        3.080144   -5.667090   -0.184123
    108          1           0        4.284743   -2.682595   -3.014589
    109          1           0        5.412939   -3.572976   -2.049335
    110          1           0        3.948324   -2.028919   -0.145484
    111          1           0        4.077163   -0.898126   -1.321585
    112          1           0        6.662823   -1.946787   -1.454500
    113          1           0        6.277814   -2.052166    0.198958
    114          1           0        5.457783    0.435144   -0.135605
    115          1           0        7.416294    1.410879   -1.850220
    116          1           0        5.660959    1.278899   -2.078532
    117          1           0        6.693661    0.022030   -2.710332
    118          1           0        7.279987   -0.471719    1.387655
    119          1           0        7.217482    1.250058    0.957142
    120          1           0        8.794418   -0.094686   -0.933154
    121          1           0        9.223587   -0.947830    0.544330
    122          1           0        9.286746    1.931243    1.051249
    123          1           0       10.112761    1.644611   -0.450697
    124          1           0       11.170778   -0.394359    1.229829
    125          1           0        9.727700    1.004474    3.083568
    126          1           0       11.274920    1.777986    3.152178
    127          1           0       11.227615    0.020217    3.301438
    128          1           0       12.975507    1.843674    1.628160
    129          1           0       12.150096    2.220701    0.106562
    130          1           0       12.758961   -0.064732   -0.708501
    131          1           0       13.504054   -0.415022    0.738390
    132          1           0       15.442588    1.041144    0.405773
    133          1           0       14.528914    2.072008   -0.734711
    134          1           0       14.898946   -0.717452   -1.479360
    135          1           0       17.413304    0.902438   -1.123616
    136          1           0       17.197745   -0.057760   -2.484288
    137          1           0       17.115824   -0.892347   -0.993725
    138          1           0       15.354347    1.791251   -3.178420
    139          1           0       13.782239    0.938921   -3.068149
    140          1           0       15.097867    0.063168   -3.516233
 ---------------------------------------------------------------------

 SCF Done:  E(RwB97XD) =  -3007.87330861     A.U. after   20 cycles

 Excitation energies and oscillator strengths:

 Excited State   1:      Singlet-A      1.5967 eV  776.51 nm  f=0.3704  <S**2>=0.000
     245 -> 248        0.18535
     246 -> 247        0.68384
     245 <- 248        0.12031
 This state for optimization and/or second-order correction.
 Total Energy, E(TD-HF/TD-DFT) =  -3007.81463129
 Copying the excited state density for this state as the 1-particle RhoCI density.

 Excited State   2:      Singlet-A      2.1717 eV  570.90 nm  f=0.0794  <S**2>=0.000
     245 -> 247        0.62424
     246 -> 248       -0.31564

 Excited State   3:      Singlet-A      3.1215 eV  397.20 nm  f=0.0016  <S**2>=0.000
     244 -> 247        0.67156
     244 -> 249       -0.10356
     246 -> 248        0.13457

 Excited State   4:      Singlet-A      3.3336 eV  371.92 nm  f=0.0001  <S**2>=0.000
     243 -> 247        0.56014
     243 -> 248       -0.13485
     243 -> 249       -0.21419
     243 -> 250       -0.31074

 Excited State   5:      Singlet-A      3.4768 eV  356.61 nm  f=0.0392  <S**2>=0.000
     239 -> 249       -0.12110
     240 -> 247       -0.22069
     240 -> 249       -0.20712
     241 -> 247        0.47232
     241 -> 249        0.30162
     246 -> 248        0.16545

 The electronic state is 1-A.
 Alpha  occ. eigenvalues --  -46.94963 -19.31087 -19.29448 -19.25058 -19.25005
 Alpha  occ. eigenvalues --  -19.24976 -19.22372 -14.47125 -14.47032 -14.44834
 Alpha  occ. eigenvalues --  -14.43906 -10.43595 -10.43124 -10.40095 -10.37677
 Alpha  occ. eigenvalues --  -10.35909 -10.35873 -10.35392 -10.35360 -10.35212
 Alpha  occ. eigenvalues --  -10.35133 -10.34379 -10.34372 -10.34164 -10.33816
 Alpha  occ. eigenvalues --  -10.33656 -10.33284 -10.33206 -10.33000 -10.32881
 Alpha  occ. eigenvalues --  -10.32689 -10.32566 -10.32105 -10.31967 -10.31774
 Alpha  occ. eigenvalues --  -10.31200 -10.31124 -10.31073 -10.31062 -10.30892
 Alpha  occ. eigenvalues --  -10.30863 -10.30855 -10.30739 -10.30621 -10.30334
 Alpha  occ. eigenvalues --  -10.30279 -10.30105 -10.29390 -10.29362 -10.29270
 Alpha  occ. eigenvalues --  -10.29244 -10.29170 -10.29015 -10.29011 -10.28970
 Alpha  occ. eigenvalues --  -10.28483 -10.28366 -10.28296 -10.28110 -10.28109
 Alpha  occ. eigenvalues --  -10.28100 -10.28026 -10.27970 -10.27880 -10.27765
 Alpha  occ. eigenvalues --  -10.27760  -3.21024  -1.94610  -1.94140  -1.94011
 Alpha  occ. eigenvalues --   -1.18525  -1.17830  -1.11832  -1.10792  -1.10315
 Alpha  occ. eigenvalues --   -1.09578  -1.06628  -1.05626  -1.04340  -1.03397
 Alpha  occ. eigenvalues --   -0.94753  -0.92044  -0.91775  -0.91116  -0.90902
 Alpha  occ. eigenvalues --   -0.90546  -0.90228  -0.89825  -0.89055  -0.88951
 Alpha  occ. eigenvalues --   -0.86862  -0.86759  -0.86477  -0.86194  -0.85399
 Alpha  occ. eigenvalues --   -0.84175  -0.83634  -0.82830  -0.82608  -0.82128
 Alpha  occ. eigenvalues --   -0.80960  -0.80658  -0.79883  -0.79026  -0.78923
 Alpha  occ. eigenvalues --   -0.77494  -0.77329  -0.77090  -0.76533  -0.75963
 Alpha  occ. eigenvalues --   -0.75489  -0.74704  -0.74269  -0.72715  -0.72305
 Alpha  occ. eigenvalues --   -0.71135  -0.70379  -0.68990  -0.68478  -0.68400
 Alpha  occ. eigenvalues --   -0.67528  -0.66988  -0.66830  -0.66656  -0.65608
 Alpha  occ. eigenvalues --   -0.65409  -0.64174  -0.64030  -0.63072  -0.62069
 Alpha  occ. eigenvalues --   -0.61918  -0.61130  -0.60823  -0.60606  -0.59994
 Alpha  occ. eigenvalues --   -0.59344  -0.58831  -0.58242  -0.58152  -0.57357
 Alpha  occ. eigenvalues --   -0.57065  -0.56728  -0.56231  -0.56163  -0.55607
 Alpha  occ. eigenvalues --   -0.55262  -0.55116  -0.55072  -0.54911  -0.54711
 Alpha  occ. eigenvalues --   -0.54584  -0.54438  -0.54031  -0.53771  -0.53561
 Alpha  occ. eigenvalues --   -0.53370  -0.53086  -0.52816  -0.52788  -0.52565
 Alpha  occ. eigenvalues --   -0.52189  -0.52186  -0.51805  -0.51658  -0.51576
 Alpha  occ. eigenvalues --   -0.51322  -0.51214  -0.51168  -0.50801  -0.50613
 Alpha  occ. eigenvalues --   -0.50232  -0.50007  -0.49921  -0.49794  -0.49471
 Alpha  occ. eigenvalues --   -0.49078  -0.48984  -0.48840  -0.48596  -0.48523
 Alpha  occ. eigenvalues --   -0.48391  -0.48223  -0.48036  -0.47803  -0.47642
 Alpha  occ. eigenvalues --   -0.47486  -0.47392  -0.47260  -0.47190  -0.46960
 Alpha  occ. eigenvalues --   -0.46860  -0.46631  -0.46390  -0.46071  -0.46022
 Alpha  occ. eigenvalues --   -0.45983  -0.45353  -0.45047  -0.44907  -0.44874
 Alpha  occ. eigenvalues --   -0.44741  -0.44514  -0.44464  -0.44111  -0.43858
 Alpha  occ. eigenvalues --   -0.43780  -0.43623  -0.43342  -0.43165  -0.43112
 Alpha  occ. eigenvalues --   -0.42817  -0.42715  -0.42602  -0.42464  -0.42155
 Alpha  occ. eigenvalues --   -0.41642  -0.41523  -0.41111  -0.40865  -0.40719
 Alpha  occ. eigenvalues --   -0.40034  -0.39979  -0.39904  -0.39621  -0.39399
 Alpha  occ. eigenvalues --   -0.39052  -0.38648  -0.38481  -0.38243  -0.37708
 Alpha  occ. eigenvalues --   -0.37525  -0.37074  -0.36882  -0.36799  -0.36567
 Alpha  occ. eigenvalues --   -0.36313  -0.35736  -0.35681  -0.34211  -0.33454
 Alpha  occ. eigenvalues --   -0.33185  -0.32635  -0.31836  -0.31125  -0.26570
 Alpha  occ. eigenvalues --   -0.23146
 Alpha virt. eigenvalues --   -0.07529  -0.00460   0.01624   0.04266   0.05176
 Alpha virt. eigenvalues --    0.06617   0.07525   0.07939   0.08372   0.09306
 Alpha virt. eigenvalues --    0.09954   0.11116   0.12024   0.12621   0.12640

 Mulliken charges:
               1
     1  Mg   0.963817
     2  C    0.035653
     3  C   -0.073480
     4  C   -0.060653
     5  C   -0.090730
     6  N   -0.373139
     7  C    0.011903
     8  C   -0.090838
     9  C   -0.079058
    10  C    0.090988
    11  C    0.003800
    12  C    0.025110
    13  C   -0.040069
    14  C    0.224051
    15  O   -0.256920
    16  O   -0.377590
    17  N   -0.447588
    18  C    0.120848
    19  C   -0.129647
    20  C   -0.085924
    21  C    0.182664
    22  C    0.061581
    23  C    0.006161
    24  O   -0.247775
    25  C   -0.016286
    26  N   -0.349521
    27  C    0.041258
    28  C   -0.126726
    29  C   -0.051483
    30  C    0.063601
    31  C    0.039921
    32  C    0.000708
    33  C   -0.056499
    34  N   -0.495381
    35  C    0.125578
    36  C   -0.147645
    37  C    0.004541
    38  C    0.113932
    39  C    0.046517
    40  C    0.120692
    41  O   -0.207784
    42  C   -0.139745
    43  C    0.270696
    44  O   -0.234659
    45  O   -0.377483
    46  C    0.126186
    47  C    0.264227
    48  C   -0.173563
    49  C   -0.156174
    50  C    0.022612
    51  C    0.027230
    52  C   -0.029500
    53  C    0.008751
    54  C   -0.205560
    55  C   -0.013541
    56  C    0.013464
    57  C   -0.018357
    58  C    0.030408
    59  C   -0.190507
    60  C   -0.005082
    61  C    0.046755
    62  C   -0.083495
    63  C    0.051955
    64  C   -0.212697
    65  C    0.009846
    66  C   -0.025890
    67  H   -0.010203
    68  H   -0.037143
    69  H   -0.018879
    70  H    0.044242
    71  H    0.052895
    72  H    0.030284
    73  H    0.051895
    74  H    0.041877
    75  H    0.046180
    76  H    0.069744
    77  H    0.064875
    78  H    0.072140
    79  H    0.071404
    80  H    0.054768
    81  H    0.047343
    82  H    0.069754
    83  H    0.043748
    84  H    0.053606
    85  H    0.043511
    86  H    0.030403
    87  H    0.031493
    88  H    0.047216
    89  H    0.058292
    90  H    0.044464
    91  H    0.033171
    92  H    0.042406
    93  H    0.044070
    94  H    0.044036
    95  H    0.060522
    96  H    0.042926
    97  H    0.044687
    98  H    0.082576
    99  H    0.061192
   100  H    0.044881
   101  H    0.080828
   102  H    0.054817
   103  H    0.042522
   104  H    0.017770
   105  H    0.047438
   106  H    0.043844
   107  H    0.021878
   108  H    0.022941
   109  H    0.029375
   110  H    0.027637
   111  H    0.014786
   112  H    0.015262
   113  H    0.002989
   114  H    0.014480
   115  H    0.031267
   116  H    0.032848
   117  H    0.030518
   118  H    0.015494
   119  H    0.025288
   120  H    0.020112
   121  H    0.022835
   122  H    0.018551
   123  H    0.013462
   124  H    0.021238
   125  H    0.032033
   126  H    0.022275
   127  H    0.027436
   128  H    0.019173
   129  H    0.020854
   130  H    0.014820
   131  H    0.015307
   132  H    0.012171
   133  H    0.011308
   134  H    0.014144
   135  H    0.027401
   136  H    0.008388
   137  H    0.037714
   138  H    0.038412
   139  H    0.027398
   140  H    0.014150
 Sum of Mulliken charges =  -0.00000

 Dipole moment (field-independent basis, Debye):
    X=             -2.4726    Y=              3.4599    Z=             -1.3554  Tot=              4.4634
 Quadrupole moment (field-independent basis, Debye-Ang):
   XX=           -375.5855   YY=           -424.4443   ZZ=           -391.7110
   XY=            -54.0440   XZ=            -10.1339   YZ=            -34.7386

 Normal termination of Gaussian 16 at Wed May  4 02:22:29 2022.
