 Gaussian 16, Revision A.03,
 Gaussian 16:  ES64L-G16RevA.03 25-Dec-2016

 --------------------
 #p ZINDO=(nstates=5)
 --------------------

 -----------------------------
 step_1251_chromophore_2 ZINDO
 -----------------------------
 Symbolic Z-matrix:
 Charge =  0 Multiplicity = 1

                         Standard orientation:
 ---------------------------------------------------------------------
 Center     Atomic      Atomic             Coordinates (Angstroms)
 Number     Number       Type             X           Y           Z
 ---------------------------------------------------------------------
      1         12           0       -4.499042    1.262335    0.418527
      2          6           0       -5.100385   -2.149433    0.267682
      3          6           0       -2.247401    0.729428    3.024872
      4          6           0       -3.376256    4.480389    0.077747
      5          6           0       -6.673552    1.748678   -2.220479
      6          7           0       -3.692604   -0.494635    1.486836
      7          6           0       -4.054319   -1.824207    1.134423
      8          6           0       -3.349458   -2.859897    2.092387
      9          6           0       -2.520932   -1.862373    3.050387
     10          6           0       -2.870256   -0.420612    2.564269
     11          6           0       -2.911889   -2.095751    4.595373
     12          6           0       -2.525127   -3.918011    1.258064
     13          6           0       -1.780064   -3.278465    0.010557
     14          6           0       -0.370736   -3.899331   -0.170576
     15          8           0        0.378725   -4.392010    0.657311
     16          8           0       -0.175208   -4.009246   -1.531631
     17          7           0       -3.011751    2.459620    1.437195
     18          6           0       -2.229746    2.054422    2.514337
     19          6           0       -1.446492    3.150354    3.001368
     20          6           0       -1.753657    4.254869    2.065383
     21          6           0       -2.718219    3.757886    1.097480
     22          6           0       -0.391150    2.956172    4.168557
     23          6           0       -1.102191    5.572551    2.093928
     24          8           0       -0.401361    5.921334    3.041954
     25          6           0       -1.168554    6.563452    0.949724
     26          7           0       -4.872869    2.839928   -1.008993
     27          6           0       -4.425697    4.103472   -0.767482
     28          6           0       -5.247347    5.166567   -1.490059
     29          6           0       -6.283343    4.240021   -2.339525
     30          6           0       -5.998213    2.917726   -1.795176
     31          6           0       -5.808589    6.235628   -0.529391
     32          6           0       -6.221225    4.402547   -3.835661
     33          6           0       -7.569889    4.363656   -4.601127
     34          7           0       -5.579234    0.143357   -0.778902
     35          6           0       -6.478838    0.454772   -1.809492
     36          6           0       -6.980542   -0.774169   -2.465367
     37          6           0       -6.552246   -1.767121   -1.628331
     38          6           0       -5.603652   -1.211657   -0.699338
     39          6           0       -7.941721   -0.782848   -3.619918
     40          6           0       -6.680142   -3.170084   -1.357364
     41          8           0       -7.341592   -3.988896   -2.013678
     42          6           0       -5.706948   -3.513104   -0.116989
     43          6           0       -6.424344   -4.206566    0.973643
     44          8           0       -6.524222   -5.420709    1.022477
     45          8           0       -6.879175   -3.329163    1.941899
     46          6           0       -7.758867   -3.970475    2.953591
     47          6           0        0.923520   -4.908713   -1.939959
     48          6           0        2.199303   -4.061287   -2.244574
     49          6           0        3.359224   -4.001238   -1.616495
     50          6           0        3.839023   -4.937913   -0.470464
     51          6           0        4.459051   -3.046060   -2.001725
     52          6           0        4.594282   -1.800710   -0.993082
     53          6           0        6.026470   -1.486493   -0.697720
     54          6           0        6.402722    0.012884   -0.476762
     55          6           0        6.575162    0.719204   -1.880421
     56          6           0        7.496957    0.256606    0.606827
     57          6           0        8.882517    0.008769    0.147966
     58          6           0        9.842794    1.176247    0.495702
     59          6           0       11.061771    0.688483    1.288476
     60          6           0       10.772421    0.875807    2.802225
     61          6           0       12.384913    1.424621    0.813218
     62          6           0       13.289874    0.440407    0.097998
     63          6           0       14.676147    1.056377   -0.369518
     64          6           0       15.330551    0.282906   -1.525594
     65          6           0       16.828642    0.047938   -1.464305
     66          6           0       14.847602    0.885281   -2.845803
     67          1           0       -1.581807    0.608907    3.882227
     68          1           0       -3.180498    5.555010    0.107415
     69          1           0       -7.413853    1.818731   -3.020276
     70          1           0       -4.204593   -3.390723    2.508053
     71          1           0       -1.459167   -1.982046    2.837868
     72          1           0       -3.914837   -1.745324    4.838261
     73          1           0       -2.207620   -1.555957    5.227885
     74          1           0       -3.072934   -3.149663    4.823789
     75          1           0       -3.266651   -4.551927    0.771573
     76          1           0       -1.925673   -4.415249    2.020126
     77          1           0       -1.468842   -2.260356    0.243446
     78          1           0       -2.312347   -3.270321   -0.940885
     79          1           0        0.134820    3.830779    4.550911
     80          1           0        0.344345    2.241680    3.797907
     81          1           0       -1.004481    2.489553    4.939296
     82          1           0       -2.144647    7.042961    0.869191
     83          1           0       -0.981096    6.033719    0.015903
     84          1           0       -0.358266    7.285657    1.048494
     85          1           0       -4.521325    5.613254   -2.169308
     86          1           0       -7.303939    4.416989   -1.999650
     87          1           0       -6.838506    6.321735   -0.874750
     88          1           0       -5.317039    7.196223   -0.685385
     89          1           0       -5.769238    5.861443    0.494554
     90          1           0       -5.551588    3.648867   -4.250003
     91          1           0       -5.775199    5.392115   -3.936800
     92          1           0       -8.450524    4.200158   -3.979183
     93          1           0       -7.390578    3.528061   -5.277709
     94          1           0       -7.767542    5.258772   -5.189628
     95          1           0       -7.496704   -0.937002   -4.603664
     96          1           0       -8.684006    0.015960   -3.623107
     97          1           0       -8.646977   -1.612927   -3.564610
     98          1           0       -5.027304   -4.253320   -0.540364
     99          1           0       -8.762185   -3.600154    2.741040
    100          1           0       -7.520477   -3.565171    3.937498
    101          1           0       -7.662699   -5.052431    3.044006
    102          1           0        0.563499   -5.491172   -2.788061
    103          1           0        1.262149   -5.476790   -1.073156
    104          1           0        1.983948   -3.343630   -3.036817
    105          1           0        4.047896   -4.330787    0.410131
    106          1           0        4.638072   -5.645899   -0.689154
    107          1           0        3.080144   -5.667090   -0.184123
    108          1           0        4.284743   -2.682595   -3.014589
    109          1           0        5.412939   -3.572976   -2.049335
    110          1           0        3.948324   -2.028919   -0.145484
    111          1           0        4.077163   -0.898126   -1.321585
    112          1           0        6.662823   -1.946787   -1.454500
    113          1           0        6.277814   -2.052166    0.198958
    114          1           0        5.457783    0.435144   -0.135605
    115          1           0        7.416294    1.410879   -1.850220
    116          1           0        5.660959    1.278899   -2.078532
    117          1           0        6.693661    0.022030   -2.710332
    118          1           0        7.279987   -0.471719    1.387655
    119          1           0        7.217482    1.250058    0.957142
    120          1           0        8.794418   -0.094686   -0.933154
    121          1           0        9.223587   -0.947830    0.544330
    122          1           0        9.286746    1.931243    1.051249
    123          1           0       10.112761    1.644611   -0.450697
    124          1           0       11.170778   -0.394359    1.229829
    125          1           0        9.727700    1.004474    3.083568
    126          1           0       11.274920    1.777986    3.152178
    127          1           0       11.227615    0.020217    3.301438
    128          1           0       12.975507    1.843674    1.628160
    129          1           0       12.150096    2.220701    0.106562
    130          1           0       12.758961   -0.064732   -0.708501
    131          1           0       13.504054   -0.415022    0.738390
    132          1           0       15.442588    1.041144    0.405773
    133          1           0       14.528914    2.072008   -0.734711
    134          1           0       14.898946   -0.717452   -1.479360
    135          1           0       17.413304    0.902438   -1.123616
    136          1           0       17.197745   -0.057760   -2.484288
    137          1           0       17.115824   -0.892347   -0.993725
    138          1           0       15.354347    1.791251   -3.178420
    139          1           0       13.782239    0.938921   -3.068149
    140          1           0       15.097867    0.063168   -3.516233
 ---------------------------------------------------------------------

 SCF Done:  E(RZINDO/S) =  -474.029253855     A.U. after   20 cycles

 Excitation energies and oscillator strengths:

 Excited State   1:      Singlet-A      1.2103 eV 1024.39 nm  f=0.6083  <S**2>=0.000
     175 ->178         0.19467
     176 ->177         0.66198
 This state for optimization and/or second-order correction.
 Total Energy, E(CIS/TDA) =  -473.984775136
 Copying the excited state density for this state as the 1-particle RhoCI density.

 Excited State   2:      Singlet-A      1.9072 eV  650.08 nm  f=0.0164  <S**2>=0.000
     175 ->177         0.51365
     176 ->178        -0.46528

 Excited State   3:      Singlet-A      2.8899 eV  429.03 nm  f=0.0663  <S**2>=0.000
     168 ->177        -0.17663
     168 ->179         0.27139
     168 ->185         0.11204
     169 ->179         0.10817
     171 ->177        -0.16976
     171 ->179         0.15039
     175 ->177         0.13865
     176 ->178         0.16876
     176 ->179         0.41319

 Excited State   4:      Singlet-A      2.9014 eV  427.32 nm  f=0.0004  <S**2>=0.000
     170 ->177         0.32105
     170 ->178        -0.12883
     170 ->179         0.22639
     170 ->180         0.38407
     170 ->181        -0.10816
     170 ->185         0.22224
     170 ->186         0.17339

 Excited State   5:      Singlet-A      2.9287 eV  423.34 nm  f=0.1906  <S**2>=0.000
     168 ->177         0.20698
     168 ->179        -0.30217
     168 ->180         0.11996
     168 ->185        -0.11335
     171 ->179        -0.11413
     175 ->177         0.18245
     176 ->178         0.22009
     176 ->179         0.39143

 The electronic state is 1-A.
 Alpha  occ. eigenvalues --   -1.84617  -1.80816  -1.77672  -1.72665  -1.71755
 Alpha  occ. eigenvalues --   -1.68751  -1.65065  -1.60359  -1.58596  -1.57396
 Alpha  occ. eigenvalues --   -1.55615  -1.50542  -1.48883  -1.47425  -1.47121
 Alpha  occ. eigenvalues --   -1.45991  -1.42747  -1.41300  -1.39107  -1.37203
 Alpha  occ. eigenvalues --   -1.35086  -1.33319  -1.32053  -1.29731  -1.27836
 Alpha  occ. eigenvalues --   -1.27264  -1.25210  -1.23093  -1.20007  -1.18072
 Alpha  occ. eigenvalues --   -1.15734  -1.15343  -1.15190  -1.14176  -1.13675
 Alpha  occ. eigenvalues --   -1.12816  -1.11482  -1.09585  -1.06316  -1.05492
 Alpha  occ. eigenvalues --   -1.02266  -1.02102  -1.00073  -0.98845  -0.98161
 Alpha  occ. eigenvalues --   -0.97212  -0.95335  -0.94292  -0.93501  -0.91120
 Alpha  occ. eigenvalues --   -0.90868  -0.90765  -0.88894  -0.87019  -0.85635
 Alpha  occ. eigenvalues --   -0.84532  -0.83794  -0.83084  -0.82054  -0.80260
 Alpha  occ. eigenvalues --   -0.79843  -0.78857  -0.77869  -0.77473  -0.76421
 Alpha  occ. eigenvalues --   -0.75708  -0.75443  -0.74167  -0.73929  -0.73282
 Alpha  occ. eigenvalues --   -0.72522  -0.72254  -0.71649  -0.70853  -0.70244
 Alpha  occ. eigenvalues --   -0.70039  -0.69635  -0.68849  -0.68500  -0.68228
 Alpha  occ. eigenvalues --   -0.67567  -0.66789  -0.66350  -0.66242  -0.65696
 Alpha  occ. eigenvalues --   -0.65248  -0.64811  -0.64238  -0.63739  -0.63446
 Alpha  occ. eigenvalues --   -0.63270  -0.63115  -0.62764  -0.62139  -0.62061
 Alpha  occ. eigenvalues --   -0.61591  -0.60976  -0.60572  -0.60163  -0.59532
 Alpha  occ. eigenvalues --   -0.59461  -0.59254  -0.58782  -0.58276  -0.58126
 Alpha  occ. eigenvalues --   -0.57934  -0.57533  -0.57275  -0.56672  -0.56436
 Alpha  occ. eigenvalues --   -0.56072  -0.55799  -0.55061  -0.55031  -0.54798
 Alpha  occ. eigenvalues --   -0.54422  -0.54371  -0.54085  -0.53338  -0.52903
 Alpha  occ. eigenvalues --   -0.52812  -0.52590  -0.52336  -0.52333  -0.51671
 Alpha  occ. eigenvalues --   -0.51396  -0.51348  -0.50922  -0.50806  -0.50519
 Alpha  occ. eigenvalues --   -0.50289  -0.50138  -0.49722  -0.49657  -0.49493
 Alpha  occ. eigenvalues --   -0.49379  -0.48582  -0.48428  -0.48077  -0.47607
 Alpha  occ. eigenvalues --   -0.47395  -0.47226  -0.46995  -0.46914  -0.46671
 Alpha  occ. eigenvalues --   -0.46368  -0.46257  -0.46101  -0.45741  -0.45355
 Alpha  occ. eigenvalues --   -0.44702  -0.44556  -0.44458  -0.44251  -0.43644
 Alpha  occ. eigenvalues --   -0.43022  -0.42908  -0.42818  -0.42635  -0.42475
 Alpha  occ. eigenvalues --   -0.42422  -0.41798  -0.41194  -0.39469  -0.38845
 Alpha  occ. eigenvalues --   -0.38645  -0.37807  -0.36003  -0.35216  -0.34515
 Alpha  occ. eigenvalues --   -0.34266  -0.33074  -0.33041  -0.32102  -0.27365
 Alpha  occ. eigenvalues --   -0.21988
 Alpha virt. eigenvalues --   -0.09009  -0.02841  -0.01216   0.01004   0.01619
 Alpha virt. eigenvalues --    0.01865   0.01895   0.02385   0.04421   0.05629
 Alpha virt. eigenvalues --    0.05754   0.06285   0.07172   0.07363   0.07783

 Mulliken charges:
               1
     1  Mg   0.430546
     2  C   -0.057049
     3  C   -0.067623
     4  C   -0.083114
     5  C   -0.065745
     6  N   -0.299138
     7  C    0.113927
     8  C   -0.016116
     9  C    0.005440
    10  C    0.132037
    11  C   -0.055510
    12  C   -0.023245
    13  C    0.003958
    14  C    0.462643
    15  O   -0.517708
    16  O   -0.278137
    17  N   -0.338924
    18  C    0.106773
    19  C    0.019874
    20  C   -0.050336
    21  C    0.124679
    22  C   -0.033790
    23  C    0.323346
    24  O   -0.539343
    25  C   -0.028437
    26  N   -0.271457
    27  C    0.132003
    28  C   -0.010345
    29  C    0.011046
    30  C    0.136348
    31  C   -0.048267
    32  C   -0.021111
    33  C   -0.059891
    34  N   -0.319869
    35  C    0.094331
    36  C    0.046706
    37  C   -0.034132
    38  C    0.110909
    39  C   -0.040343
    40  C    0.326520
    41  O   -0.510851
    42  C    0.056538
    43  C    0.486964
    44  O   -0.510635
    45  O   -0.272135
    46  C    0.071735
    47  C    0.089876
    48  C   -0.084617
    49  C    0.013556
    50  C   -0.050567
    51  C   -0.023868
    52  C   -0.030243
    53  C   -0.028290
    54  C   -0.023601
    55  C   -0.058902
    56  C   -0.025549
    57  C   -0.031908
    58  C   -0.031326
    59  C   -0.014784
    60  C   -0.061459
    61  C   -0.032032
    62  C   -0.035851
    63  C   -0.039146
    64  C   -0.003958
    65  C   -0.053271
    66  C   -0.061259
    67  H    0.023343
    68  H    0.026916
    69  H    0.023596
    70  H    0.041043
    71  H    0.042058
    72  H    0.019993
    73  H    0.028316
    74  H    0.025326
    75  H    0.027808
    76  H    0.049341
    77  H    0.045356
    78  H    0.052769
    79  H    0.047379
    80  H    0.030230
    81  H    0.027495
    82  H    0.040057
    83  H    0.023544
    84  H    0.036577
    85  H    0.030711
    86  H    0.030850
    87  H    0.016953
    88  H    0.028469
    89  H    0.035380
    90  H    0.027837
    91  H    0.018207
    92  H    0.025579
    93  H    0.020198
    94  H    0.022895
    95  H    0.040728
    96  H    0.026727
    97  H    0.025528
    98  H    0.065115
    99  H    0.040532
   100  H    0.025845
   101  H    0.061935
   102  H    0.046138
   103  H    0.057951
   104  H    0.019732
   105  H    0.032836
   106  H    0.029340
   107  H    0.015742
   108  H    0.014953
   109  H    0.023276
   110  H    0.023019
   111  H    0.018078
   112  H    0.016463
   113  H    0.007697
   114  H    0.009562
   115  H    0.018969
   116  H    0.015536
   117  H    0.021543
   118  H    0.013573
   119  H    0.023273
   120  H    0.019006
   121  H    0.022143
   122  H    0.022649
   123  H    0.013513
   124  H    0.026174
   125  H    0.023685
   126  H    0.013817
   127  H    0.014663
   128  H    0.021830
   129  H    0.022090
   130  H    0.019237
   131  H    0.012555
   132  H    0.018491
   133  H    0.020007
   134  H    0.011900
   135  H    0.021161
   136  H    0.007377
   137  H    0.023495
   138  H    0.025883
   139  H    0.021722
   140  H    0.000415
 Sum of Mulliken charges =  -0.00000

 Dipole moment (field-independent basis, Debye):
    X=             -3.3061    Y=              4.8264    Z=             -2.8090  Tot=              6.4896
 N-N= 4.351015713867D+03 E-N= 0.000000000000D+00  KE=-9.375830479978D+03
 Leave Link  601 at Wed May  4 02:35:38 2022, MaxMem=  6710886400 cpu:               0.8 elap:               0.0
 (Enter /sw/apps/gaussian-16.0/g16/l9999.exe)
 1\1\GINC-BP1-COMPUTE160\SP\RZINDO CIS\STO-3G\C55H74Mg1N4O6\OF15641\04-
 May-2022\0\\#p ZINDO=(nstates=5)\\step_1251_chromophore_2 ZINDO\\0,1\M
 g,0,2.376,-0.228,44.77\C,0,5.631,0.957,44.929\C,0,1.344,2.84,43.478\C,
 0,-0.642,-1.618,43.938\C,0,3.444,-3.284,45.974\N,0,3.359,1.663,44.19\C
 ,0,4.768,1.838,44.273\C,0,5.17,3.296,43.826\C,0,3.721,3.909,43.474\C,0
 ,2.694,2.776,43.788\C,0,3.439,5.242,44.333\C,0,6.24,3.247,42.665\C,0,5
 .963,2.088,41.616\C,0,6.258,2.567,40.171\O,0,6.212,3.69,39.695\O,0,6.8

 Normal termination of Gaussian 16 at Wed May  4 02:35:38 2022.
