 Gaussian 16, Revision A.03,
 Gaussian 16:  ES64L-G16RevA.03 25-Dec-2016

 ------------------------------
 #p blyp/Def2SVP td=(nstates=5)
 ------------------------------

 --------------------------------------------------
 step_301_chromophore_21 TDDFT with blyp functional
 --------------------------------------------------
 Symbolic Z-matrix:
 Charge =  0 Multiplicity = 1

                         Standard orientation:
 ---------------------------------------------------------------------
 Center     Atomic      Atomic             Coordinates (Angstroms)
 Number     Number       Type             X           Y           Z
 ---------------------------------------------------------------------
      1         12           0        5.003802    1.135687    0.055828
      2          6           0        4.781458   -2.355913    0.360703
      3          6           0        1.755782    1.222000   -1.066062
      4          6           0        5.323141    4.430078   -0.421626
      5          6           0        8.454819    0.945860    0.898664
      6          7           0        3.486983   -0.412439   -0.230744
      7          6           0        3.529777   -1.730979    0.163985
      8          6           0        2.096130   -2.384361    0.143185
      9          6           0        1.298353   -1.308411   -0.743080
     10          6           0        2.209681   -0.071370   -0.719042
     11          6           0        0.967272   -1.743096   -2.190753
     12          6           0        1.487491   -2.522771    1.542741
     13          6           0        0.284284   -3.508839    1.687333
     14          6           0       -0.528299   -3.929186    0.449731
     15          8           0       -0.059709   -4.719125   -0.404294
     16          8           0       -1.806128   -3.477076    0.381395
     17          7           0        3.709101    2.660216   -0.544302
     18          6           0        2.460920    2.445416   -1.056780
     19          6           0        1.928475    3.756220   -1.535009
     20          6           0        2.883340    4.764342   -1.216627
     21          6           0        4.029195    3.952661   -0.685887
     22          6           0        0.565447    3.975573   -2.221653
     23          6           0        2.825014    6.242077   -1.304253
     24          8           0        3.731627    6.891109   -0.850152
     25          6           0        1.665401    6.961799   -2.022342
     26          7           0        6.657680    2.520754    0.257244
     27          6           0        6.524689    3.847316   -0.036405
     28          6           0        7.805862    4.611900    0.245003
     29          6           0        8.820267    3.545675    0.729656
     30          6           0        7.934145    2.255566    0.642710
     31          6           0        8.272418    5.296698   -0.986721
     32          6           0        9.333830    3.514853    2.180956
     33          6           0       10.818041    3.001170    2.486283
     34          7           0        6.446173   -0.368988    0.474974
     35          6           0        7.842172   -0.314530    0.732971
     36          6           0        8.357492   -1.710243    0.917061
     37          6           0        7.166378   -2.503516    0.683874
     38          6           0        6.050673   -1.658159    0.509301
     39          6           0        9.753761   -2.112364    1.435999
     40          6           0        6.715556   -3.861166    0.692314
     41          8           0        7.305319   -4.973159    0.881079
     42          6           0        5.119609   -3.819529    0.628752
     43          6           0        4.625866   -4.816045   -0.407115
     44          8           0        4.664228   -4.619468   -1.635538
     45          8           0        4.080517   -5.910803    0.201060
     46          6           0        3.563413   -6.868617   -0.743557
     47          6           0       -2.613884   -4.004952   -0.706306
     48          6           0       -4.007727   -3.542173   -0.456504
     49          6           0       -5.130621   -4.124799   -0.864024
     50          6           0       -5.198264   -5.331435   -1.759669
     51          6           0       -6.435845   -3.735045   -0.269019
     52          6           0       -7.139040   -2.427737   -0.713730
     53          6           0       -6.964012   -1.302286    0.290186
     54          6           0       -7.592993    0.018084   -0.187598
     55          6           0       -6.707377    1.171729    0.146075
     56          6           0       -9.003521    0.290617    0.348565
     57          6           0      -10.055598   -0.229037   -0.612218
     58          6           0      -10.846530    0.890530   -1.310417
     59          6           0      -12.375539    0.581552   -1.481506
     60          6           0      -12.741533    1.123415   -2.915545
     61          6           0      -13.183039    1.488796   -0.495810
     62          6           0      -12.752833    1.213668    0.992157
     63          6           0      -13.871508    1.542044    2.003234
     64          6           0      -13.596712    2.861171    2.810129
     65          6           0      -14.045927    2.619506    4.259170
     66          6           0      -14.401467    4.036632    2.194724
     67          1           0        0.690364    1.231779   -1.304875
     68          1           0        5.437296    5.507027   -0.556567
     69          1           0        9.490369    0.882124    1.238425
     70          1           0        2.161380   -3.413062   -0.208729
     71          1           0        0.387186   -0.977017   -0.244107
     72          1           0        1.429276   -0.943261   -2.770312
     73          1           0       -0.098167   -1.837742   -2.400283
     74          1           0        1.447835   -2.687757   -2.444053
     75          1           0        1.239774   -1.523289    1.900971
     76          1           0        2.238765   -2.917259    2.227095
     77          1           0       -0.446355   -3.034449    2.342548
     78          1           0        0.689005   -4.441514    2.079040
     79          1           0       -0.076306    4.576455   -1.576455
     80          1           0        0.212058    2.981877   -2.496805
     81          1           0        0.772589    4.420975   -3.193977
     82          1           0        0.837692    6.890824   -1.316441
     83          1           0        1.473835    6.507778   -2.995025
     84          1           0        2.075147    7.951670   -2.219472
     85          1           0        7.462093    5.274619    1.040174
     86          1           0        9.725006    3.429615    0.132711
     87          1           0        9.318363    5.122797   -1.242061
     88          1           0        8.259219    6.345771   -0.691382
     89          1           0        7.537278    5.343064   -1.790507
     90          1           0        8.781662    2.818081    2.812067
     91          1           0        9.055390    4.480761    2.603030
     92          1           0       10.777061    1.949949    2.773814
     93          1           0       11.324501    3.548572    3.281991
     94          1           0       11.227656    3.120266    1.484201
     95          1           0        9.684174   -2.956163    2.123995
     96          1           0       10.286223   -1.302467    1.932564
     97          1           0       10.413402   -2.503893    0.660549
     98          1           0        4.807282   -4.027227    1.652203
     99          1           0        4.444496   -7.118768   -1.335517
    100          1           0        2.704911   -6.457577   -1.274294
    101          1           0        3.414911   -7.855034   -0.304571
    102          1           0       -2.511510   -5.088022   -0.766050
    103          1           0       -2.345635   -3.649410   -1.701697
    104          1           0       -4.071593   -2.839168    0.373216
    105          1           0       -4.503807   -5.257552   -2.597192
    106          1           0       -6.122848   -5.386896   -2.333937
    107          1           0       -5.004871   -6.273039   -1.245323
    108          1           0       -6.297242   -3.758713    0.811963
    109          1           0       -7.271199   -4.422728   -0.406257
    110          1           0       -8.203072   -2.641253   -0.822039
    111          1           0       -6.692287   -2.086590   -1.646675
    112          1           0       -5.884787   -1.183744    0.390118
    113          1           0       -7.478695   -1.620630    1.196419
    114          1           0       -7.551734   -0.074586   -1.272435
    115          1           0       -6.998129    2.118906   -0.307450
    116          1           0       -5.680534    0.917147   -0.116386
    117          1           0       -6.714924    1.391946    1.213556
    118          1           0       -9.205338    1.328997    0.609871
    119          1           0       -9.126426   -0.302824    1.253878
    120          1           0      -10.751586   -0.781525    0.018511
    121          1           0       -9.670447   -0.842626   -1.425687
    122          1           0      -10.299434    0.908999   -2.252739
    123          1           0      -10.657005    1.894056   -0.929636
    124          1           0      -12.498220   -0.491613   -1.338199
    125          1           0      -13.678582    1.680551   -2.932230
    126          1           0      -12.750269    0.379809   -3.712320
    127          1           0      -12.047112    1.914741   -3.198087
    128          1           0      -14.256862    1.423581   -0.673646
    129          1           0      -12.948184    2.530342   -0.714776
    130          1           0      -11.823222    1.604554    1.407517
    131          1           0      -12.631076    0.155884    1.223069
    132          1           0      -13.948841    0.701385    2.691597
    133          1           0      -14.819169    1.629665    1.472335
    134          1           0      -12.540096    3.124434    2.761434
    135          1           0      -14.570181    3.401861    4.807200
    136          1           0      -13.142107    2.323569    4.791561
    137          1           0      -14.750490    1.790723    4.196050
    138          1           0      -13.647968    4.814667    2.079291
    139          1           0      -15.259844    4.358715    2.783982
    140          1           0      -14.649332    3.819649    1.155465
 ---------------------------------------------------------------------

 SCF Done:  E(RB-LYP) =  -3007.37661922     A.U. after   21 cycles

 Excitation energies and oscillator strengths:

 Excited State   1:      Singlet-A      1.7561 eV  706.03 nm  f=0.0644  <S**2>=0.000
     244 -> 247        0.58977
     245 -> 247        0.18178
     246 -> 247        0.33355
 This state for optimization and/or second-order correction.
 Total Energy, E(TD-HF/TD-DFT) =  -3007.31208470
 Copying the excited state density for this state as the 1-particle RhoCI density.

 Excited State   2:      Singlet-A      1.7675 eV  701.48 nm  f=0.2301  <S**2>=0.000
     244 -> 247       -0.34702
     245 -> 248        0.15290
     246 -> 247        0.60057
     246 <- 247       -0.13311

 Excited State   3:      Singlet-A      1.9475 eV  636.64 nm  f=0.0877  <S**2>=0.000
     243 -> 247        0.11455
     244 -> 247       -0.17027
     245 -> 247        0.62228
     246 -> 248       -0.20827
     246 -> 249        0.10787

 Excited State   4:      Singlet-A      2.0837 eV  595.02 nm  f=0.0035  <S**2>=0.000
     243 -> 247        0.69630

 Excited State   5:      Singlet-A      2.4863 eV  498.68 nm  f=0.0057  <S**2>=0.000
     240 -> 247       -0.20814
     242 -> 247        0.65365
     246 -> 248        0.10190

 The electronic state is 1-A.
 Alpha  occ. eigenvalues --  -46.27429 -18.83928 -18.81599 -18.77141 -18.75771
 Alpha  occ. eigenvalues --  -18.75708 -18.74830 -14.03410 -14.03007 -14.01654
 Alpha  occ. eigenvalues --  -14.00658 -10.05108 -10.03246  -9.99903  -9.99002
 Alpha  occ. eigenvalues --   -9.98642  -9.96845  -9.96807  -9.96734  -9.96331
 Alpha  occ. eigenvalues --   -9.96230  -9.95992  -9.95958  -9.95929  -9.94732
 Alpha  occ. eigenvalues --   -9.94696  -9.94649  -9.94403  -9.94237  -9.94149
 Alpha  occ. eigenvalues --   -9.94143  -9.93940  -9.93815  -9.93795  -9.93522
 Alpha  occ. eigenvalues --   -9.93497  -9.93313  -9.93010  -9.92924  -9.92768
 Alpha  occ. eigenvalues --   -9.92719  -9.92664  -9.92605  -9.92553  -9.92524
 Alpha  occ. eigenvalues --   -9.92346  -9.92001  -9.91769  -9.91745  -9.91735
 Alpha  occ. eigenvalues --   -9.91702  -9.91674  -9.91624  -9.91528  -9.91383
 Alpha  occ. eigenvalues --   -9.91310  -9.91131  -9.91078  -9.90883  -9.90769
 Alpha  occ. eigenvalues --   -9.90672  -9.90620  -9.90593  -9.90552  -9.90534
 Alpha  occ. eigenvalues --   -9.90528  -2.91909  -1.72360  -1.71755  -1.71642
 Alpha  occ. eigenvalues --   -0.99189  -0.97103  -0.93010  -0.89477  -0.88347
 Alpha  occ. eigenvalues --   -0.87803  -0.86352  -0.85592  -0.84655  -0.83760
 Alpha  occ. eigenvalues --   -0.74680  -0.74266  -0.73566  -0.72672  -0.72626
 Alpha  occ. eigenvalues --   -0.72387  -0.71771  -0.71032  -0.70847  -0.70293
 Alpha  occ. eigenvalues --   -0.69407  -0.68769  -0.68334  -0.67472  -0.67073
 Alpha  occ. eigenvalues --   -0.66412  -0.65818  -0.65322  -0.64853  -0.64626
 Alpha  occ. eigenvalues --   -0.64192  -0.62605  -0.62510  -0.61741  -0.60964
 Alpha  occ. eigenvalues --   -0.60205  -0.60119  -0.59703  -0.59332  -0.58749
 Alpha  occ. eigenvalues --   -0.58679  -0.57516  -0.56559  -0.55711  -0.54438
 Alpha  occ. eigenvalues --   -0.53565  -0.52991  -0.52876  -0.52294  -0.51707
 Alpha  occ. eigenvalues --   -0.51541  -0.51040  -0.50889  -0.50540  -0.50228
 Alpha  occ. eigenvalues --   -0.49918  -0.49794  -0.49179  -0.47836  -0.46864
 Alpha  occ. eigenvalues --   -0.46250  -0.45644  -0.45358  -0.44792  -0.44166
 Alpha  occ. eigenvalues --   -0.43603  -0.43401  -0.42992  -0.42872  -0.42580
 Alpha  occ. eigenvalues --   -0.42424  -0.42069  -0.41538  -0.41350  -0.41241
 Alpha  occ. eigenvalues --   -0.40725  -0.40656  -0.40582  -0.40362  -0.40273
 Alpha  occ. eigenvalues --   -0.39887  -0.39702  -0.39613  -0.39288  -0.39255
 Alpha  occ. eigenvalues --   -0.39167  -0.38999  -0.38670  -0.38583  -0.38522
 Alpha  occ. eigenvalues --   -0.38121  -0.37901  -0.37589  -0.37575  -0.37023
 Alpha  occ. eigenvalues --   -0.36928  -0.36779  -0.36697  -0.36462  -0.36365
 Alpha  occ. eigenvalues --   -0.36274  -0.36159  -0.35905  -0.35679  -0.35455
 Alpha  occ. eigenvalues --   -0.35416  -0.35116  -0.34937  -0.34865  -0.34640
 Alpha  occ. eigenvalues --   -0.34595  -0.34506  -0.34348  -0.34152  -0.34074
 Alpha  occ. eigenvalues --   -0.33805  -0.33649  -0.33232  -0.32972  -0.32893
 Alpha  occ. eigenvalues --   -0.32696  -0.32610  -0.32367  -0.32220  -0.32199
 Alpha  occ. eigenvalues --   -0.32121  -0.32070  -0.31689  -0.31681  -0.31457
 Alpha  occ. eigenvalues --   -0.31401  -0.31264  -0.31152  -0.31030  -0.30556
 Alpha  occ. eigenvalues --   -0.30519  -0.30315  -0.30231  -0.29989  -0.29819
 Alpha  occ. eigenvalues --   -0.29604  -0.29558  -0.29179  -0.28903  -0.28746
 Alpha  occ. eigenvalues --   -0.28608  -0.28408  -0.28003  -0.27947  -0.27867
 Alpha  occ. eigenvalues --   -0.27501  -0.27264  -0.26931  -0.26899  -0.26247
 Alpha  occ. eigenvalues --   -0.26231  -0.26099  -0.25805  -0.25695  -0.25323
 Alpha  occ. eigenvalues --   -0.25145  -0.24284  -0.24010  -0.23586  -0.23457
 Alpha  occ. eigenvalues --   -0.23308  -0.22017  -0.21691  -0.21081  -0.20788
 Alpha  occ. eigenvalues --   -0.20761  -0.19944  -0.19029  -0.17839  -0.16975
 Alpha  occ. eigenvalues --   -0.15614
 Alpha virt. eigenvalues --   -0.11476  -0.06910  -0.06215  -0.04721  -0.04342
 Alpha virt. eigenvalues --   -0.02530  -0.02276  -0.01738  -0.01026   0.00090
 Alpha virt. eigenvalues --    0.01119   0.01516   0.02482   0.02850   0.02897

 Mulliken charges:
               1
     1  Mg   0.685165
     2  C    0.018708
     3  C   -0.078145
     4  C   -0.040182
     5  C   -0.040092
     6  N   -0.254629
     7  C   -0.034445
     8  C    0.025251
     9  C   -0.018013
    10  C    0.012919
    11  C    0.145938
    12  C    0.089317
    13  C    0.181319
    14  C    0.060445
    15  O   -0.240585
    16  O   -0.243997
    17  N   -0.255787
    18  C    0.167807
    19  C   -0.190168
    20  C    0.067447
    21  C    0.082326
    22  C    0.187375
    23  C   -0.123659
    24  O   -0.146358
    25  C    0.136451
    26  N   -0.200388
    27  C   -0.032096
    28  C    0.091082
    29  C    0.011668
    30  C    0.008215
    31  C    0.149952
    32  C    0.046992
    33  C    0.071602
    34  N   -0.278907
    35  C    0.087887
    36  C   -0.126939
    37  C    0.095445
    38  C    0.068526
    39  C    0.159652
    40  C   -0.052697
    41  O   -0.191903
    42  C    0.059874
    43  C    0.134707
    44  O   -0.209847
    45  O   -0.257125
    46  C    0.227367
    47  C    0.316785
    48  C   -0.123835
    49  C   -0.124259
    50  C    0.144672
    51  C    0.152637
    52  C    0.037500
    53  C    0.091940
    54  C   -0.039350
    55  C    0.100327
    56  C    0.142160
    57  C    0.044538
    58  C    0.084773
    59  C   -0.049899
    60  C    0.117128
    61  C    0.103687
    62  C    0.076439
    63  C    0.080155
    64  C   -0.117224
    65  C    0.111445
    66  C    0.115760
    67  H   -0.054820
    68  H   -0.054252
    69  H   -0.083381
    70  H   -0.009646
    71  H   -0.029819
    72  H   -0.014245
    73  H   -0.006036
    74  H    0.014286
    75  H   -0.021276
    76  H   -0.020751
    77  H   -0.010311
    78  H    0.015467
    79  H    0.018710
    80  H   -0.017903
    81  H    0.001170
    82  H    0.016345
    83  H    0.001728
    84  H   -0.002208
    85  H   -0.013801
    86  H   -0.020436
    87  H   -0.003500
    88  H   -0.023437
    89  H    0.002057
    90  H   -0.013395
    91  H   -0.031688
    92  H    0.011346
    93  H    0.003681
    94  H   -0.010518
    95  H    0.007225
    96  H   -0.010331
    97  H    0.005047
    98  H    0.005725
    99  H    0.003946
   100  H    0.034628
   101  H   -0.000864
   102  H    0.001978
   103  H    0.009409
   104  H   -0.020439
   105  H   -0.020034
   106  H   -0.015788
   107  H    0.016376
   108  H   -0.029673
   109  H   -0.052045
   110  H   -0.020580
   111  H   -0.029247
   112  H   -0.033978
   113  H   -0.036894
   114  H   -0.047103
   115  H   -0.022264
   116  H   -0.028768
   117  H   -0.028260
   118  H   -0.029009
   119  H   -0.049127
   120  H   -0.037513
   121  H   -0.011886
   122  H   -0.043927
   123  H   -0.037898
   124  H   -0.029455
   125  H   -0.035382
   126  H   -0.014231
   127  H   -0.025163
   128  H   -0.021983
   129  H   -0.028655
   130  H   -0.029092
   131  H   -0.042660
   132  H   -0.039760
   133  H   -0.035830
   134  H   -0.033564
   135  H   -0.018289
   136  H   -0.015529
   137  H   -0.017741
   138  H   -0.027712
   139  H   -0.005456
   140  H   -0.024427
 Sum of Mulliken charges =  -0.00000

 Dipole moment (field-independent basis, Debye):
    X=             -4.9587    Y=              2.7458    Z=              1.3306  Tot=              5.8223
 Quadrupole moment (field-independent basis, Debye-Ang):
   XX=           -397.2232   YY=           -427.8316   ZZ=           -403.3090
   XY=             45.2408   XZ=             16.7929   YZ=             -4.9207

 Normal termination of Gaussian 16 at Wed May  4 18:31:47 2022.
