 Gaussian 16, Revision A.03,
 Gaussian 16:  ES64L-G16RevA.03 25-Dec-2016

 -----------------------------------
 #p cam-b3lyp/Def2SVP td=(nstates=5)
 -----------------------------------

 -------------------------------------------------------
 step_301_chromophore_21 TDDFT with cam-b3lyp functional
 -------------------------------------------------------
 Symbolic Z-matrix:
 Charge =  0 Multiplicity = 1

                         Standard orientation:
 ---------------------------------------------------------------------
 Center     Atomic      Atomic             Coordinates (Angstroms)
 Number     Number       Type             X           Y           Z
 ---------------------------------------------------------------------
      1         12           0        5.003802    1.135687    0.055828
      2          6           0        4.781458   -2.355913    0.360703
      3          6           0        1.755782    1.222000   -1.066062
      4          6           0        5.323141    4.430078   -0.421626
      5          6           0        8.454819    0.945860    0.898664
      6          7           0        3.486983   -0.412439   -0.230744
      7          6           0        3.529777   -1.730979    0.163985
      8          6           0        2.096130   -2.384361    0.143185
      9          6           0        1.298353   -1.308411   -0.743080
     10          6           0        2.209681   -0.071370   -0.719042
     11          6           0        0.967272   -1.743096   -2.190753
     12          6           0        1.487491   -2.522771    1.542741
     13          6           0        0.284284   -3.508839    1.687333
     14          6           0       -0.528299   -3.929186    0.449731
     15          8           0       -0.059709   -4.719125   -0.404294
     16          8           0       -1.806128   -3.477076    0.381395
     17          7           0        3.709101    2.660216   -0.544302
     18          6           0        2.460920    2.445416   -1.056780
     19          6           0        1.928475    3.756220   -1.535009
     20          6           0        2.883340    4.764342   -1.216627
     21          6           0        4.029195    3.952661   -0.685887
     22          6           0        0.565447    3.975573   -2.221653
     23          6           0        2.825014    6.242077   -1.304253
     24          8           0        3.731627    6.891109   -0.850152
     25          6           0        1.665401    6.961799   -2.022342
     26          7           0        6.657680    2.520754    0.257244
     27          6           0        6.524689    3.847316   -0.036405
     28          6           0        7.805862    4.611900    0.245003
     29          6           0        8.820267    3.545675    0.729656
     30          6           0        7.934145    2.255566    0.642710
     31          6           0        8.272418    5.296698   -0.986721
     32          6           0        9.333830    3.514853    2.180956
     33          6           0       10.818041    3.001170    2.486283
     34          7           0        6.446173   -0.368988    0.474974
     35          6           0        7.842172   -0.314530    0.732971
     36          6           0        8.357492   -1.710243    0.917061
     37          6           0        7.166378   -2.503516    0.683874
     38          6           0        6.050673   -1.658159    0.509301
     39          6           0        9.753761   -2.112364    1.435999
     40          6           0        6.715556   -3.861166    0.692314
     41          8           0        7.305319   -4.973159    0.881079
     42          6           0        5.119609   -3.819529    0.628752
     43          6           0        4.625866   -4.816045   -0.407115
     44          8           0        4.664228   -4.619468   -1.635538
     45          8           0        4.080517   -5.910803    0.201060
     46          6           0        3.563413   -6.868617   -0.743557
     47          6           0       -2.613884   -4.004952   -0.706306
     48          6           0       -4.007727   -3.542173   -0.456504
     49          6           0       -5.130621   -4.124799   -0.864024
     50          6           0       -5.198264   -5.331435   -1.759669
     51          6           0       -6.435845   -3.735045   -0.269019
     52          6           0       -7.139040   -2.427737   -0.713730
     53          6           0       -6.964012   -1.302286    0.290186
     54          6           0       -7.592993    0.018084   -0.187598
     55          6           0       -6.707377    1.171729    0.146075
     56          6           0       -9.003521    0.290617    0.348565
     57          6           0      -10.055598   -0.229037   -0.612218
     58          6           0      -10.846530    0.890530   -1.310417
     59          6           0      -12.375539    0.581552   -1.481506
     60          6           0      -12.741533    1.123415   -2.915545
     61          6           0      -13.183039    1.488796   -0.495810
     62          6           0      -12.752833    1.213668    0.992157
     63          6           0      -13.871508    1.542044    2.003234
     64          6           0      -13.596712    2.861171    2.810129
     65          6           0      -14.045927    2.619506    4.259170
     66          6           0      -14.401467    4.036632    2.194724
     67          1           0        0.690364    1.231779   -1.304875
     68          1           0        5.437296    5.507027   -0.556567
     69          1           0        9.490369    0.882124    1.238425
     70          1           0        2.161380   -3.413062   -0.208729
     71          1           0        0.387186   -0.977017   -0.244107
     72          1           0        1.429276   -0.943261   -2.770312
     73          1           0       -0.098167   -1.837742   -2.400283
     74          1           0        1.447835   -2.687757   -2.444053
     75          1           0        1.239774   -1.523289    1.900971
     76          1           0        2.238765   -2.917259    2.227095
     77          1           0       -0.446355   -3.034449    2.342548
     78          1           0        0.689005   -4.441514    2.079040
     79          1           0       -0.076306    4.576455   -1.576455
     80          1           0        0.212058    2.981877   -2.496805
     81          1           0        0.772589    4.420975   -3.193977
     82          1           0        0.837692    6.890824   -1.316441
     83          1           0        1.473835    6.507778   -2.995025
     84          1           0        2.075147    7.951670   -2.219472
     85          1           0        7.462093    5.274619    1.040174
     86          1           0        9.725006    3.429615    0.132711
     87          1           0        9.318363    5.122797   -1.242061
     88          1           0        8.259219    6.345771   -0.691382
     89          1           0        7.537278    5.343064   -1.790507
     90          1           0        8.781662    2.818081    2.812067
     91          1           0        9.055390    4.480761    2.603030
     92          1           0       10.777061    1.949949    2.773814
     93          1           0       11.324501    3.548572    3.281991
     94          1           0       11.227656    3.120266    1.484201
     95          1           0        9.684174   -2.956163    2.123995
     96          1           0       10.286223   -1.302467    1.932564
     97          1           0       10.413402   -2.503893    0.660549
     98          1           0        4.807282   -4.027227    1.652203
     99          1           0        4.444496   -7.118768   -1.335517
    100          1           0        2.704911   -6.457577   -1.274294
    101          1           0        3.414911   -7.855034   -0.304571
    102          1           0       -2.511510   -5.088022   -0.766050
    103          1           0       -2.345635   -3.649410   -1.701697
    104          1           0       -4.071593   -2.839168    0.373216
    105          1           0       -4.503807   -5.257552   -2.597192
    106          1           0       -6.122848   -5.386896   -2.333937
    107          1           0       -5.004871   -6.273039   -1.245323
    108          1           0       -6.297242   -3.758713    0.811963
    109          1           0       -7.271199   -4.422728   -0.406257
    110          1           0       -8.203072   -2.641253   -0.822039
    111          1           0       -6.692287   -2.086590   -1.646675
    112          1           0       -5.884787   -1.183744    0.390118
    113          1           0       -7.478695   -1.620630    1.196419
    114          1           0       -7.551734   -0.074586   -1.272435
    115          1           0       -6.998129    2.118906   -0.307450
    116          1           0       -5.680534    0.917147   -0.116386
    117          1           0       -6.714924    1.391946    1.213556
    118          1           0       -9.205338    1.328997    0.609871
    119          1           0       -9.126426   -0.302824    1.253878
    120          1           0      -10.751586   -0.781525    0.018511
    121          1           0       -9.670447   -0.842626   -1.425687
    122          1           0      -10.299434    0.908999   -2.252739
    123          1           0      -10.657005    1.894056   -0.929636
    124          1           0      -12.498220   -0.491613   -1.338199
    125          1           0      -13.678582    1.680551   -2.932230
    126          1           0      -12.750269    0.379809   -3.712320
    127          1           0      -12.047112    1.914741   -3.198087
    128          1           0      -14.256862    1.423581   -0.673646
    129          1           0      -12.948184    2.530342   -0.714776
    130          1           0      -11.823222    1.604554    1.407517
    131          1           0      -12.631076    0.155884    1.223069
    132          1           0      -13.948841    0.701385    2.691597
    133          1           0      -14.819169    1.629665    1.472335
    134          1           0      -12.540096    3.124434    2.761434
    135          1           0      -14.570181    3.401861    4.807200
    136          1           0      -13.142107    2.323569    4.791561
    137          1           0      -14.750490    1.790723    4.196050
    138          1           0      -13.647968    4.814667    2.079291
    139          1           0      -15.259844    4.358715    2.783982
    140          1           0      -14.649332    3.819649    1.155465
 ---------------------------------------------------------------------

 SCF Done:  E(RCAM-B3LYP) =  -3007.16204524     A.U. after   17 cycles

 Excitation energies and oscillator strengths:

 Excited State   1:      Singlet-A      1.6626 eV  745.72 nm  f=0.3877  <S**2>=0.000
     245 -> 248        0.17820
     246 -> 247        0.68537
     245 <- 248        0.10800
 This state for optimization and/or second-order correction.
 Total Energy, E(TD-HF/TD-DFT) =  -3007.10094532
 Copying the excited state density for this state as the 1-particle RhoCI density.

 Excited State   2:      Singlet-A      2.1734 eV  570.46 nm  f=0.1114  <S**2>=0.000
     245 -> 247        0.64116
     246 -> 248       -0.28536

 Excited State   3:      Singlet-A      3.2765 eV  378.40 nm  f=0.0038  <S**2>=0.000
     241 -> 247        0.13486
     243 -> 247        0.51854
     243 -> 249       -0.29133
     243 -> 250       -0.21137
     244 -> 247       -0.21345

 Excited State   4:      Singlet-A      3.3362 eV  371.64 nm  f=0.0195  <S**2>=0.000
     243 -> 247        0.20872
     244 -> 247        0.61383
     246 -> 248        0.22684

 Excited State   5:      Singlet-A      3.4938 eV  354.87 nm  f=0.6763  <S**2>=0.000
     243 -> 247       -0.10659
     244 -> 247       -0.18724
     245 -> 247        0.27872
     246 -> 248        0.59223
     245 <- 247       -0.10679

 The electronic state is 1-A.
 Alpha  occ. eigenvalues --  -46.88967 -19.26809 -19.24467 -19.20078 -19.19198
 Alpha  occ. eigenvalues --  -19.18744 -19.17854 -14.42241 -14.41937 -14.40270
 Alpha  occ. eigenvalues --  -14.38994 -10.40434 -10.38706 -10.35251 -10.34359
 Alpha  occ. eigenvalues --  -10.32623 -10.31486 -10.31334 -10.31037 -10.30829
 Alpha  occ. eigenvalues --  -10.30536 -10.30447 -10.30184 -10.30069 -10.29300
 Alpha  occ. eigenvalues --  -10.29245 -10.28952 -10.28617 -10.28335 -10.28184
 Alpha  occ. eigenvalues --  -10.28037 -10.27998 -10.27877 -10.27833 -10.27658
 Alpha  occ. eigenvalues --  -10.27598 -10.27445 -10.27241 -10.27092 -10.27060
 Alpha  occ. eigenvalues --  -10.26635 -10.26455 -10.26358 -10.26321 -10.26259
 Alpha  occ. eigenvalues --  -10.26162 -10.25727 -10.25709 -10.25673 -10.25459
 Alpha  occ. eigenvalues --  -10.25369 -10.25363 -10.25355 -10.25343 -10.25298
 Alpha  occ. eigenvalues --  -10.24977 -10.24834 -10.24735 -10.24533 -10.24403
 Alpha  occ. eigenvalues --  -10.24368 -10.24303 -10.24247 -10.24146 -10.24133
 Alpha  occ. eigenvalues --  -10.24119  -3.17348  -1.92279  -1.91771  -1.91672
 Alpha  occ. eigenvalues --   -1.17574  -1.15534  -1.11680  -1.07305  -1.06339
 Alpha  occ. eigenvalues --   -1.05872  -1.04130  -1.03244  -1.02222  -1.01170
 Alpha  occ. eigenvalues --   -0.91606  -0.91278  -0.90389  -0.89417  -0.89248
 Alpha  occ. eigenvalues --   -0.89130  -0.88513  -0.87634  -0.87437  -0.87166
 Alpha  occ. eigenvalues --   -0.85707  -0.85141  -0.84628  -0.83587  -0.83159
 Alpha  occ. eigenvalues --   -0.82501  -0.81852  -0.81532  -0.80785  -0.80461
 Alpha  occ. eigenvalues --   -0.79958  -0.78462  -0.78122  -0.77207  -0.76338
 Alpha  occ. eigenvalues --   -0.75545  -0.75496  -0.74990  -0.74604  -0.73975
 Alpha  occ. eigenvalues --   -0.73719  -0.72471  -0.71471  -0.70529  -0.68977
 Alpha  occ. eigenvalues --   -0.68304  -0.67465  -0.67372  -0.66664  -0.65781
 Alpha  occ. eigenvalues --   -0.65640  -0.65191  -0.64920  -0.64526  -0.64279
 Alpha  occ. eigenvalues --   -0.63867  -0.63820  -0.63165  -0.61485  -0.60315
 Alpha  occ. eigenvalues --   -0.59927  -0.59194  -0.58736  -0.58142  -0.57564
 Alpha  occ. eigenvalues --   -0.57086  -0.56571  -0.56194  -0.56080  -0.55780
 Alpha  occ. eigenvalues --   -0.55504  -0.55195  -0.54732  -0.54356  -0.54008
 Alpha  occ. eigenvalues --   -0.53664  -0.53600  -0.53421  -0.53041  -0.52939
 Alpha  occ. eigenvalues --   -0.52540  -0.52508  -0.52227  -0.52053  -0.51790
 Alpha  occ. eigenvalues --   -0.51587  -0.51403  -0.51107  -0.51046  -0.50823
 Alpha  occ. eigenvalues --   -0.50593  -0.50054  -0.49965  -0.49864  -0.49610
 Alpha  occ. eigenvalues --   -0.49311  -0.49169  -0.49022  -0.48773  -0.48567
 Alpha  occ. eigenvalues --   -0.48473  -0.48299  -0.48131  -0.47898  -0.47809
 Alpha  occ. eigenvalues --   -0.47676  -0.47407  -0.46855  -0.46753  -0.46668
 Alpha  occ. eigenvalues --   -0.46451  -0.46283  -0.46230  -0.45991  -0.45867
 Alpha  occ. eigenvalues --   -0.45736  -0.45409  -0.45030  -0.44633  -0.44574
 Alpha  occ. eigenvalues --   -0.44363  -0.44311  -0.44157  -0.44017  -0.43815
 Alpha  occ. eigenvalues --   -0.43756  -0.43622  -0.43450  -0.43331  -0.43169
 Alpha  occ. eigenvalues --   -0.43019  -0.42897  -0.42645  -0.42418  -0.42051
 Alpha  occ. eigenvalues --   -0.41809  -0.41714  -0.41468  -0.41208  -0.41032
 Alpha  occ. eigenvalues --   -0.40944  -0.40608  -0.40529  -0.39894  -0.39870
 Alpha  occ. eigenvalues --   -0.39851  -0.39595  -0.39351  -0.38947  -0.38806
 Alpha  occ. eigenvalues --   -0.38404  -0.38143  -0.37791  -0.37668  -0.37575
 Alpha  occ. eigenvalues --   -0.37555  -0.36820  -0.36688  -0.36314  -0.35953
 Alpha  occ. eigenvalues --   -0.35791  -0.35737  -0.34455  -0.34267  -0.34034
 Alpha  occ. eigenvalues --   -0.33996  -0.33373  -0.32653  -0.31517  -0.31093
 Alpha  occ. eigenvalues --   -0.30457  -0.30397  -0.29826  -0.29035  -0.23734
 Alpha  occ. eigenvalues --   -0.20847
 Alpha virt. eigenvalues --   -0.08632  -0.01677   0.00103   0.02145   0.03206
 Alpha virt. eigenvalues --    0.03675   0.04930   0.05300   0.05750   0.06431
 Alpha virt. eigenvalues --    0.08060   0.08416   0.08972   0.09084   0.09141

 Mulliken charges:
               1
     1  Mg   0.817316
     2  C   -0.001975
     3  C   -0.094405
     4  C   -0.062279
     5  C   -0.049572
     6  N   -0.324944
     7  C    0.006632
     8  C   -0.028714
     9  C   -0.073020
    10  C    0.032247
    11  C    0.089943
    12  C    0.046252
    13  C    0.113312
    14  C    0.137112
    15  O   -0.281188
    16  O   -0.309552
    17  N   -0.344274
    18  C    0.173852
    19  C   -0.193076
    20  C   -0.000726
    21  C    0.111019
    22  C    0.131069
    23  C   -0.044592
    24  O   -0.187566
    25  C    0.059730
    26  N   -0.271236
    27  C   -0.006563
    28  C    0.030825
    29  C   -0.039035
    30  C    0.028000
    31  C    0.082718
    32  C   -0.010598
    33  C    0.012933
    34  N   -0.364949
    35  C    0.090499
    36  C   -0.118740
    37  C    0.009975
    38  C    0.102245
    39  C    0.111593
    40  C    0.047441
    41  O   -0.232335
    42  C   -0.015820
    43  C    0.218475
    44  O   -0.246422
    45  O   -0.318897
    46  C    0.183014
    47  C    0.285251
    48  C   -0.141333
    49  C   -0.147535
    50  C    0.078876
    51  C    0.085249
    52  C   -0.009923
    53  C    0.041865
    54  C   -0.098702
    55  C    0.043580
    56  C    0.083531
    57  C   -0.006408
    58  C    0.031706
    59  C   -0.109883
    60  C    0.057614
    61  C    0.053342
    62  C    0.020184
    63  C    0.026473
    64  C   -0.172982
    65  C    0.049480
    66  C    0.057833
    67  H   -0.019681
    68  H   -0.013873
    69  H   -0.048844
    70  H    0.024345
    71  H    0.004981
    72  H    0.012223
    73  H    0.016104
    74  H    0.039821
    75  H    0.008046
    76  H    0.010501
    77  H    0.024312
    78  H    0.046879
    79  H    0.044230
    80  H    0.010961
    81  H    0.027995
    82  H    0.043033
    83  H    0.029237
    84  H    0.032875
    85  H    0.021745
    86  H    0.013416
    87  H    0.023030
    88  H    0.002924
    89  H    0.029641
    90  H    0.017810
    91  H   -0.002854
    92  H    0.029746
    93  H    0.029180
    94  H    0.010090
    95  H    0.033781
    96  H    0.012248
    97  H    0.031528
    98  H    0.047559
    99  H    0.028776
   100  H    0.056488
   101  H    0.024012
   102  H    0.031710
   103  H    0.034168
   104  H    0.013302
   105  H    0.005383
   106  H    0.010622
   107  H    0.041043
   108  H    0.002282
   109  H   -0.017410
   110  H    0.005504
   111  H   -0.001083
   112  H   -0.008074
   113  H   -0.009307
   114  H   -0.015557
   115  H    0.002983
   116  H   -0.003780
   117  H   -0.004043
   118  H   -0.000648
   119  H   -0.018303
   120  H   -0.010352
   121  H    0.013050
   122  H   -0.013583
   123  H   -0.009860
   124  H    0.002971
   125  H   -0.009670
   126  H    0.011327
   127  H   -0.000348
   128  H    0.006574
   129  H   -0.002010
   130  H   -0.004464
   131  H   -0.013907
   132  H   -0.008947
   133  H   -0.007040
   134  H   -0.002567
   135  H    0.006912
   136  H    0.008587
   137  H    0.005533
   138  H   -0.003026
   139  H    0.018309
   140  H   -0.002489
 Sum of Mulliken charges =  -0.00000

 Dipole moment (field-independent basis, Debye):
    X=             -5.5032    Y=              3.4506    Z=              1.1951  Tot=              6.6046
 Quadrupole moment (field-independent basis, Debye-Ang):
   XX=           -399.3308   YY=           -424.0839   ZZ=           -402.5378
   XY=             47.1526   XZ=             17.4349   YZ=             -6.8507

 Normal termination of Gaussian 16 at Wed May  4 17:26:05 2022.
