 Gaussian 16, Revision A.03,
 Gaussian 16:  ES64L-G16RevA.03 25-Dec-2016

 ---------------------------------
 #p PBE1PBE/Def2SVP td=(nstates=5)
 ---------------------------------

 -----------------------------------------------------
 step_301_chromophore_21 TDDFT with PBE1PBE functional
 -----------------------------------------------------
 Symbolic Z-matrix:
 Charge =  0 Multiplicity = 1

                         Standard orientation:
 ---------------------------------------------------------------------
 Center     Atomic      Atomic             Coordinates (Angstroms)
 Number     Number       Type             X           Y           Z
 ---------------------------------------------------------------------
      1         12           0        5.003802    1.135687    0.055828
      2          6           0        4.781458   -2.355913    0.360703
      3          6           0        1.755782    1.222000   -1.066062
      4          6           0        5.323141    4.430078   -0.421626
      5          6           0        8.454819    0.945860    0.898664
      6          7           0        3.486983   -0.412439   -0.230744
      7          6           0        3.529777   -1.730979    0.163985
      8          6           0        2.096130   -2.384361    0.143185
      9          6           0        1.298353   -1.308411   -0.743080
     10          6           0        2.209681   -0.071370   -0.719042
     11          6           0        0.967272   -1.743096   -2.190753
     12          6           0        1.487491   -2.522771    1.542741
     13          6           0        0.284284   -3.508839    1.687333
     14          6           0       -0.528299   -3.929186    0.449731
     15          8           0       -0.059709   -4.719125   -0.404294
     16          8           0       -1.806128   -3.477076    0.381395
     17          7           0        3.709101    2.660216   -0.544302
     18          6           0        2.460920    2.445416   -1.056780
     19          6           0        1.928475    3.756220   -1.535009
     20          6           0        2.883340    4.764342   -1.216627
     21          6           0        4.029195    3.952661   -0.685887
     22          6           0        0.565447    3.975573   -2.221653
     23          6           0        2.825014    6.242077   -1.304253
     24          8           0        3.731627    6.891109   -0.850152
     25          6           0        1.665401    6.961799   -2.022342
     26          7           0        6.657680    2.520754    0.257244
     27          6           0        6.524689    3.847316   -0.036405
     28          6           0        7.805862    4.611900    0.245003
     29          6           0        8.820267    3.545675    0.729656
     30          6           0        7.934145    2.255566    0.642710
     31          6           0        8.272418    5.296698   -0.986721
     32          6           0        9.333830    3.514853    2.180956
     33          6           0       10.818041    3.001170    2.486283
     34          7           0        6.446173   -0.368988    0.474974
     35          6           0        7.842172   -0.314530    0.732971
     36          6           0        8.357492   -1.710243    0.917061
     37          6           0        7.166378   -2.503516    0.683874
     38          6           0        6.050673   -1.658159    0.509301
     39          6           0        9.753761   -2.112364    1.435999
     40          6           0        6.715556   -3.861166    0.692314
     41          8           0        7.305319   -4.973159    0.881079
     42          6           0        5.119609   -3.819529    0.628752
     43          6           0        4.625866   -4.816045   -0.407115
     44          8           0        4.664228   -4.619468   -1.635538
     45          8           0        4.080517   -5.910803    0.201060
     46          6           0        3.563413   -6.868617   -0.743557
     47          6           0       -2.613884   -4.004952   -0.706306
     48          6           0       -4.007727   -3.542173   -0.456504
     49          6           0       -5.130621   -4.124799   -0.864024
     50          6           0       -5.198264   -5.331435   -1.759669
     51          6           0       -6.435845   -3.735045   -0.269019
     52          6           0       -7.139040   -2.427737   -0.713730
     53          6           0       -6.964012   -1.302286    0.290186
     54          6           0       -7.592993    0.018084   -0.187598
     55          6           0       -6.707377    1.171729    0.146075
     56          6           0       -9.003521    0.290617    0.348565
     57          6           0      -10.055598   -0.229037   -0.612218
     58          6           0      -10.846530    0.890530   -1.310417
     59          6           0      -12.375539    0.581552   -1.481506
     60          6           0      -12.741533    1.123415   -2.915545
     61          6           0      -13.183039    1.488796   -0.495810
     62          6           0      -12.752833    1.213668    0.992157
     63          6           0      -13.871508    1.542044    2.003234
     64          6           0      -13.596712    2.861171    2.810129
     65          6           0      -14.045927    2.619506    4.259170
     66          6           0      -14.401467    4.036632    2.194724
     67          1           0        0.690364    1.231779   -1.304875
     68          1           0        5.437296    5.507027   -0.556567
     69          1           0        9.490369    0.882124    1.238425
     70          1           0        2.161380   -3.413062   -0.208729
     71          1           0        0.387186   -0.977017   -0.244107
     72          1           0        1.429276   -0.943261   -2.770312
     73          1           0       -0.098167   -1.837742   -2.400283
     74          1           0        1.447835   -2.687757   -2.444053
     75          1           0        1.239774   -1.523289    1.900971
     76          1           0        2.238765   -2.917259    2.227095
     77          1           0       -0.446355   -3.034449    2.342548
     78          1           0        0.689005   -4.441514    2.079040
     79          1           0       -0.076306    4.576455   -1.576455
     80          1           0        0.212058    2.981877   -2.496805
     81          1           0        0.772589    4.420975   -3.193977
     82          1           0        0.837692    6.890824   -1.316441
     83          1           0        1.473835    6.507778   -2.995025
     84          1           0        2.075147    7.951670   -2.219472
     85          1           0        7.462093    5.274619    1.040174
     86          1           0        9.725006    3.429615    0.132711
     87          1           0        9.318363    5.122797   -1.242061
     88          1           0        8.259219    6.345771   -0.691382
     89          1           0        7.537278    5.343064   -1.790507
     90          1           0        8.781662    2.818081    2.812067
     91          1           0        9.055390    4.480761    2.603030
     92          1           0       10.777061    1.949949    2.773814
     93          1           0       11.324501    3.548572    3.281991
     94          1           0       11.227656    3.120266    1.484201
     95          1           0        9.684174   -2.956163    2.123995
     96          1           0       10.286223   -1.302467    1.932564
     97          1           0       10.413402   -2.503893    0.660549
     98          1           0        4.807282   -4.027227    1.652203
     99          1           0        4.444496   -7.118768   -1.335517
    100          1           0        2.704911   -6.457577   -1.274294
    101          1           0        3.414911   -7.855034   -0.304571
    102          1           0       -2.511510   -5.088022   -0.766050
    103          1           0       -2.345635   -3.649410   -1.701697
    104          1           0       -4.071593   -2.839168    0.373216
    105          1           0       -4.503807   -5.257552   -2.597192
    106          1           0       -6.122848   -5.386896   -2.333937
    107          1           0       -5.004871   -6.273039   -1.245323
    108          1           0       -6.297242   -3.758713    0.811963
    109          1           0       -7.271199   -4.422728   -0.406257
    110          1           0       -8.203072   -2.641253   -0.822039
    111          1           0       -6.692287   -2.086590   -1.646675
    112          1           0       -5.884787   -1.183744    0.390118
    113          1           0       -7.478695   -1.620630    1.196419
    114          1           0       -7.551734   -0.074586   -1.272435
    115          1           0       -6.998129    2.118906   -0.307450
    116          1           0       -5.680534    0.917147   -0.116386
    117          1           0       -6.714924    1.391946    1.213556
    118          1           0       -9.205338    1.328997    0.609871
    119          1           0       -9.126426   -0.302824    1.253878
    120          1           0      -10.751586   -0.781525    0.018511
    121          1           0       -9.670447   -0.842626   -1.425687
    122          1           0      -10.299434    0.908999   -2.252739
    123          1           0      -10.657005    1.894056   -0.929636
    124          1           0      -12.498220   -0.491613   -1.338199
    125          1           0      -13.678582    1.680551   -2.932230
    126          1           0      -12.750269    0.379809   -3.712320
    127          1           0      -12.047112    1.914741   -3.198087
    128          1           0      -14.256862    1.423581   -0.673646
    129          1           0      -12.948184    2.530342   -0.714776
    130          1           0      -11.823222    1.604554    1.407517
    131          1           0      -12.631076    0.155884    1.223069
    132          1           0      -13.948841    0.701385    2.691597
    133          1           0      -14.819169    1.629665    1.472335
    134          1           0      -12.540096    3.124434    2.761434
    135          1           0      -14.570181    3.401861    4.807200
    136          1           0      -13.142107    2.323569    4.791561
    137          1           0      -14.750490    1.790723    4.196050
    138          1           0      -13.647968    4.814667    2.079291
    139          1           0      -15.259844    4.358715    2.783982
    140          1           0      -14.649332    3.819649    1.155465
 ---------------------------------------------------------------------

 SCF Done:  E(RPBE1PBE) =  -3005.35158647     A.U. after   15 cycles

 Excitation energies and oscillator strengths:

 Excited State   1:      Singlet-A      1.8189 eV  681.63 nm  f=0.3713  <S**2>=0.000
     245 -> 248        0.16867
     246 -> 247        0.69294
     246 <- 247       -0.11047
 This state for optimization and/or second-order correction.
 Total Energy, E(TD-HF/TD-DFT) =  -3005.28474191
 Copying the excited state density for this state as the 1-particle RhoCI density.

 Excited State   2:      Singlet-A      2.1673 eV  572.06 nm  f=0.1123  <S**2>=0.000
     245 -> 247        0.65441
     246 -> 248       -0.25008

 Excited State   3:      Singlet-A      2.7871 eV  444.85 nm  f=0.0008  <S**2>=0.000
     243 -> 247        0.36951
     243 -> 249       -0.11513
     244 -> 247        0.55915
     244 -> 249       -0.13524

 Excited State   4:      Singlet-A      3.0067 eV  412.37 nm  f=0.0015  <S**2>=0.000
     243 -> 247        0.56740
     244 -> 247       -0.38282
     246 -> 248        0.12236

 Excited State   5:      Singlet-A      3.1984 eV  387.64 nm  f=0.0075  <S**2>=0.000
     239 -> 247        0.10315
     240 -> 247        0.48338
     240 -> 249        0.10295
     241 -> 247        0.43965
     241 -> 249        0.10340
     246 -> 248        0.10297

 The electronic state is 1-A.
 Alpha  occ. eigenvalues --  -46.92375 -19.27486 -19.25165 -19.20387 -19.19304
 Alpha  occ. eigenvalues --  -19.19052 -19.18236 -14.41840 -14.41409 -14.39829
 Alpha  occ. eigenvalues --  -14.38745 -10.37508 -10.35783 -10.32268 -10.31612
 Alpha  occ. eigenvalues --  -10.30027 -10.29159 -10.29156 -10.28939 -10.28389
 Alpha  occ. eigenvalues --  -10.28142 -10.28131 -10.27978 -10.27445 -10.27072
 Alpha  occ. eigenvalues --  -10.26873 -10.26738 -10.26171 -10.26129 -10.25976
 Alpha  occ. eigenvalues --  -10.25934 -10.25918 -10.25562 -10.25463 -10.25447
 Alpha  occ. eigenvalues --  -10.25102 -10.24930 -10.24835 -10.24727 -10.24711
 Alpha  occ. eigenvalues --  -10.24036 -10.24002 -10.23955 -10.23884 -10.23825
 Alpha  occ. eigenvalues --  -10.23541 -10.23300 -10.23275 -10.23251 -10.23215
 Alpha  occ. eigenvalues --  -10.23134 -10.22915 -10.22907 -10.22845 -10.22733
 Alpha  occ. eigenvalues --  -10.22657 -10.22397 -10.22291 -10.22093 -10.21949
 Alpha  occ. eigenvalues --  -10.21889 -10.21817 -10.21787 -10.21528 -10.21508
 Alpha  occ. eigenvalues --  -10.21499  -3.14342  -1.87214  -1.86683  -1.86587
 Alpha  occ. eigenvalues --   -1.12407  -1.10375  -1.06324  -1.02148  -1.01162
 Alpha  occ. eigenvalues --   -1.00708  -0.98717  -0.97860  -0.96872  -0.95872
 Alpha  occ. eigenvalues --   -0.85749  -0.85693  -0.84515  -0.83607  -0.83582
 Alpha  occ. eigenvalues --   -0.83239  -0.82820  -0.81764  -0.81726  -0.81331
 Alpha  occ. eigenvalues --   -0.79945  -0.79488  -0.78881  -0.77870  -0.77444
 Alpha  occ. eigenvalues --   -0.76775  -0.76017  -0.75649  -0.74932  -0.74739
 Alpha  occ. eigenvalues --   -0.74312  -0.72675  -0.72415  -0.71538  -0.70513
 Alpha  occ. eigenvalues --   -0.69912  -0.69570  -0.69375  -0.68760  -0.68124
 Alpha  occ. eigenvalues --   -0.68030  -0.66961  -0.65869  -0.64866  -0.63397
 Alpha  occ. eigenvalues --   -0.62698  -0.61909  -0.61713  -0.60899  -0.60178
 Alpha  occ. eigenvalues --   -0.60018  -0.59526  -0.59318  -0.59129  -0.58458
 Alpha  occ. eigenvalues --   -0.58397  -0.57925  -0.57314  -0.56118  -0.54751
 Alpha  occ. eigenvalues --   -0.54443  -0.53718  -0.53369  -0.52774  -0.52188
 Alpha  occ. eigenvalues --   -0.51564  -0.50955  -0.50719  -0.50632  -0.50234
 Alpha  occ. eigenvalues --   -0.49974  -0.49659  -0.49303  -0.48954  -0.48484
 Alpha  occ. eigenvalues --   -0.48157  -0.48080  -0.47821  -0.47752  -0.47410
 Alpha  occ. eigenvalues --   -0.47144  -0.47056  -0.46789  -0.46641  -0.46384
 Alpha  occ. eigenvalues --   -0.46060  -0.46020  -0.45711  -0.45524  -0.45395
 Alpha  occ. eigenvalues --   -0.45139  -0.44668  -0.44537  -0.44401  -0.44186
 Alpha  occ. eigenvalues --   -0.43851  -0.43686  -0.43598  -0.43408  -0.43239
 Alpha  occ. eigenvalues --   -0.43104  -0.42926  -0.42766  -0.42570  -0.42432
 Alpha  occ. eigenvalues --   -0.42251  -0.42069  -0.41563  -0.41443  -0.41308
 Alpha  occ. eigenvalues --   -0.41128  -0.40978  -0.40816  -0.40681  -0.40667
 Alpha  occ. eigenvalues --   -0.40442  -0.40174  -0.39807  -0.39407  -0.39312
 Alpha  occ. eigenvalues --   -0.39111  -0.39069  -0.38845  -0.38841  -0.38578
 Alpha  occ. eigenvalues --   -0.38458  -0.38311  -0.38231  -0.38006  -0.37969
 Alpha  occ. eigenvalues --   -0.37831  -0.37612  -0.37546  -0.37127  -0.36908
 Alpha  occ. eigenvalues --   -0.36650  -0.36558  -0.36401  -0.36117  -0.35945
 Alpha  occ. eigenvalues --   -0.35660  -0.35411  -0.35381  -0.34809  -0.34646
 Alpha  occ. eigenvalues --   -0.34643  -0.34367  -0.34301  -0.33894  -0.33602
 Alpha  occ. eigenvalues --   -0.33126  -0.32944  -0.32728  -0.32589  -0.32541
 Alpha  occ. eigenvalues --   -0.32441  -0.31753  -0.31687  -0.31408  -0.30828
 Alpha  occ. eigenvalues --   -0.30714  -0.30601  -0.29481  -0.29405  -0.28944
 Alpha  occ. eigenvalues --   -0.28871  -0.28546  -0.27921  -0.26799  -0.26102
 Alpha  occ. eigenvalues --   -0.26002  -0.25676  -0.24917  -0.24673  -0.20668
 Alpha  occ. eigenvalues --   -0.18526
 Alpha virt. eigenvalues --   -0.11090  -0.05210  -0.04064  -0.02216  -0.01181
 Alpha virt. eigenvalues --    0.00474   0.00531   0.00998   0.01526   0.02819
 Alpha virt. eigenvalues --    0.03901   0.04579   0.05401   0.05792   0.05881

 Mulliken charges:
               1
     1  Mg   0.967036
     2  C    0.003348
     3  C   -0.081104
     4  C   -0.056683
     5  C   -0.052838
     6  N   -0.421940
     7  C    0.077523
     8  C   -0.110234
     9  C   -0.145843
    10  C    0.059902
    11  C    0.034219
    12  C    0.003090
    13  C    0.037459
    14  C    0.203818
    15  O   -0.311340
    16  O   -0.344433
    17  N   -0.463714
    18  C    0.190632
    19  C   -0.217964
    20  C   -0.045920
    21  C    0.144299
    22  C    0.068822
    23  C    0.006904
    24  O   -0.225485
    25  C   -0.014627
    26  N   -0.376426
    27  C    0.031635
    28  C   -0.054658
    29  C   -0.110467
    30  C    0.062136
    31  C    0.027727
    32  C   -0.064828
    33  C   -0.062988
    34  N   -0.484212
    35  C    0.116312
    36  C   -0.126169
    37  C   -0.041618
    38  C    0.144603
    39  C    0.059169
    40  C    0.133303
    41  O   -0.273923
    42  C   -0.127370
    43  C    0.301722
    44  O   -0.278476
    45  O   -0.351637
    46  C    0.127540
    47  C    0.250013
    48  C   -0.153808
    49  C   -0.195597
    50  C    0.016543
    51  C    0.025370
    52  C   -0.075544
    53  C   -0.011972
    54  C   -0.188807
    55  C   -0.017811
    56  C    0.028962
    57  C   -0.069082
    58  C   -0.013139
    59  C   -0.205394
    60  C    0.000083
    61  C   -0.001117
    62  C   -0.042268
    63  C   -0.027377
    64  C   -0.263189
    65  C   -0.012938
    66  C   -0.001392
    67  H    0.011903
    68  H    0.018843
    69  H   -0.010947
    70  H    0.067522
    71  H    0.041368
    72  H    0.041377
    73  H    0.043719
    74  H    0.065858
    75  H    0.040081
    76  H    0.044974
    77  H    0.056682
    78  H    0.077910
    79  H    0.071133
    80  H    0.038263
    81  H    0.055984
    82  H    0.069778
    83  H    0.055640
    84  H    0.059536
    85  H    0.057575
    86  H    0.049023
    87  H    0.049856
    88  H    0.031410
    89  H    0.057546
    90  H    0.052257
    91  H    0.031156
    92  H    0.055521
    93  H    0.057478
    94  H    0.038530
    95  H    0.061141
    96  H    0.038470
    97  H    0.059333
    98  H    0.085109
    99  H    0.051313
   100  H    0.078091
   101  H    0.046566
   102  H    0.057551
   103  H    0.060990
   104  H    0.042870
   105  H    0.033042
   106  H    0.038014
   107  H    0.067897
   108  H    0.035103
   109  H    0.015190
   110  H    0.039043
   111  H    0.032329
   112  H    0.026503
   113  H    0.023452
   114  H    0.023579
   115  H    0.031749
   116  H    0.024522
   117  H    0.024834
   118  H    0.029739
   119  H    0.014883
   120  H    0.022368
   121  H    0.044409
   122  H    0.020402
   123  H    0.020648
   124  H    0.038490
   125  H    0.017975
   126  H    0.039512
   127  H    0.027219
   128  H    0.037481
   129  H    0.031231
   130  H    0.028157
   131  H    0.020064
   132  H    0.023452
   133  H    0.025470
   134  H    0.033431
   135  H    0.034067
   136  H    0.037304
   137  H    0.033177
   138  H    0.025215
   139  H    0.044603
   140  H    0.026199
 Sum of Mulliken charges =  -0.00000

 Dipole moment (field-independent basis, Debye):
    X=             -5.3042    Y=              3.2630    Z=              1.3187  Tot=              6.3656
 Quadrupole moment (field-independent basis, Debye-Ang):
   XX=           -392.6500   YY=           -421.3571   ZZ=           -400.0121
   XY=             47.4294   XZ=             18.6824   YZ=             -6.4016

 Normal termination of Gaussian 16 at Wed May  4 17:47:50 2022.
