 Gaussian 16, Revision A.03,
 Gaussian 16:  ES64L-G16RevA.03 25-Dec-2016

 --------------------------------
 #p wB97XD/Def2SVP td=(nstates=5)
 --------------------------------

 ----------------------------------------------------
 step_301_chromophore_21 TDDFT with wB97XD functional
 ----------------------------------------------------
 Symbolic Z-matrix:
 Charge =  0 Multiplicity = 1

                         Standard orientation:
 ---------------------------------------------------------------------
 Center     Atomic      Atomic             Coordinates (Angstroms)
 Number     Number       Type             X           Y           Z
 ---------------------------------------------------------------------
      1         12           0        5.003802    1.135687    0.055828
      2          6           0        4.781458   -2.355913    0.360703
      3          6           0        1.755782    1.222000   -1.066062
      4          6           0        5.323141    4.430078   -0.421626
      5          6           0        8.454819    0.945860    0.898664
      6          7           0        3.486983   -0.412439   -0.230744
      7          6           0        3.529777   -1.730979    0.163985
      8          6           0        2.096130   -2.384361    0.143185
      9          6           0        1.298353   -1.308411   -0.743080
     10          6           0        2.209681   -0.071370   -0.719042
     11          6           0        0.967272   -1.743096   -2.190753
     12          6           0        1.487491   -2.522771    1.542741
     13          6           0        0.284284   -3.508839    1.687333
     14          6           0       -0.528299   -3.929186    0.449731
     15          8           0       -0.059709   -4.719125   -0.404294
     16          8           0       -1.806128   -3.477076    0.381395
     17          7           0        3.709101    2.660216   -0.544302
     18          6           0        2.460920    2.445416   -1.056780
     19          6           0        1.928475    3.756220   -1.535009
     20          6           0        2.883340    4.764342   -1.216627
     21          6           0        4.029195    3.952661   -0.685887
     22          6           0        0.565447    3.975573   -2.221653
     23          6           0        2.825014    6.242077   -1.304253
     24          8           0        3.731627    6.891109   -0.850152
     25          6           0        1.665401    6.961799   -2.022342
     26          7           0        6.657680    2.520754    0.257244
     27          6           0        6.524689    3.847316   -0.036405
     28          6           0        7.805862    4.611900    0.245003
     29          6           0        8.820267    3.545675    0.729656
     30          6           0        7.934145    2.255566    0.642710
     31          6           0        8.272418    5.296698   -0.986721
     32          6           0        9.333830    3.514853    2.180956
     33          6           0       10.818041    3.001170    2.486283
     34          7           0        6.446173   -0.368988    0.474974
     35          6           0        7.842172   -0.314530    0.732971
     36          6           0        8.357492   -1.710243    0.917061
     37          6           0        7.166378   -2.503516    0.683874
     38          6           0        6.050673   -1.658159    0.509301
     39          6           0        9.753761   -2.112364    1.435999
     40          6           0        6.715556   -3.861166    0.692314
     41          8           0        7.305319   -4.973159    0.881079
     42          6           0        5.119609   -3.819529    0.628752
     43          6           0        4.625866   -4.816045   -0.407115
     44          8           0        4.664228   -4.619468   -1.635538
     45          8           0        4.080517   -5.910803    0.201060
     46          6           0        3.563413   -6.868617   -0.743557
     47          6           0       -2.613884   -4.004952   -0.706306
     48          6           0       -4.007727   -3.542173   -0.456504
     49          6           0       -5.130621   -4.124799   -0.864024
     50          6           0       -5.198264   -5.331435   -1.759669
     51          6           0       -6.435845   -3.735045   -0.269019
     52          6           0       -7.139040   -2.427737   -0.713730
     53          6           0       -6.964012   -1.302286    0.290186
     54          6           0       -7.592993    0.018084   -0.187598
     55          6           0       -6.707377    1.171729    0.146075
     56          6           0       -9.003521    0.290617    0.348565
     57          6           0      -10.055598   -0.229037   -0.612218
     58          6           0      -10.846530    0.890530   -1.310417
     59          6           0      -12.375539    0.581552   -1.481506
     60          6           0      -12.741533    1.123415   -2.915545
     61          6           0      -13.183039    1.488796   -0.495810
     62          6           0      -12.752833    1.213668    0.992157
     63          6           0      -13.871508    1.542044    2.003234
     64          6           0      -13.596712    2.861171    2.810129
     65          6           0      -14.045927    2.619506    4.259170
     66          6           0      -14.401467    4.036632    2.194724
     67          1           0        0.690364    1.231779   -1.304875
     68          1           0        5.437296    5.507027   -0.556567
     69          1           0        9.490369    0.882124    1.238425
     70          1           0        2.161380   -3.413062   -0.208729
     71          1           0        0.387186   -0.977017   -0.244107
     72          1           0        1.429276   -0.943261   -2.770312
     73          1           0       -0.098167   -1.837742   -2.400283
     74          1           0        1.447835   -2.687757   -2.444053
     75          1           0        1.239774   -1.523289    1.900971
     76          1           0        2.238765   -2.917259    2.227095
     77          1           0       -0.446355   -3.034449    2.342548
     78          1           0        0.689005   -4.441514    2.079040
     79          1           0       -0.076306    4.576455   -1.576455
     80          1           0        0.212058    2.981877   -2.496805
     81          1           0        0.772589    4.420975   -3.193977
     82          1           0        0.837692    6.890824   -1.316441
     83          1           0        1.473835    6.507778   -2.995025
     84          1           0        2.075147    7.951670   -2.219472
     85          1           0        7.462093    5.274619    1.040174
     86          1           0        9.725006    3.429615    0.132711
     87          1           0        9.318363    5.122797   -1.242061
     88          1           0        8.259219    6.345771   -0.691382
     89          1           0        7.537278    5.343064   -1.790507
     90          1           0        8.781662    2.818081    2.812067
     91          1           0        9.055390    4.480761    2.603030
     92          1           0       10.777061    1.949949    2.773814
     93          1           0       11.324501    3.548572    3.281991
     94          1           0       11.227656    3.120266    1.484201
     95          1           0        9.684174   -2.956163    2.123995
     96          1           0       10.286223   -1.302467    1.932564
     97          1           0       10.413402   -2.503893    0.660549
     98          1           0        4.807282   -4.027227    1.652203
     99          1           0        4.444496   -7.118768   -1.335517
    100          1           0        2.704911   -6.457577   -1.274294
    101          1           0        3.414911   -7.855034   -0.304571
    102          1           0       -2.511510   -5.088022   -0.766050
    103          1           0       -2.345635   -3.649410   -1.701697
    104          1           0       -4.071593   -2.839168    0.373216
    105          1           0       -4.503807   -5.257552   -2.597192
    106          1           0       -6.122848   -5.386896   -2.333937
    107          1           0       -5.004871   -6.273039   -1.245323
    108          1           0       -6.297242   -3.758713    0.811963
    109          1           0       -7.271199   -4.422728   -0.406257
    110          1           0       -8.203072   -2.641253   -0.822039
    111          1           0       -6.692287   -2.086590   -1.646675
    112          1           0       -5.884787   -1.183744    0.390118
    113          1           0       -7.478695   -1.620630    1.196419
    114          1           0       -7.551734   -0.074586   -1.272435
    115          1           0       -6.998129    2.118906   -0.307450
    116          1           0       -5.680534    0.917147   -0.116386
    117          1           0       -6.714924    1.391946    1.213556
    118          1           0       -9.205338    1.328997    0.609871
    119          1           0       -9.126426   -0.302824    1.253878
    120          1           0      -10.751586   -0.781525    0.018511
    121          1           0       -9.670447   -0.842626   -1.425687
    122          1           0      -10.299434    0.908999   -2.252739
    123          1           0      -10.657005    1.894056   -0.929636
    124          1           0      -12.498220   -0.491613   -1.338199
    125          1           0      -13.678582    1.680551   -2.932230
    126          1           0      -12.750269    0.379809   -3.712320
    127          1           0      -12.047112    1.914741   -3.198087
    128          1           0      -14.256862    1.423581   -0.673646
    129          1           0      -12.948184    2.530342   -0.714776
    130          1           0      -11.823222    1.604554    1.407517
    131          1           0      -12.631076    0.155884    1.223069
    132          1           0      -13.948841    0.701385    2.691597
    133          1           0      -14.819169    1.629665    1.472335
    134          1           0      -12.540096    3.124434    2.761434
    135          1           0      -14.570181    3.401861    4.807200
    136          1           0      -13.142107    2.323569    4.791561
    137          1           0      -14.750490    1.790723    4.196050
    138          1           0      -13.647968    4.814667    2.079291
    139          1           0      -15.259844    4.358715    2.783982
    140          1           0      -14.649332    3.819649    1.155465
 ---------------------------------------------------------------------

 SCF Done:  E(RwB97XD) =  -3007.86014358     A.U. after   17 cycles

 Excitation energies and oscillator strengths:

 Excited State   1:      Singlet-A      1.6030 eV  773.45 nm  f=0.3857  <S**2>=0.000
     245 -> 248        0.18440
     246 -> 247        0.68305
     245 <- 248        0.11783
 This state for optimization and/or second-order correction.
 Total Energy, E(TD-HF/TD-DFT) =  -3007.80123468
 Copying the excited state density for this state as the 1-particle RhoCI density.

 Excited State   2:      Singlet-A      2.1173 eV  585.58 nm  f=0.1076  <S**2>=0.000
     245 -> 247        0.63891
     246 -> 248       -0.28895

 Excited State   3:      Singlet-A      3.3129 eV  374.25 nm  f=0.0029  <S**2>=0.000
     243 -> 247        0.48988
     243 -> 249       -0.31144
     243 -> 250       -0.22557
     244 -> 247       -0.25966

 Excited State   4:      Singlet-A      3.3600 eV  369.00 nm  f=0.0368  <S**2>=0.000
     243 -> 247        0.24431
     244 -> 247        0.57303
     246 -> 248        0.26509

 Excited State   5:      Singlet-A      3.5169 eV  352.54 nm  f=0.6821  <S**2>=0.000
     241 -> 247        0.13897
     243 -> 247       -0.12441
     244 -> 247       -0.20836
     245 -> 247        0.27606
     246 -> 248        0.57257
     245 <- 247       -0.10975

 The electronic state is 1-A.
 Alpha  occ. eigenvalues --  -46.95302 -19.32024 -19.29703 -19.25017 -19.24234
 Alpha  occ. eigenvalues --  -19.23713 -19.22942 -14.46849 -14.46543 -14.44876
 Alpha  occ. eigenvalues --  -14.43597 -10.44251 -10.42579 -10.39222 -10.38403
 Alpha  occ. eigenvalues --  -10.36501 -10.35558 -10.35381 -10.35035 -10.34918
 Alpha  occ. eigenvalues --  -10.34597 -10.34480 -10.34099 -10.33907 -10.33500
 Alpha  occ. eigenvalues --  -10.33414 -10.32948 -10.32520 -10.32410 -10.32232
 Alpha  occ. eigenvalues --  -10.32133 -10.32087 -10.31925 -10.31791 -10.31683
 Alpha  occ. eigenvalues --  -10.31562 -10.31502 -10.31376 -10.31119 -10.31083
 Alpha  occ. eigenvalues --  -10.30522 -10.30331 -10.30318 -10.30212 -10.30197
 Alpha  occ. eigenvalues --  -10.29994 -10.29749 -10.29681 -10.29641 -10.29404
 Alpha  occ. eigenvalues --  -10.29401 -10.29298 -10.29282 -10.29226 -10.29139
 Alpha  occ. eigenvalues --  -10.28947 -10.28778 -10.28669 -10.28467 -10.28299
 Alpha  occ. eigenvalues --  -10.28249 -10.28246 -10.28179 -10.27957 -10.27956
 Alpha  occ. eigenvalues --  -10.27933  -3.21134  -1.94754  -1.94221  -1.94127
 Alpha  occ. eigenvalues --   -1.19755  -1.17728  -1.13911  -1.09477  -1.08546
 Alpha  occ. eigenvalues --   -1.08097  -1.06165  -1.05266  -1.04221  -1.03192
 Alpha  occ. eigenvalues --   -0.93413  -0.93254  -0.92179  -0.91244  -0.91113
 Alpha  occ. eigenvalues --   -0.90907  -0.90461  -0.89412  -0.89353  -0.89138
 Alpha  occ. eigenvalues --   -0.87585  -0.87068  -0.86506  -0.85467  -0.85051
 Alpha  occ. eigenvalues --   -0.84408  -0.83760  -0.83419  -0.82611  -0.82376
 Alpha  occ. eigenvalues --   -0.81920  -0.80432  -0.80027  -0.79118  -0.78182
 Alpha  occ. eigenvalues --   -0.77500  -0.77275  -0.76942  -0.76434  -0.75805
 Alpha  occ. eigenvalues --   -0.75631  -0.74462  -0.73429  -0.72468  -0.70917
 Alpha  occ. eigenvalues --   -0.70314  -0.69409  -0.69344  -0.68531  -0.67680
 Alpha  occ. eigenvalues --   -0.67554  -0.67107  -0.66836  -0.66544  -0.66090
 Alpha  occ. eigenvalues --   -0.65876  -0.65627  -0.64979  -0.63494  -0.62235
 Alpha  occ. eigenvalues --   -0.61947  -0.61147  -0.60723  -0.60124  -0.59555
 Alpha  occ. eigenvalues --   -0.59038  -0.58428  -0.58194  -0.58032  -0.57691
 Alpha  occ. eigenvalues --   -0.57384  -0.57062  -0.56718  -0.56307  -0.55900
 Alpha  occ. eigenvalues --   -0.55598  -0.55523  -0.55365  -0.54992  -0.54823
 Alpha  occ. eigenvalues --   -0.54484  -0.54440  -0.54127  -0.53976  -0.53688
 Alpha  occ. eigenvalues --   -0.53447  -0.53314  -0.53059  -0.52984  -0.52720
 Alpha  occ. eigenvalues --   -0.52485  -0.51955  -0.51872  -0.51746  -0.51548
 Alpha  occ. eigenvalues --   -0.51273  -0.51120  -0.50906  -0.50697  -0.50493
 Alpha  occ. eigenvalues --   -0.50372  -0.50201  -0.50062  -0.49866  -0.49709
 Alpha  occ. eigenvalues --   -0.49631  -0.49308  -0.48762  -0.48648  -0.48568
 Alpha  occ. eigenvalues --   -0.48329  -0.48144  -0.48109  -0.47875  -0.47798
 Alpha  occ. eigenvalues --   -0.47684  -0.47350  -0.46936  -0.46560  -0.46468
 Alpha  occ. eigenvalues --   -0.46277  -0.46264  -0.46106  -0.45922  -0.45739
 Alpha  occ. eigenvalues --   -0.45623  -0.45485  -0.45375  -0.45200  -0.45140
 Alpha  occ. eigenvalues --   -0.44964  -0.44760  -0.44559  -0.44284  -0.43976
 Alpha  occ. eigenvalues --   -0.43682  -0.43633  -0.43383  -0.43172  -0.43023
 Alpha  occ. eigenvalues --   -0.42789  -0.42475  -0.42422  -0.41818  -0.41803
 Alpha  occ. eigenvalues --   -0.41717  -0.41446  -0.41246  -0.40849  -0.40656
 Alpha  occ. eigenvalues --   -0.40232  -0.39983  -0.39746  -0.39576  -0.39511
 Alpha  occ. eigenvalues --   -0.39502  -0.38676  -0.38649  -0.38404  -0.37792
 Alpha  occ. eigenvalues --   -0.37769  -0.37624  -0.36291  -0.36248  -0.35931
 Alpha  occ. eigenvalues --   -0.35839  -0.35389  -0.34829  -0.33558  -0.33225
 Alpha  occ. eigenvalues --   -0.32674  -0.32437  -0.31822  -0.31197  -0.25654
 Alpha  occ. eigenvalues --   -0.22645
 Alpha virt. eigenvalues --   -0.06997   0.00231   0.02142   0.04256   0.05638
 Alpha virt. eigenvalues --    0.06592   0.07206   0.07633   0.08151   0.09082
 Alpha virt. eigenvalues --    0.10569   0.11420   0.12166   0.12615   0.12638

 Mulliken charges:
               1
     1  Mg   0.956654
     2  C   -0.006731
     3  C   -0.105308
     4  C   -0.074882
     5  C   -0.059553
     6  N   -0.393413
     7  C    0.044250
     8  C   -0.075535
     9  C   -0.122431
    10  C    0.054366
    11  C    0.042814
    12  C    0.009566
    13  C    0.052488
    14  C    0.189884
    15  O   -0.308335
    16  O   -0.341853
    17  N   -0.429055
    18  C    0.187424
    19  C   -0.209428
    20  C   -0.041566
    21  C    0.135335
    22  C    0.083529
    23  C    0.002909
    24  O   -0.219822
    25  C   -0.002102
    26  N   -0.343179
    27  C    0.022647
    28  C   -0.028324
    29  C   -0.086302
    30  C    0.054144
    31  C    0.034753
    32  C   -0.050985
    33  C   -0.043991
    34  N   -0.448759
    35  C    0.104720
    36  C   -0.128421
    37  C   -0.036261
    38  C    0.131495
    39  C    0.071149
    40  C    0.117406
    41  O   -0.265825
    42  C   -0.084622
    43  C    0.280326
    44  O   -0.273721
    45  O   -0.350680
    46  C    0.141626
    47  C    0.260439
    48  C   -0.162212
    49  C   -0.178322
    50  C    0.027538
    51  C    0.040738
    52  C   -0.055659
    53  C    0.005555
    54  C   -0.155208
    55  C   -0.003767
    56  C    0.043067
    57  C   -0.049347
    58  C   -0.000406
    59  C   -0.174354
    60  C    0.011709
    61  C    0.015213
    62  C   -0.023804
    63  C   -0.009971
    64  C   -0.236019
    65  C    0.000112
    66  C    0.010463
    67  H    0.005952
    68  H    0.013230
    69  H   -0.025868
    70  H    0.049476
    71  H    0.031010
    72  H    0.033529
    73  H    0.039062
    74  H    0.062482
    75  H    0.032188
    76  H    0.036903
    77  H    0.051989
    78  H    0.073490
    79  H    0.067133
    80  H    0.033673
    81  H    0.050372
    82  H    0.065326
    83  H    0.050198
    84  H    0.058670
    85  H    0.048506
    86  H    0.035997
    87  H    0.045701
    88  H    0.025494
    89  H    0.051209
    90  H    0.040883
    91  H    0.022789
    92  H    0.048922
    93  H    0.053293
    94  H    0.030206
    95  H    0.056564
    96  H    0.033027
    97  H    0.054461
    98  H    0.078041
    99  H    0.045829
   100  H    0.076362
   101  H    0.043143
   102  H    0.052270
   103  H    0.055727
   104  H    0.038883
   105  H    0.027448
   106  H    0.033000
   107  H    0.063459
   108  H    0.026644
   109  H    0.009114
   110  H    0.028801
   111  H    0.022409
   112  H    0.011497
   113  H    0.013368
   114  H    0.008581
   115  H    0.025956
   116  H    0.018261
   117  H    0.017546
   118  H    0.020188
   119  H    0.005954
   120  H    0.010818
   121  H    0.033666
   122  H    0.010318
   123  H    0.009794
   124  H    0.029382
   125  H    0.011706
   126  H    0.035034
   127  H    0.019723
   128  H    0.029040
   129  H    0.020233
   130  H    0.015755
   131  H    0.009451
   132  H    0.014590
   133  H    0.014748
   134  H    0.022964
   135  H    0.029089
   136  H    0.031462
   137  H    0.025138
   138  H    0.019438
   139  H    0.039782
   140  H    0.017355
 Sum of Mulliken charges =  -0.00000

 Dipole moment (field-independent basis, Debye):
    X=             -5.6013    Y=              3.5527    Z=              1.1913  Tot=              6.7391
 Quadrupole moment (field-independent basis, Debye-Ang):
   XX=           -395.1477   YY=           -419.5514   ZZ=           -399.4251
   XY=             47.4377   XZ=             18.2213   YZ=             -7.1211

 Normal termination of Gaussian 16 at Wed May  4 18:16:03 2022.
