 Gaussian 16, Revision A.03,
 Gaussian 16:  ES64L-G16RevA.03 25-Dec-2016

 --------------------
 #p ZINDO=(nstates=5)
 --------------------

 -----------------------------
 step_301_chromophore_21 ZINDO
 -----------------------------
 Symbolic Z-matrix:
 Charge =  0 Multiplicity = 1

                         Standard orientation:
 ---------------------------------------------------------------------
 Center     Atomic      Atomic             Coordinates (Angstroms)
 Number     Number       Type             X           Y           Z
 ---------------------------------------------------------------------
      1         12           0        5.003802    1.135687    0.055828
      2          6           0        4.781458   -2.355913    0.360703
      3          6           0        1.755782    1.222000   -1.066062
      4          6           0        5.323141    4.430078   -0.421626
      5          6           0        8.454819    0.945860    0.898664
      6          7           0        3.486983   -0.412439   -0.230744
      7          6           0        3.529777   -1.730979    0.163985
      8          6           0        2.096130   -2.384361    0.143185
      9          6           0        1.298353   -1.308411   -0.743080
     10          6           0        2.209681   -0.071370   -0.719042
     11          6           0        0.967272   -1.743096   -2.190753
     12          6           0        1.487491   -2.522771    1.542741
     13          6           0        0.284284   -3.508839    1.687333
     14          6           0       -0.528299   -3.929186    0.449731
     15          8           0       -0.059709   -4.719125   -0.404294
     16          8           0       -1.806128   -3.477076    0.381395
     17          7           0        3.709101    2.660216   -0.544302
     18          6           0        2.460920    2.445416   -1.056780
     19          6           0        1.928475    3.756220   -1.535009
     20          6           0        2.883340    4.764342   -1.216627
     21          6           0        4.029195    3.952661   -0.685887
     22          6           0        0.565447    3.975573   -2.221653
     23          6           0        2.825014    6.242077   -1.304253
     24          8           0        3.731627    6.891109   -0.850152
     25          6           0        1.665401    6.961799   -2.022342
     26          7           0        6.657680    2.520754    0.257244
     27          6           0        6.524689    3.847316   -0.036405
     28          6           0        7.805862    4.611900    0.245003
     29          6           0        8.820267    3.545675    0.729656
     30          6           0        7.934145    2.255566    0.642710
     31          6           0        8.272418    5.296698   -0.986721
     32          6           0        9.333830    3.514853    2.180956
     33          6           0       10.818041    3.001170    2.486283
     34          7           0        6.446173   -0.368988    0.474974
     35          6           0        7.842172   -0.314530    0.732971
     36          6           0        8.357492   -1.710243    0.917061
     37          6           0        7.166378   -2.503516    0.683874
     38          6           0        6.050673   -1.658159    0.509301
     39          6           0        9.753761   -2.112364    1.435999
     40          6           0        6.715556   -3.861166    0.692314
     41          8           0        7.305319   -4.973159    0.881079
     42          6           0        5.119609   -3.819529    0.628752
     43          6           0        4.625866   -4.816045   -0.407115
     44          8           0        4.664228   -4.619468   -1.635538
     45          8           0        4.080517   -5.910803    0.201060
     46          6           0        3.563413   -6.868617   -0.743557
     47          6           0       -2.613884   -4.004952   -0.706306
     48          6           0       -4.007727   -3.542173   -0.456504
     49          6           0       -5.130621   -4.124799   -0.864024
     50          6           0       -5.198264   -5.331435   -1.759669
     51          6           0       -6.435845   -3.735045   -0.269019
     52          6           0       -7.139040   -2.427737   -0.713730
     53          6           0       -6.964012   -1.302286    0.290186
     54          6           0       -7.592993    0.018084   -0.187598
     55          6           0       -6.707377    1.171729    0.146075
     56          6           0       -9.003521    0.290617    0.348565
     57          6           0      -10.055598   -0.229037   -0.612218
     58          6           0      -10.846530    0.890530   -1.310417
     59          6           0      -12.375539    0.581552   -1.481506
     60          6           0      -12.741533    1.123415   -2.915545
     61          6           0      -13.183039    1.488796   -0.495810
     62          6           0      -12.752833    1.213668    0.992157
     63          6           0      -13.871508    1.542044    2.003234
     64          6           0      -13.596712    2.861171    2.810129
     65          6           0      -14.045927    2.619506    4.259170
     66          6           0      -14.401467    4.036632    2.194724
     67          1           0        0.690364    1.231779   -1.304875
     68          1           0        5.437296    5.507027   -0.556567
     69          1           0        9.490369    0.882124    1.238425
     70          1           0        2.161380   -3.413062   -0.208729
     71          1           0        0.387186   -0.977017   -0.244107
     72          1           0        1.429276   -0.943261   -2.770312
     73          1           0       -0.098167   -1.837742   -2.400283
     74          1           0        1.447835   -2.687757   -2.444053
     75          1           0        1.239774   -1.523289    1.900971
     76          1           0        2.238765   -2.917259    2.227095
     77          1           0       -0.446355   -3.034449    2.342548
     78          1           0        0.689005   -4.441514    2.079040
     79          1           0       -0.076306    4.576455   -1.576455
     80          1           0        0.212058    2.981877   -2.496805
     81          1           0        0.772589    4.420975   -3.193977
     82          1           0        0.837692    6.890824   -1.316441
     83          1           0        1.473835    6.507778   -2.995025
     84          1           0        2.075147    7.951670   -2.219472
     85          1           0        7.462093    5.274619    1.040174
     86          1           0        9.725006    3.429615    0.132711
     87          1           0        9.318363    5.122797   -1.242061
     88          1           0        8.259219    6.345771   -0.691382
     89          1           0        7.537278    5.343064   -1.790507
     90          1           0        8.781662    2.818081    2.812067
     91          1           0        9.055390    4.480761    2.603030
     92          1           0       10.777061    1.949949    2.773814
     93          1           0       11.324501    3.548572    3.281991
     94          1           0       11.227656    3.120266    1.484201
     95          1           0        9.684174   -2.956163    2.123995
     96          1           0       10.286223   -1.302467    1.932564
     97          1           0       10.413402   -2.503893    0.660549
     98          1           0        4.807282   -4.027227    1.652203
     99          1           0        4.444496   -7.118768   -1.335517
    100          1           0        2.704911   -6.457577   -1.274294
    101          1           0        3.414911   -7.855034   -0.304571
    102          1           0       -2.511510   -5.088022   -0.766050
    103          1           0       -2.345635   -3.649410   -1.701697
    104          1           0       -4.071593   -2.839168    0.373216
    105          1           0       -4.503807   -5.257552   -2.597192
    106          1           0       -6.122848   -5.386896   -2.333937
    107          1           0       -5.004871   -6.273039   -1.245323
    108          1           0       -6.297242   -3.758713    0.811963
    109          1           0       -7.271199   -4.422728   -0.406257
    110          1           0       -8.203072   -2.641253   -0.822039
    111          1           0       -6.692287   -2.086590   -1.646675
    112          1           0       -5.884787   -1.183744    0.390118
    113          1           0       -7.478695   -1.620630    1.196419
    114          1           0       -7.551734   -0.074586   -1.272435
    115          1           0       -6.998129    2.118906   -0.307450
    116          1           0       -5.680534    0.917147   -0.116386
    117          1           0       -6.714924    1.391946    1.213556
    118          1           0       -9.205338    1.328997    0.609871
    119          1           0       -9.126426   -0.302824    1.253878
    120          1           0      -10.751586   -0.781525    0.018511
    121          1           0       -9.670447   -0.842626   -1.425687
    122          1           0      -10.299434    0.908999   -2.252739
    123          1           0      -10.657005    1.894056   -0.929636
    124          1           0      -12.498220   -0.491613   -1.338199
    125          1           0      -13.678582    1.680551   -2.932230
    126          1           0      -12.750269    0.379809   -3.712320
    127          1           0      -12.047112    1.914741   -3.198087
    128          1           0      -14.256862    1.423581   -0.673646
    129          1           0      -12.948184    2.530342   -0.714776
    130          1           0      -11.823222    1.604554    1.407517
    131          1           0      -12.631076    0.155884    1.223069
    132          1           0      -13.948841    0.701385    2.691597
    133          1           0      -14.819169    1.629665    1.472335
    134          1           0      -12.540096    3.124434    2.761434
    135          1           0      -14.570181    3.401861    4.807200
    136          1           0      -13.142107    2.323569    4.791561
    137          1           0      -14.750490    1.790723    4.196050
    138          1           0      -13.647968    4.814667    2.079291
    139          1           0      -15.259844    4.358715    2.783982
    140          1           0      -14.649332    3.819649    1.155465
 ---------------------------------------------------------------------

 SCF Done:  E(RZINDO/S) =  -474.127636664     A.U. after   20 cycles

 Excitation energies and oscillator strengths:

 Excited State   1:      Singlet-A      1.2178 eV 1018.06 nm  f=0.6241  <S**2>=0.000
     175 ->178         0.19026
     176 ->177         0.66299
 This state for optimization and/or second-order correction.
 Total Energy, E(CIS/TDA) =  -474.082881566
 Copying the excited state density for this state as the 1-particle RhoCI density.

 Excited State   2:      Singlet-A      1.9065 eV  650.33 nm  f=0.0311  <S**2>=0.000
     175 ->177         0.53788
     176 ->178        -0.43539

 Excited State   3:      Singlet-A      2.9238 eV  424.05 nm  f=0.0631  <S**2>=0.000
     176 ->179         0.63089

 Excited State   4:      Singlet-A      2.9428 eV  421.31 nm  f=0.0743  <S**2>=0.000
     169 ->177         0.27669
     169 ->179        -0.30446
     169 ->180        -0.11536
     169 ->181        -0.25947
     169 ->186        -0.15813
     169 ->187         0.10841
     170 ->177         0.14011
     170 ->179        -0.15937
     170 ->181        -0.12687
     175 ->177         0.10297
     176 ->178         0.12852
     176 ->179        -0.18515

 Excited State   5:      Singlet-A      2.9548 eV  419.60 nm  f=0.2670  <S**2>=0.000
     168 ->177         0.26244
     168 ->178         0.11011
     168 ->179         0.32456
     168 ->180        -0.14691
     168 ->181        -0.23558
     168 ->186         0.17099
     168 ->187         0.13975
     175 ->177         0.20339
     176 ->178         0.26306
     176 ->179        -0.13260

 The electronic state is 1-A.
 Alpha  occ. eigenvalues --   -1.81313  -1.79419  -1.78427  -1.73840  -1.71686
 Alpha  occ. eigenvalues --   -1.69089  -1.67886  -1.62187  -1.61108  -1.56350
 Alpha  occ. eigenvalues --   -1.55582  -1.52939  -1.49212  -1.46949  -1.44868
 Alpha  occ. eigenvalues --   -1.42783  -1.40879  -1.40126  -1.38857  -1.38445
 Alpha  occ. eigenvalues --   -1.35900  -1.33790  -1.31668  -1.31088  -1.29952
 Alpha  occ. eigenvalues --   -1.27408  -1.24405  -1.22350  -1.21500  -1.17234
 Alpha  occ. eigenvalues --   -1.16642  -1.16143  -1.14816  -1.14392  -1.12135
 Alpha  occ. eigenvalues --   -1.11819  -1.11134  -1.10108  -1.04949  -1.03626
 Alpha  occ. eigenvalues --   -1.02347  -1.00731  -0.98276  -0.97166  -0.95056
 Alpha  occ. eigenvalues --   -0.94727  -0.94167  -0.93782  -0.93036  -0.92378
 Alpha  occ. eigenvalues --   -0.91232  -0.91081  -0.90037  -0.88948  -0.87717
 Alpha  occ. eigenvalues --   -0.86741  -0.85932  -0.83523  -0.81788  -0.80592
 Alpha  occ. eigenvalues --   -0.79469  -0.78668  -0.77449  -0.76200  -0.75923
 Alpha  occ. eigenvalues --   -0.75558  -0.74617  -0.73858  -0.73482  -0.72800
 Alpha  occ. eigenvalues --   -0.72399  -0.72115  -0.71316  -0.70752  -0.70482
 Alpha  occ. eigenvalues --   -0.70285  -0.69226  -0.68597  -0.68278  -0.68178
 Alpha  occ. eigenvalues --   -0.67837  -0.67106  -0.66977  -0.66679  -0.66261
 Alpha  occ. eigenvalues --   -0.66212  -0.65076  -0.64609  -0.64222  -0.63848
 Alpha  occ. eigenvalues --   -0.63459  -0.63222  -0.62917  -0.62696  -0.62129
 Alpha  occ. eigenvalues --   -0.61338  -0.60884  -0.60659  -0.60016  -0.59943
 Alpha  occ. eigenvalues --   -0.59882  -0.59747  -0.59501  -0.58939  -0.58408
 Alpha  occ. eigenvalues --   -0.58159  -0.57675  -0.57109  -0.56491  -0.56306
 Alpha  occ. eigenvalues --   -0.55866  -0.55255  -0.54986  -0.54794  -0.54311
 Alpha  occ. eigenvalues --   -0.54149  -0.53487  -0.52744  -0.52656  -0.52371
 Alpha  occ. eigenvalues --   -0.52251  -0.52057  -0.51962  -0.51811  -0.51269
 Alpha  occ. eigenvalues --   -0.50947  -0.50858  -0.50765  -0.50725  -0.50388
 Alpha  occ. eigenvalues --   -0.49924  -0.49733  -0.49402  -0.49191  -0.48843
 Alpha  occ. eigenvalues --   -0.48779  -0.48353  -0.48294  -0.48105  -0.47484
 Alpha  occ. eigenvalues --   -0.47299  -0.47267  -0.46708  -0.46664  -0.46547
 Alpha  occ. eigenvalues --   -0.46406  -0.45928  -0.45878  -0.45496  -0.45306
 Alpha  occ. eigenvalues --   -0.45214  -0.44483  -0.44096  -0.43366  -0.43181
 Alpha  occ. eigenvalues --   -0.43073  -0.42966  -0.42434  -0.42355  -0.42095
 Alpha  occ. eigenvalues --   -0.41998  -0.41372  -0.40618  -0.38772  -0.38160
 Alpha  occ. eigenvalues --   -0.37581  -0.36928  -0.35469  -0.34311  -0.34206
 Alpha  occ. eigenvalues --   -0.33545  -0.32643  -0.31949  -0.31641  -0.26340
 Alpha  occ. eigenvalues --   -0.21221
 Alpha virt. eigenvalues --   -0.08273  -0.01847  -0.00555   0.01160   0.01212
 Alpha virt. eigenvalues --    0.02863   0.03084   0.03298   0.04021   0.05126
 Alpha virt. eigenvalues --    0.06503   0.06689   0.07118   0.07891   0.08018

 Mulliken charges:
               1
     1  Mg   0.423868
     2  C   -0.049148
     3  C   -0.088204
     4  C   -0.067803
     5  C   -0.059868
     6  N   -0.299173
     7  C    0.115292
     8  C    0.007436
     9  C    0.010198
    10  C    0.139665
    11  C   -0.049455
    12  C   -0.014055
    13  C    0.007158
    14  C    0.460761
    15  O   -0.540432
    16  O   -0.255779
    17  N   -0.303153
    18  C    0.120594
    19  C    0.000556
    20  C   -0.049921
    21  C    0.144942
    22  C   -0.047987
    23  C    0.330618
    24  O   -0.515550
    25  C   -0.035849
    26  N   -0.267303
    27  C    0.140603
    28  C    0.025657
    29  C    0.002031
    30  C    0.110545
    31  C   -0.053015
    32  C   -0.039907
    33  C   -0.063678
    34  N   -0.329429
    35  C    0.071520
    36  C    0.020767
    37  C   -0.047811
    38  C    0.123805
    39  C   -0.032077
    40  C    0.322927
    41  O   -0.550487
    42  C    0.055769
    43  C    0.490859
    44  O   -0.529090
    45  O   -0.256138
    46  C    0.070180
    47  C    0.111926
    48  C   -0.090614
    49  C    0.008424
    50  C   -0.043215
    51  C   -0.026764
    52  C   -0.031018
    53  C   -0.033956
    54  C   -0.008496
    55  C   -0.053774
    56  C   -0.029425
    57  C   -0.040895
    58  C   -0.044139
    59  C   -0.012991
    60  C   -0.063818
    61  C   -0.023031
    62  C   -0.050996
    63  C   -0.041510
    64  C   -0.014872
    65  C   -0.060458
    66  C   -0.063078
    67  H    0.025560
    68  H    0.034890
    69  H    0.024223
    70  H    0.051739
    71  H    0.025015
    72  H    0.023457
    73  H    0.024639
    74  H    0.035448
    75  H    0.023614
    76  H    0.018671
    77  H    0.029596
    78  H    0.051603
    79  H    0.042994
    80  H    0.025762
    81  H    0.030423
    82  H    0.048163
    83  H    0.034771
    84  H    0.041790
    85  H    0.042620
    86  H    0.038164
    87  H    0.030701
    88  H    0.006399
    89  H    0.036860
    90  H    0.017740
    91  H    0.015551
    92  H    0.025709
    93  H    0.029865
    94  H    0.025030
    95  H    0.033232
    96  H    0.023628
    97  H    0.035141
    98  H    0.054565
    99  H    0.042459
   100  H    0.058103
   101  H    0.030036
   102  H    0.053304
   103  H    0.049340
   104  H    0.029661
   105  H    0.015787
   106  H    0.018265
   107  H    0.038338
   108  H    0.017826
   109  H    0.011788
   110  H    0.020420
   111  H    0.020730
   112  H    0.023278
   113  H    0.022092
   114  H    0.018064
   115  H    0.013354
   116  H    0.009701
   117  H    0.011049
   118  H    0.025854
   119  H    0.013146
   120  H    0.012391
   121  H    0.025693
   122  H    0.006956
   123  H    0.023801
   124  H    0.038375
   125  H    0.012943
   126  H    0.019337
   127  H    0.015914
   128  H    0.025846
   129  H    0.019650
   130  H    0.030427
   131  H    0.009243
   132  H    0.014195
   133  H    0.020640
   134  H    0.025188
   135  H    0.021263
   136  H    0.014530
   137  H    0.017737
   138  H    0.010673
   139  H    0.031129
   140  H    0.016169
 Sum of Mulliken charges =  -0.00000

 Dipole moment (field-independent basis, Debye):
    X=             -8.0504    Y=              5.7099    Z=              1.9176  Tot=             10.0543
 N-N= 4.293518733121D+03 E-N= 0.000000000000D+00  KE=-9.261582754176D+03
 Leave Link  601 at Wed May  4 18:31:55 2022, MaxMem=  6710886400 cpu:               3.4 elap:               0.2
 (Enter /sw/apps/gaussian-16.0/g16/l9999.exe)
 1\1\GINC-BP1-COMPUTE219\SP\RZINDO CIS\STO-3G\C55H74Mg1N4O6\OF15641\04-
 May-2022\0\\#p ZINDO=(nstates=5)\\step_301_chromophore_21 ZINDO\\0,1\M
 g,0,15.631,51.846,25.941\C,0,17.605,50.77,28.639\C,0,13.025,52.423,28.
 107\C,0,13.718,52.661,23.322\C,0,18.244,50.914,23.714\N,0,15.43,51.66,
 28.11\C,0,16.417,51.421,29.04\C,0,15.932,51.774,30.497\C,0,14.345,51.8
 56,30.264\C,0,14.208,51.974,28.738\C,0,13.522,50.669,30.819\C,0,16.496
 ,53.106,31.003\C,0,16.427,53.354,32.544\C,0,15.443,52.554,33.416\O,0,1

 Normal termination of Gaussian 16 at Wed May  4 18:31:55 2022.
