 Gaussian 16, Revision A.03,
 Gaussian 16:  ES64L-G16RevA.03 25-Dec-2016

 ------------------------------
 #p blyp/Def2SVP td=(nstates=5)
 ------------------------------

 -----------------------------------------------
 step_1_chromophore_1 TDDFT with blyp functional
 -----------------------------------------------
 Symbolic Z-matrix:
 Charge =  0 Multiplicity = 1

                         Standard orientation:
 ---------------------------------------------------------------------
 Center     Atomic      Atomic             Coordinates (Angstroms)
 Number     Number       Type             X           Y           Z
 ---------------------------------------------------------------------
      1         12           0        6.110173    0.584427    0.086308
      2          6           0        4.084321   -2.334675   -0.346106
      3          6           0        3.869472    2.248419   -1.876713
      4          6           0        8.110195    3.045414    0.077699
      5          6           0        8.707761   -1.538463    1.030520
      6          7           0        4.251170   -0.068640   -0.922779
      7          6           0        3.552106   -1.198723   -0.960113
      8          6           0        2.163335   -1.043633   -1.649051
      9          6           0        2.472414    0.231968   -2.554209
     10          6           0        3.572459    0.862154   -1.718332
     11          6           0        3.037802   -0.117644   -3.927019
     12          6           0        1.018780   -0.752781   -0.620883
     13          6           0       -0.404015   -0.910929   -1.164939
     14          6           0       -1.437407   -1.431175   -0.282447
     15          8           0       -1.465245   -1.429690    0.945531
     16          8           0       -2.412060   -1.970020   -1.058229
     17          7           0        5.799163    2.486589   -0.347168
     18          6           0        4.829733    2.986009   -1.150953
     19          6           0        5.017723    4.452752   -1.153289
     20          6           0        6.289963    4.749570   -0.438167
     21          6           0        6.803887    3.420344   -0.227411
     22          6           0        4.027073    5.408330   -1.744248
     23          6           0        6.944554    6.028674   -0.021589
     24          8           0        8.156954    6.072352    0.381839
     25          6           0        6.147320    7.257925   -0.184073
     26          7           0        8.183391    0.730072    0.281729
     27          6           0        8.792641    1.920612    0.302053
     28          6           0       10.224258    1.794088    0.731474
     29          6           0       10.402711    0.290168    1.237567
     30          6           0        8.982614   -0.237167    0.915833
     31          6           0       11.275258    2.098395   -0.345005
     32          6           0       10.956022    0.091590    2.671035
     33          6           0        9.946441    0.584046    3.683621
     34          7           0        6.333258   -1.537811    0.483027
     35          6           0        7.511274   -2.209448    0.840595
     36          6           0        7.189308   -3.647319    0.894754
     37          6           0        5.841684   -3.714214    0.546502
     38          6           0        5.359510   -2.403938    0.265470
     39          6           0        8.107477   -4.696843    1.177417
     40          6           0        4.703229   -4.590342    0.322499
     41          8           0        4.485452   -5.790477    0.494960
     42          6           0        3.551956   -3.745638   -0.382392
     43          6           0        2.267307   -4.031436    0.346514
     44          8           0        2.104707   -3.658887    1.526402
     45          8           0        1.352322   -4.482264   -0.525323
     46          6           0        0.044899   -4.757232    0.128276
     47          6           0       -3.550340   -2.584985   -0.377102
     48          6           0       -4.836845   -2.019445   -0.742110
     49          6           0       -6.037989   -2.630497   -0.886966
     50          6           0       -6.417067   -4.060155   -0.768488
     51          6           0       -7.190232   -1.848771   -1.501930
     52          6           0       -8.461116   -1.493060   -0.619190
     53          6           0       -8.351515   -0.063212    0.060215
     54          6           0       -9.705962    0.749175   -0.060346
     55          6           0       -9.821888    1.276039   -1.580360
     56          6           0       -9.960311    1.770012    1.115321
     57          6           0      -11.410354    2.270505    1.235486
     58          6           0      -11.873148    2.410030    2.684976
     59          6           0      -13.432757    2.208923    2.857037
     60          6           0      -13.913103    2.649041    4.285798
     61          6           0      -14.000819    0.797275    2.421949
     62          6           0      -15.023617    0.724132    1.263450
     63          6           0      -14.557530    0.023398   -0.031892
     64          6           0      -14.992245    0.776830   -1.335053
     65          6           0      -14.791498   -0.021380   -2.652372
     66          6           0      -14.453046    2.212964   -1.538521
     67          1           0        3.365778    2.809265   -2.666451
     68          1           0        8.807893    3.877501    0.192966
     69          1           0        9.446217   -2.252321    1.400039
     70          1           0        1.871654   -1.884742   -2.278243
     71          1           0        1.615278    0.901863   -2.619642
     72          1           0        3.256346   -1.182311   -4.008524
     73          1           0        3.952850    0.467220   -4.022491
     74          1           0        2.375032    0.231451   -4.719260
     75          1           0        1.009816    0.311220   -0.384491
     76          1           0        1.134681   -1.370446    0.270399
     77          1           0       -0.410065   -1.444012   -2.116094
     78          1           0       -0.789136    0.079641   -1.407123
     79          1           0        3.278669    4.890222   -2.342579
     80          1           0        4.568441    6.025317   -2.461155
     81          1           0        3.566851    6.042955   -0.986766
     82          1           0        5.870434    7.371347   -1.232414
     83          1           0        6.742509    8.061643    0.247942
     84          1           0        5.214169    7.149316    0.369445
     85          1           0       10.448416    2.475717    1.550963
     86          1           0       11.089438   -0.274866    0.606839
     87          1           0       11.975458    2.885204   -0.063303
     88          1           0       10.750834    2.352807   -1.265627
     89          1           0       11.866268    1.239710   -0.662472
     90          1           0       11.863534    0.677736    2.811751
     91          1           0       11.193242   -0.947268    2.900714
     92          1           0       10.144825    1.654473    3.724394
     93          1           0       10.121703    0.117282    4.653479
     94          1           0        8.925698    0.455327    3.323063
     95          1           0        7.594720   -5.375357    1.859084
     96          1           0        9.026075   -4.311101    1.618985
     97          1           0        8.263143   -5.103500    0.178291
     98          1           0        3.514672   -4.072332   -1.421142
     99          1           0       -0.211822   -5.793715   -0.090886
    100          1           0       -0.641625   -3.982682   -0.214012
    101          1           0        0.044644   -4.771319    1.218753
    102          1           0       -3.577722   -2.470291    0.706861
    103          1           0       -3.421259   -3.629991   -0.656341
    104          1           0       -4.731942   -1.106062   -1.328318
    105          1           0       -5.541439   -4.702492   -0.677528
    106          1           0       -6.894711   -4.435056   -1.674364
    107          1           0       -7.052233   -4.275771    0.091591
    108          1           0       -7.566149   -2.442003   -2.335742
    109          1           0       -6.838285   -0.955927   -2.019637
    110          1           0       -8.481138   -2.084512    0.295878
    111          1           0       -9.381344   -1.542697   -1.199484
    112          1           0       -7.554723    0.509487   -0.414077
    113          1           0       -8.062241   -0.308034    1.081996
    114          1           0      -10.489634    0.019621    0.141481
    115          1           0       -9.612410    2.342656   -1.660332
    116          1           0      -10.716295    0.928360   -2.095981
    117          1           0       -8.933319    0.962946   -2.128057
    118          1           0       -9.325897    2.602921    0.813906
    119          1           0       -9.591251    1.372770    2.061098
    120          1           0      -12.079537    1.587016    0.711609
    121          1           0      -11.521509    3.244847    0.759541
    122          1           0      -11.440375    3.290373    3.161018
    123          1           0      -11.387037    1.642841    3.288180
    124          1           0      -13.817657    3.056054    2.287692
    125          1           0      -13.581638    1.875392    4.978354
    126          1           0      -14.993573    2.588299    4.417445
    127          1           0      -13.624293    3.651749    4.598915
    128          1           0      -14.547580    0.525810    3.325091
    129          1           0      -13.209159    0.057028    2.302262
    130          1           0      -15.366180    1.734841    1.038621
    131          1           0      -15.909733    0.165234    1.563238
    132          1           0      -15.024069   -0.961037   -0.065375
    133          1           0      -13.476160   -0.089626   -0.104465
    134          1           0      -16.075349    0.779779   -1.220035
    135          1           0      -15.687070   -0.275662   -3.218892
    136          1           0      -14.484362   -0.991383   -2.262171
    137          1           0      -14.023341    0.495992   -3.228316
    138          1           0      -13.711897    2.453981   -0.775842
    139          1           0      -15.284183    2.825076   -1.187734
    140          1           0      -13.994055    2.499475   -2.486071
 ---------------------------------------------------------------------

 SCF Done:  E(RB-LYP) =  -3007.35586134     A.U. after   21 cycles

 Excitation energies and oscillator strengths:

 Excited State   1:      Singlet-A      1.7372 eV  713.70 nm  f=0.0002  <S**2>=0.000
     244 -> 247        0.69736
     245 -> 247        0.11425
 This state for optimization and/or second-order correction.
 Total Energy, E(TD-HF/TD-DFT) =  -3007.29202063
 Copying the excited state density for this state as the 1-particle RhoCI density.

 Excited State   2:      Singlet-A      1.8000 eV  688.82 nm  f=0.3030  <S**2>=0.000
     245 -> 248        0.16401
     245 -> 249        0.11386
     246 -> 247        0.68709
     246 <- 247       -0.15241

 Excited State   3:      Singlet-A      1.9532 eV  634.78 nm  f=0.0399  <S**2>=0.000
     243 -> 247       -0.45665
     245 -> 247        0.48869
     246 -> 248       -0.15202

 Excited State   4:      Singlet-A      1.9763 eV  627.37 nm  f=0.0339  <S**2>=0.000
     241 -> 247        0.10212
     243 -> 247        0.53063
     245 -> 247        0.41623
     246 -> 248       -0.11842

 Excited State   5:      Singlet-A      2.3264 eV  532.94 nm  f=0.0000  <S**2>=0.000
     240 -> 247        0.70591

 The electronic state is 1-A.
 Alpha  occ. eigenvalues --  -46.26280 -18.83173 -18.82659 -18.76868 -18.75803
 Alpha  occ. eigenvalues --  -18.75452 -18.74907 -14.03522 -14.02565 -14.00927
 Alpha  occ. eigenvalues --  -14.00167 -10.04222 -10.03483  -9.99965  -9.98977
 Alpha  occ. eigenvalues --   -9.97837  -9.97487  -9.96828  -9.96452  -9.96129
 Alpha  occ. eigenvalues --   -9.95999  -9.95857  -9.95528  -9.95032  -9.94795
 Alpha  occ. eigenvalues --   -9.94743  -9.94210  -9.94084  -9.93585  -9.93549
 Alpha  occ. eigenvalues --   -9.93541  -9.93516  -9.93452  -9.93319  -9.93207
 Alpha  occ. eigenvalues --   -9.93163  -9.93073  -9.93029  -9.92738  -9.92629
 Alpha  occ. eigenvalues --   -9.92573  -9.92472  -9.92418  -9.92405  -9.92204
 Alpha  occ. eigenvalues --   -9.92183  -9.92016  -9.92003  -9.91969  -9.91915
 Alpha  occ. eigenvalues --   -9.91790  -9.91761  -9.91743  -9.91614  -9.91523
 Alpha  occ. eigenvalues --   -9.91297  -9.91182  -9.91090  -9.91060  -9.90973
 Alpha  occ. eigenvalues --   -9.90934  -9.90881  -9.90805  -9.90732  -9.90701
 Alpha  occ. eigenvalues --   -9.90536  -2.91109  -1.71516  -1.71010  -1.70822
 Alpha  occ. eigenvalues --   -0.98749  -0.98002  -0.90162  -0.90043  -0.88780
 Alpha  occ. eigenvalues --   -0.88509  -0.86804  -0.86061  -0.85596  -0.84872
 Alpha  occ. eigenvalues --   -0.74844  -0.74073  -0.73138  -0.72744  -0.72463
 Alpha  occ. eigenvalues --   -0.71724  -0.71562  -0.71390  -0.71214  -0.70460
 Alpha  occ. eigenvalues --   -0.70370  -0.69967  -0.68352  -0.67746  -0.67386
 Alpha  occ. eigenvalues --   -0.66756  -0.66544  -0.65773  -0.65414  -0.64850
 Alpha  occ. eigenvalues --   -0.63870  -0.63273  -0.62930  -0.61576  -0.60679
 Alpha  occ. eigenvalues --   -0.60377  -0.60070  -0.59616  -0.59516  -0.59288
 Alpha  occ. eigenvalues --   -0.58586  -0.57729  -0.56781  -0.55653  -0.55202
 Alpha  occ. eigenvalues --   -0.53901  -0.53465  -0.52978  -0.52368  -0.51487
 Alpha  occ. eigenvalues --   -0.50892  -0.50836  -0.50575  -0.50273  -0.49552
 Alpha  occ. eigenvalues --   -0.49330  -0.48801  -0.48446  -0.48320  -0.47368
 Alpha  occ. eigenvalues --   -0.46783  -0.46705  -0.45640  -0.45094  -0.44804
 Alpha  occ. eigenvalues --   -0.44063  -0.43743  -0.43375  -0.43061  -0.42692
 Alpha  occ. eigenvalues --   -0.42338  -0.42149  -0.41902  -0.41454  -0.41308
 Alpha  occ. eigenvalues --   -0.41191  -0.41027  -0.40467  -0.40442  -0.40086
 Alpha  occ. eigenvalues --   -0.40004  -0.39850  -0.39815  -0.39633  -0.39444
 Alpha  occ. eigenvalues --   -0.39330  -0.39264  -0.39129  -0.38752  -0.38534
 Alpha  occ. eigenvalues --   -0.38195  -0.38039  -0.37724  -0.37639  -0.37411
 Alpha  occ. eigenvalues --   -0.37102  -0.36953  -0.36650  -0.36396  -0.36300
 Alpha  occ. eigenvalues --   -0.36205  -0.35973  -0.35922  -0.35525  -0.35508
 Alpha  occ. eigenvalues --   -0.35303  -0.35221  -0.34888  -0.34747  -0.34629
 Alpha  occ. eigenvalues --   -0.34378  -0.34273  -0.34089  -0.33884  -0.33805
 Alpha  occ. eigenvalues --   -0.33590  -0.33452  -0.33433  -0.33007  -0.32673
 Alpha  occ. eigenvalues --   -0.32558  -0.32511  -0.32368  -0.32235  -0.32144
 Alpha  occ. eigenvalues --   -0.32060  -0.31998  -0.31657  -0.31586  -0.31392
 Alpha  occ. eigenvalues --   -0.31138  -0.31061  -0.30787  -0.30582  -0.30519
 Alpha  occ. eigenvalues --   -0.30389  -0.30180  -0.30100  -0.29917  -0.29672
 Alpha  occ. eigenvalues --   -0.29592  -0.29484  -0.29348  -0.29098  -0.29023
 Alpha  occ. eigenvalues --   -0.28617  -0.28496  -0.28445  -0.28284  -0.27572
 Alpha  occ. eigenvalues --   -0.27564  -0.27282  -0.26849  -0.26718  -0.26633
 Alpha  occ. eigenvalues --   -0.26210  -0.26126  -0.25683  -0.25621  -0.25387
 Alpha  occ. eigenvalues --   -0.25043  -0.24873  -0.24259  -0.24016  -0.23894
 Alpha  occ. eigenvalues --   -0.23178  -0.22399  -0.22124  -0.20896  -0.20136
 Alpha  occ. eigenvalues --   -0.20116  -0.19967  -0.18680  -0.17889  -0.17210
 Alpha  occ. eigenvalues --   -0.15800
 Alpha virt. eigenvalues --   -0.11587  -0.07100  -0.06193  -0.04637  -0.03120
 Alpha virt. eigenvalues --   -0.02587  -0.02328  -0.02128  -0.01701   0.00413
 Alpha virt. eigenvalues --    0.01087   0.01629   0.02058   0.02329   0.02852

 Mulliken charges:
               1
     1  Mg   0.707348
     2  C    0.030082
     3  C   -0.085868
     4  C   -0.015704
     5  C   -0.060003
     6  N   -0.190770
     7  C   -0.094665
     8  C    0.032050
     9  C   -0.037321
    10  C    0.037436
    11  C    0.165336
    12  C    0.129441
    13  C    0.122489
    14  C    0.055794
    15  O   -0.182916
    16  O   -0.279471
    17  N   -0.342906
    18  C    0.164454
    19  C   -0.176833
    20  C    0.062606
    21  C    0.121460
    22  C    0.170556
    23  C   -0.072033
    24  O   -0.208060
    25  C    0.148229
    26  N   -0.271857
    27  C    0.018029
    28  C    0.030733
    29  C    0.026164
    30  C    0.069175
    31  C    0.133514
    32  C    0.087692
    33  C    0.055553
    34  N   -0.221723
    35  C    0.074794
    36  C   -0.172737
    37  C    0.093597
    38  C    0.040270
    39  C    0.182575
    40  C   -0.061442
    41  O   -0.148517
    42  C    0.071261
    43  C    0.125085
    44  O   -0.211412
    45  O   -0.246699
    46  C    0.190701
    47  C    0.316743
    48  C   -0.084162
    49  C   -0.146994
    50  C    0.157083
    51  C    0.111387
    52  C    0.070356
    53  C    0.068478
    54  C   -0.101285
    55  C    0.102468
    56  C    0.117379
    57  C    0.080738
    58  C    0.061737
    59  C   -0.054952
    60  C    0.080174
    61  C    0.132618
    62  C    0.087150
    63  C    0.093085
    64  C   -0.146961
    65  C    0.116144
    66  C    0.114773
    67  H   -0.052608
    68  H   -0.058279
    69  H   -0.075892
    70  H   -0.036555
    71  H   -0.040035
    72  H    0.001303
    73  H   -0.009672
    74  H   -0.008981
    75  H   -0.021917
    76  H    0.024566
    77  H   -0.008260
    78  H    0.002971
    79  H   -0.023292
    80  H    0.001082
    81  H    0.014324
    82  H    0.010162
    83  H   -0.000721
    84  H    0.003268
    85  H   -0.017697
    86  H   -0.026207
    87  H   -0.000962
    88  H   -0.014051
    89  H   -0.020812
    90  H   -0.022300
    91  H   -0.022539
    92  H   -0.012985
    93  H   -0.006905
    94  H    0.007855
    95  H    0.021610
    96  H   -0.015349
    97  H    0.019303
    98  H   -0.009294
    99  H    0.016611
   100  H    0.030063
   101  H    0.032847
   102  H    0.019348
   103  H   -0.001384
   104  H   -0.027724
   105  H   -0.033805
   106  H   -0.003447
   107  H    0.005209
   108  H   -0.038665
   109  H   -0.039262
   110  H   -0.023319
   111  H   -0.017794
   112  H   -0.030414
   113  H   -0.036200
   114  H   -0.031199
   115  H   -0.021990
   116  H    0.009171
   117  H   -0.026262
   118  H   -0.040865
   119  H   -0.031050
   120  H   -0.010768
   121  H   -0.023230
   122  H   -0.038682
   123  H   -0.049051
   124  H   -0.033814
   125  H   -0.022809
   126  H   -0.023977
   127  H   -0.009349
   128  H   -0.049532
   129  H   -0.026283
   130  H   -0.031221
   131  H   -0.032615
   132  H   -0.035530
   133  H   -0.017662
   134  H   -0.038431
   135  H   -0.012042
   136  H   -0.039931
   137  H   -0.010473
   138  H   -0.032628
   139  H   -0.013764
   140  H   -0.000658
 Sum of Mulliken charges =  -0.00000

 Dipole moment (field-independent basis, Debye):
    X=             -2.4992    Y=              1.9354    Z=             -4.2106  Tot=              5.2651
 Quadrupole moment (field-independent basis, Debye-Ang):
   XX=           -369.1763   YY=           -424.4071   ZZ=           -404.6371
   XY=              1.7606   XZ=             -0.8232   YZ=              0.1036

 Normal termination of Gaussian 16 at Wed May  4 16:42:48 2022.
