 Gaussian 16, Revision A.03,
 Gaussian 16:  ES64L-G16RevA.03 25-Dec-2016

 -----------------------------------
 #p cam-b3lyp/Def2SVP td=(nstates=5)
 -----------------------------------

 ----------------------------------------------------
 step_1_chromophore_1 TDDFT with cam-b3lyp functional
 ----------------------------------------------------
 Symbolic Z-matrix:
 Charge =  0 Multiplicity = 1

                         Standard orientation:
 ---------------------------------------------------------------------
 Center     Atomic      Atomic             Coordinates (Angstroms)
 Number     Number       Type             X           Y           Z
 ---------------------------------------------------------------------
      1         12           0        6.110173    0.584427    0.086308
      2          6           0        4.084321   -2.334675   -0.346106
      3          6           0        3.869472    2.248419   -1.876713
      4          6           0        8.110195    3.045414    0.077699
      5          6           0        8.707761   -1.538463    1.030520
      6          7           0        4.251170   -0.068640   -0.922779
      7          6           0        3.552106   -1.198723   -0.960113
      8          6           0        2.163335   -1.043633   -1.649051
      9          6           0        2.472414    0.231968   -2.554209
     10          6           0        3.572459    0.862154   -1.718332
     11          6           0        3.037802   -0.117644   -3.927019
     12          6           0        1.018780   -0.752781   -0.620883
     13          6           0       -0.404015   -0.910929   -1.164939
     14          6           0       -1.437407   -1.431175   -0.282447
     15          8           0       -1.465245   -1.429690    0.945531
     16          8           0       -2.412060   -1.970020   -1.058229
     17          7           0        5.799163    2.486589   -0.347168
     18          6           0        4.829733    2.986009   -1.150953
     19          6           0        5.017723    4.452752   -1.153289
     20          6           0        6.289963    4.749570   -0.438167
     21          6           0        6.803887    3.420344   -0.227411
     22          6           0        4.027073    5.408330   -1.744248
     23          6           0        6.944554    6.028674   -0.021589
     24          8           0        8.156954    6.072352    0.381839
     25          6           0        6.147320    7.257925   -0.184073
     26          7           0        8.183391    0.730072    0.281729
     27          6           0        8.792641    1.920612    0.302053
     28          6           0       10.224258    1.794088    0.731474
     29          6           0       10.402711    0.290168    1.237567
     30          6           0        8.982614   -0.237167    0.915833
     31          6           0       11.275258    2.098395   -0.345005
     32          6           0       10.956022    0.091590    2.671035
     33          6           0        9.946441    0.584046    3.683621
     34          7           0        6.333258   -1.537811    0.483027
     35          6           0        7.511274   -2.209448    0.840595
     36          6           0        7.189308   -3.647319    0.894754
     37          6           0        5.841684   -3.714214    0.546502
     38          6           0        5.359510   -2.403938    0.265470
     39          6           0        8.107477   -4.696843    1.177417
     40          6           0        4.703229   -4.590342    0.322499
     41          8           0        4.485452   -5.790477    0.494960
     42          6           0        3.551956   -3.745638   -0.382392
     43          6           0        2.267307   -4.031436    0.346514
     44          8           0        2.104707   -3.658887    1.526402
     45          8           0        1.352322   -4.482264   -0.525323
     46          6           0        0.044899   -4.757232    0.128276
     47          6           0       -3.550340   -2.584985   -0.377102
     48          6           0       -4.836845   -2.019445   -0.742110
     49          6           0       -6.037989   -2.630497   -0.886966
     50          6           0       -6.417067   -4.060155   -0.768488
     51          6           0       -7.190232   -1.848771   -1.501930
     52          6           0       -8.461116   -1.493060   -0.619190
     53          6           0       -8.351515   -0.063212    0.060215
     54          6           0       -9.705962    0.749175   -0.060346
     55          6           0       -9.821888    1.276039   -1.580360
     56          6           0       -9.960311    1.770012    1.115321
     57          6           0      -11.410354    2.270505    1.235486
     58          6           0      -11.873148    2.410030    2.684976
     59          6           0      -13.432757    2.208923    2.857037
     60          6           0      -13.913103    2.649041    4.285798
     61          6           0      -14.000819    0.797275    2.421949
     62          6           0      -15.023617    0.724132    1.263450
     63          6           0      -14.557530    0.023398   -0.031892
     64          6           0      -14.992245    0.776830   -1.335053
     65          6           0      -14.791498   -0.021380   -2.652372
     66          6           0      -14.453046    2.212964   -1.538521
     67          1           0        3.365778    2.809265   -2.666451
     68          1           0        8.807893    3.877501    0.192966
     69          1           0        9.446217   -2.252321    1.400039
     70          1           0        1.871654   -1.884742   -2.278243
     71          1           0        1.615278    0.901863   -2.619642
     72          1           0        3.256346   -1.182311   -4.008524
     73          1           0        3.952850    0.467220   -4.022491
     74          1           0        2.375032    0.231451   -4.719260
     75          1           0        1.009816    0.311220   -0.384491
     76          1           0        1.134681   -1.370446    0.270399
     77          1           0       -0.410065   -1.444012   -2.116094
     78          1           0       -0.789136    0.079641   -1.407123
     79          1           0        3.278669    4.890222   -2.342579
     80          1           0        4.568441    6.025317   -2.461155
     81          1           0        3.566851    6.042955   -0.986766
     82          1           0        5.870434    7.371347   -1.232414
     83          1           0        6.742509    8.061643    0.247942
     84          1           0        5.214169    7.149316    0.369445
     85          1           0       10.448416    2.475717    1.550963
     86          1           0       11.089438   -0.274866    0.606839
     87          1           0       11.975458    2.885204   -0.063303
     88          1           0       10.750834    2.352807   -1.265627
     89          1           0       11.866268    1.239710   -0.662472
     90          1           0       11.863534    0.677736    2.811751
     91          1           0       11.193242   -0.947268    2.900714
     92          1           0       10.144825    1.654473    3.724394
     93          1           0       10.121703    0.117282    4.653479
     94          1           0        8.925698    0.455327    3.323063
     95          1           0        7.594720   -5.375357    1.859084
     96          1           0        9.026075   -4.311101    1.618985
     97          1           0        8.263143   -5.103500    0.178291
     98          1           0        3.514672   -4.072332   -1.421142
     99          1           0       -0.211822   -5.793715   -0.090886
    100          1           0       -0.641625   -3.982682   -0.214012
    101          1           0        0.044644   -4.771319    1.218753
    102          1           0       -3.577722   -2.470291    0.706861
    103          1           0       -3.421259   -3.629991   -0.656341
    104          1           0       -4.731942   -1.106062   -1.328318
    105          1           0       -5.541439   -4.702492   -0.677528
    106          1           0       -6.894711   -4.435056   -1.674364
    107          1           0       -7.052233   -4.275771    0.091591
    108          1           0       -7.566149   -2.442003   -2.335742
    109          1           0       -6.838285   -0.955927   -2.019637
    110          1           0       -8.481138   -2.084512    0.295878
    111          1           0       -9.381344   -1.542697   -1.199484
    112          1           0       -7.554723    0.509487   -0.414077
    113          1           0       -8.062241   -0.308034    1.081996
    114          1           0      -10.489634    0.019621    0.141481
    115          1           0       -9.612410    2.342656   -1.660332
    116          1           0      -10.716295    0.928360   -2.095981
    117          1           0       -8.933319    0.962946   -2.128057
    118          1           0       -9.325897    2.602921    0.813906
    119          1           0       -9.591251    1.372770    2.061098
    120          1           0      -12.079537    1.587016    0.711609
    121          1           0      -11.521509    3.244847    0.759541
    122          1           0      -11.440375    3.290373    3.161018
    123          1           0      -11.387037    1.642841    3.288180
    124          1           0      -13.817657    3.056054    2.287692
    125          1           0      -13.581638    1.875392    4.978354
    126          1           0      -14.993573    2.588299    4.417445
    127          1           0      -13.624293    3.651749    4.598915
    128          1           0      -14.547580    0.525810    3.325091
    129          1           0      -13.209159    0.057028    2.302262
    130          1           0      -15.366180    1.734841    1.038621
    131          1           0      -15.909733    0.165234    1.563238
    132          1           0      -15.024069   -0.961037   -0.065375
    133          1           0      -13.476160   -0.089626   -0.104465
    134          1           0      -16.075349    0.779779   -1.220035
    135          1           0      -15.687070   -0.275662   -3.218892
    136          1           0      -14.484362   -0.991383   -2.262171
    137          1           0      -14.023341    0.495992   -3.228316
    138          1           0      -13.711897    2.453981   -0.775842
    139          1           0      -15.284183    2.825076   -1.187734
    140          1           0      -13.994055    2.499475   -2.486071
 ---------------------------------------------------------------------

 SCF Done:  E(RCAM-B3LYP) =  -3007.15017388     A.U. after   18 cycles

 Excitation energies and oscillator strengths:

 Excited State   1:      Singlet-A      1.6813 eV  737.43 nm  f=0.3809  <S**2>=0.000
     245 -> 248        0.17636
     246 -> 247        0.68559
     245 <- 248        0.10545
 This state for optimization and/or second-order correction.
 Total Energy, E(TD-HF/TD-DFT) =  -3007.08838750
 Copying the excited state density for this state as the 1-particle RhoCI density.

 Excited State   2:      Singlet-A      2.1917 eV  565.70 nm  f=0.1044  <S**2>=0.000
     245 -> 247        0.64067
     246 -> 248       -0.27890

 Excited State   3:      Singlet-A      3.2816 eV  377.81 nm  f=0.0043  <S**2>=0.000
     243 -> 247       -0.37114
     244 -> 247        0.56173
     246 -> 248       -0.13098

 Excited State   4:      Singlet-A      3.3240 eV  372.99 nm  f=0.0197  <S**2>=0.000
     241 -> 247        0.19799
     241 -> 250       -0.12484
     243 -> 247        0.46059
     244 -> 247        0.35100
     246 -> 248        0.27923

 Excited State   5:      Singlet-A      3.4133 eV  363.24 nm  f=0.0163  <S**2>=0.000
     241 -> 247        0.56112
     241 -> 249        0.18096
     241 -> 250       -0.25323
     243 -> 247       -0.11689
     244 -> 247       -0.16719
     246 -> 248       -0.15758

 The electronic state is 1-A.
 Alpha  occ. eigenvalues --  -46.87745 -19.26158 -19.25559 -19.19786 -19.18789
 Alpha  occ. eigenvalues --  -19.18757 -19.18094 -14.42431 -14.41398 -14.39352
 Alpha  occ. eigenvalues --  -14.38531 -10.39460 -10.38884 -10.35391 -10.34313
 Alpha  occ. eigenvalues --  -10.31841 -10.31569 -10.31393 -10.30904 -10.30524
 Alpha  occ. eigenvalues --  -10.30456 -10.30158 -10.29870 -10.29582 -10.29203
 Alpha  occ. eigenvalues --  -10.28903 -10.28308 -10.28211 -10.27734 -10.27706
 Alpha  occ. eigenvalues --  -10.27532 -10.27451 -10.27446 -10.27434 -10.27396
 Alpha  occ. eigenvalues --  -10.27391 -10.27369 -10.27077 -10.26894 -10.26420
 Alpha  occ. eigenvalues --  -10.26348 -10.26295 -10.26209 -10.26119 -10.26089
 Alpha  occ. eigenvalues --  -10.26015 -10.25967 -10.25781 -10.25742 -10.25706
 Alpha  occ. eigenvalues --  -10.25494 -10.25447 -10.25388 -10.25282 -10.25192
 Alpha  occ. eigenvalues --  -10.25006 -10.24937 -10.24773 -10.24754 -10.24737
 Alpha  occ. eigenvalues --  -10.24665 -10.24608 -10.24597 -10.24521 -10.24290
 Alpha  occ. eigenvalues --  -10.24139  -3.16487  -1.91368  -1.90955  -1.90797
 Alpha  occ. eigenvalues --   -1.17216  -1.16490  -1.08545  -1.07891  -1.07158
 Alpha  occ. eigenvalues --   -1.06434  -1.04561  -1.03721  -1.03181  -1.02362
 Alpha  occ. eigenvalues --   -0.91918  -0.90954  -0.89930  -0.89459  -0.89251
 Alpha  occ. eigenvalues --   -0.88350  -0.88168  -0.88033  -0.87774  -0.87226
 Alpha  occ. eigenvalues --   -0.86941  -0.86448  -0.84588  -0.83876  -0.83578
 Alpha  occ. eigenvalues --   -0.82909  -0.82754  -0.81716  -0.81350  -0.80706
 Alpha  occ. eigenvalues --   -0.79665  -0.78948  -0.78726  -0.77051  -0.76116
 Alpha  occ. eigenvalues --   -0.75717  -0.75428  -0.74877  -0.74795  -0.74562
 Alpha  occ. eigenvalues --   -0.73653  -0.72697  -0.71688  -0.70446  -0.69830
 Alpha  occ. eigenvalues --   -0.68508  -0.68042  -0.67526  -0.66760  -0.65659
 Alpha  occ. eigenvalues --   -0.64978  -0.64814  -0.64651  -0.64230  -0.63400
 Alpha  occ. eigenvalues --   -0.63273  -0.62732  -0.62207  -0.62200  -0.60984
 Alpha  occ. eigenvalues --   -0.60417  -0.60388  -0.59035  -0.58504  -0.58197
 Alpha  occ. eigenvalues --   -0.57504  -0.57237  -0.56682  -0.56261  -0.55794
 Alpha  occ. eigenvalues --   -0.55452  -0.55265  -0.54864  -0.54593  -0.54365
 Alpha  occ. eigenvalues --   -0.54066  -0.53689  -0.53259  -0.53231  -0.52990
 Alpha  occ. eigenvalues --   -0.52772  -0.52508  -0.52354  -0.52320  -0.52003
 Alpha  occ. eigenvalues --   -0.51825  -0.51747  -0.51577  -0.51272  -0.51076
 Alpha  occ. eigenvalues --   -0.50570  -0.50421  -0.50089  -0.49929  -0.49735
 Alpha  occ. eigenvalues --   -0.49419  -0.49167  -0.49081  -0.48742  -0.48497
 Alpha  occ. eigenvalues --   -0.48399  -0.48321  -0.48212  -0.47965  -0.47577
 Alpha  occ. eigenvalues --   -0.47376  -0.47348  -0.46909  -0.46683  -0.46407
 Alpha  occ. eigenvalues --   -0.46293  -0.46143  -0.46041  -0.45735  -0.45580
 Alpha  occ. eigenvalues --   -0.45383  -0.45150  -0.45084  -0.44870  -0.44515
 Alpha  occ. eigenvalues --   -0.44303  -0.44198  -0.44058  -0.43969  -0.43880
 Alpha  occ. eigenvalues --   -0.43791  -0.43487  -0.43393  -0.43108  -0.42906
 Alpha  occ. eigenvalues --   -0.42678  -0.42533  -0.42489  -0.42352  -0.41896
 Alpha  occ. eigenvalues --   -0.41831  -0.41656  -0.41372  -0.41225  -0.41121
 Alpha  occ. eigenvalues --   -0.40851  -0.40798  -0.40555  -0.40356  -0.40064
 Alpha  occ. eigenvalues --   -0.39597  -0.39559  -0.39527  -0.39292  -0.38489
 Alpha  occ. eigenvalues --   -0.38448  -0.38335  -0.37617  -0.37446  -0.37355
 Alpha  occ. eigenvalues --   -0.37297  -0.37057  -0.36794  -0.36578  -0.36111
 Alpha  occ. eigenvalues --   -0.35982  -0.35625  -0.34709  -0.34652  -0.34551
 Alpha  occ. eigenvalues --   -0.34236  -0.33563  -0.33112  -0.31287  -0.30991
 Alpha  occ. eigenvalues --   -0.29952  -0.29707  -0.29393  -0.29261  -0.24031
 Alpha  occ. eigenvalues --   -0.21090
 Alpha virt. eigenvalues --   -0.08723  -0.01708  -0.00016   0.02269   0.03249
 Alpha virt. eigenvalues --    0.04415   0.04906   0.05150   0.05478   0.06662
 Alpha virt. eigenvalues --    0.07904   0.08064   0.08665   0.09029   0.09150

 Mulliken charges:
               1
     1  Mg   0.840534
     2  C   -0.001461
     3  C   -0.094172
     4  C   -0.045766
     5  C   -0.063874
     6  N   -0.256830
     7  C   -0.048128
     8  C   -0.017081
     9  C   -0.090801
    10  C    0.046658
    11  C    0.106008
    12  C    0.075140
    13  C    0.051555
    14  C    0.138096
    15  O   -0.224865
    16  O   -0.343007
    17  N   -0.433072
    18  C    0.168835
    19  C   -0.177081
    20  C   -0.003866
    21  C    0.148819
    22  C    0.110309
    23  C    0.012467
    24  O   -0.249609
    25  C    0.062345
    26  N   -0.341189
    27  C    0.041285
    28  C   -0.028173
    29  C   -0.024025
    30  C    0.075036
    31  C    0.076211
    32  C    0.035097
    33  C   -0.004556
    34  N   -0.310501
    35  C    0.080656
    36  C   -0.169555
    37  C    0.008496
    38  C    0.082968
    39  C    0.127214
    40  C    0.046777
    41  O   -0.188173
    42  C   -0.005101
    43  C    0.209697
    44  O   -0.250597
    45  O   -0.309153
    46  C    0.160769
    47  C    0.277097
    48  C   -0.103066
    49  C   -0.165518
    50  C    0.093311
    51  C    0.051003
    52  C    0.014823
    53  C    0.023225
    54  C   -0.153115
    55  C    0.044045
    56  C    0.069884
    57  C    0.030820
    58  C    0.014929
    59  C   -0.111597
    60  C    0.025200
    61  C    0.068787
    62  C    0.033578
    63  C    0.041288
    64  C   -0.199904
    65  C    0.058618
    66  C    0.053795
    67  H   -0.018008
    68  H   -0.016812
    69  H   -0.041414
    70  H   -0.000559
    71  H   -0.004540
    72  H    0.025699
    73  H    0.017090
    74  H    0.016437
    75  H    0.009148
    76  H    0.055078
    77  H    0.026546
    78  H    0.033880
    79  H    0.005426
    80  H    0.026672
    81  H    0.039978
    82  H    0.037165
    83  H    0.035676
    84  H    0.031876
    85  H    0.016690
    86  H    0.009365
    87  H    0.023206
    88  H    0.012426
    89  H    0.004671
    90  H    0.006288
    91  H    0.004727
    92  H    0.008792
    93  H    0.018328
    94  H    0.029330
    95  H    0.047897
    96  H    0.009129
    97  H    0.045805
    98  H    0.034248
    99  H    0.039872
   100  H    0.041851
   101  H    0.060820
   102  H    0.053576
   103  H    0.024444
   104  H    0.005298
   105  H   -0.007734
   106  H    0.022276
   107  H    0.030005
   108  H   -0.007601
   109  H   -0.010477
   110  H    0.004011
   111  H    0.010709
   112  H   -0.004574
   113  H   -0.007134
   114  H   -0.003956
   115  H    0.002903
   116  H    0.029533
   117  H   -0.003311
   118  H   -0.013264
   119  H   -0.002206
   120  H    0.005535
   121  H    0.004217
   122  H   -0.008862
   123  H   -0.021583
   124  H   -0.004408
   125  H   -0.000091
   126  H    0.001213
   127  H    0.015090
   128  H   -0.016513
   129  H    0.002463
   130  H   -0.003705
   131  H   -0.002416
   132  H   -0.005406
   133  H    0.004525
   134  H   -0.007149
   135  H    0.012908
   136  H   -0.014925
   137  H    0.010917
   138  H   -0.012199
   139  H    0.009827
   140  H    0.023739
 Sum of Mulliken charges =  -0.00000

 Dipole moment (field-independent basis, Debye):
    X=             -2.6928    Y=              2.4468    Z=             -4.4924  Tot=              5.7810
 Quadrupole moment (field-independent basis, Debye-Ang):
   XX=           -368.8272   YY=           -419.6100   ZZ=           -404.3529
   XY=              4.7899   XZ=             -1.3858   YZ=             -0.3660

 Normal termination of Gaussian 16 at Wed May  4 15:14:27 2022.
