 Gaussian 16, Revision A.03,
 Gaussian 16:  ES64L-G16RevA.03 25-Dec-2016

 ---------------------------------
 #p PBE1PBE/Def2SVP td=(nstates=5)
 ---------------------------------

 --------------------------------------------------
 step_1_chromophore_1 TDDFT with PBE1PBE functional
 --------------------------------------------------
 Symbolic Z-matrix:
 Charge =  0 Multiplicity = 1

                         Standard orientation:
 ---------------------------------------------------------------------
 Center     Atomic      Atomic             Coordinates (Angstroms)
 Number     Number       Type             X           Y           Z
 ---------------------------------------------------------------------
      1         12           0        6.110173    0.584427    0.086308
      2          6           0        4.084321   -2.334675   -0.346106
      3          6           0        3.869472    2.248419   -1.876713
      4          6           0        8.110195    3.045414    0.077699
      5          6           0        8.707761   -1.538463    1.030520
      6          7           0        4.251170   -0.068640   -0.922779
      7          6           0        3.552106   -1.198723   -0.960113
      8          6           0        2.163335   -1.043633   -1.649051
      9          6           0        2.472414    0.231968   -2.554209
     10          6           0        3.572459    0.862154   -1.718332
     11          6           0        3.037802   -0.117644   -3.927019
     12          6           0        1.018780   -0.752781   -0.620883
     13          6           0       -0.404015   -0.910929   -1.164939
     14          6           0       -1.437407   -1.431175   -0.282447
     15          8           0       -1.465245   -1.429690    0.945531
     16          8           0       -2.412060   -1.970020   -1.058229
     17          7           0        5.799163    2.486589   -0.347168
     18          6           0        4.829733    2.986009   -1.150953
     19          6           0        5.017723    4.452752   -1.153289
     20          6           0        6.289963    4.749570   -0.438167
     21          6           0        6.803887    3.420344   -0.227411
     22          6           0        4.027073    5.408330   -1.744248
     23          6           0        6.944554    6.028674   -0.021589
     24          8           0        8.156954    6.072352    0.381839
     25          6           0        6.147320    7.257925   -0.184073
     26          7           0        8.183391    0.730072    0.281729
     27          6           0        8.792641    1.920612    0.302053
     28          6           0       10.224258    1.794088    0.731474
     29          6           0       10.402711    0.290168    1.237567
     30          6           0        8.982614   -0.237167    0.915833
     31          6           0       11.275258    2.098395   -0.345005
     32          6           0       10.956022    0.091590    2.671035
     33          6           0        9.946441    0.584046    3.683621
     34          7           0        6.333258   -1.537811    0.483027
     35          6           0        7.511274   -2.209448    0.840595
     36          6           0        7.189308   -3.647319    0.894754
     37          6           0        5.841684   -3.714214    0.546502
     38          6           0        5.359510   -2.403938    0.265470
     39          6           0        8.107477   -4.696843    1.177417
     40          6           0        4.703229   -4.590342    0.322499
     41          8           0        4.485452   -5.790477    0.494960
     42          6           0        3.551956   -3.745638   -0.382392
     43          6           0        2.267307   -4.031436    0.346514
     44          8           0        2.104707   -3.658887    1.526402
     45          8           0        1.352322   -4.482264   -0.525323
     46          6           0        0.044899   -4.757232    0.128276
     47          6           0       -3.550340   -2.584985   -0.377102
     48          6           0       -4.836845   -2.019445   -0.742110
     49          6           0       -6.037989   -2.630497   -0.886966
     50          6           0       -6.417067   -4.060155   -0.768488
     51          6           0       -7.190232   -1.848771   -1.501930
     52          6           0       -8.461116   -1.493060   -0.619190
     53          6           0       -8.351515   -0.063212    0.060215
     54          6           0       -9.705962    0.749175   -0.060346
     55          6           0       -9.821888    1.276039   -1.580360
     56          6           0       -9.960311    1.770012    1.115321
     57          6           0      -11.410354    2.270505    1.235486
     58          6           0      -11.873148    2.410030    2.684976
     59          6           0      -13.432757    2.208923    2.857037
     60          6           0      -13.913103    2.649041    4.285798
     61          6           0      -14.000819    0.797275    2.421949
     62          6           0      -15.023617    0.724132    1.263450
     63          6           0      -14.557530    0.023398   -0.031892
     64          6           0      -14.992245    0.776830   -1.335053
     65          6           0      -14.791498   -0.021380   -2.652372
     66          6           0      -14.453046    2.212964   -1.538521
     67          1           0        3.365778    2.809265   -2.666451
     68          1           0        8.807893    3.877501    0.192966
     69          1           0        9.446217   -2.252321    1.400039
     70          1           0        1.871654   -1.884742   -2.278243
     71          1           0        1.615278    0.901863   -2.619642
     72          1           0        3.256346   -1.182311   -4.008524
     73          1           0        3.952850    0.467220   -4.022491
     74          1           0        2.375032    0.231451   -4.719260
     75          1           0        1.009816    0.311220   -0.384491
     76          1           0        1.134681   -1.370446    0.270399
     77          1           0       -0.410065   -1.444012   -2.116094
     78          1           0       -0.789136    0.079641   -1.407123
     79          1           0        3.278669    4.890222   -2.342579
     80          1           0        4.568441    6.025317   -2.461155
     81          1           0        3.566851    6.042955   -0.986766
     82          1           0        5.870434    7.371347   -1.232414
     83          1           0        6.742509    8.061643    0.247942
     84          1           0        5.214169    7.149316    0.369445
     85          1           0       10.448416    2.475717    1.550963
     86          1           0       11.089438   -0.274866    0.606839
     87          1           0       11.975458    2.885204   -0.063303
     88          1           0       10.750834    2.352807   -1.265627
     89          1           0       11.866268    1.239710   -0.662472
     90          1           0       11.863534    0.677736    2.811751
     91          1           0       11.193242   -0.947268    2.900714
     92          1           0       10.144825    1.654473    3.724394
     93          1           0       10.121703    0.117282    4.653479
     94          1           0        8.925698    0.455327    3.323063
     95          1           0        7.594720   -5.375357    1.859084
     96          1           0        9.026075   -4.311101    1.618985
     97          1           0        8.263143   -5.103500    0.178291
     98          1           0        3.514672   -4.072332   -1.421142
     99          1           0       -0.211822   -5.793715   -0.090886
    100          1           0       -0.641625   -3.982682   -0.214012
    101          1           0        0.044644   -4.771319    1.218753
    102          1           0       -3.577722   -2.470291    0.706861
    103          1           0       -3.421259   -3.629991   -0.656341
    104          1           0       -4.731942   -1.106062   -1.328318
    105          1           0       -5.541439   -4.702492   -0.677528
    106          1           0       -6.894711   -4.435056   -1.674364
    107          1           0       -7.052233   -4.275771    0.091591
    108          1           0       -7.566149   -2.442003   -2.335742
    109          1           0       -6.838285   -0.955927   -2.019637
    110          1           0       -8.481138   -2.084512    0.295878
    111          1           0       -9.381344   -1.542697   -1.199484
    112          1           0       -7.554723    0.509487   -0.414077
    113          1           0       -8.062241   -0.308034    1.081996
    114          1           0      -10.489634    0.019621    0.141481
    115          1           0       -9.612410    2.342656   -1.660332
    116          1           0      -10.716295    0.928360   -2.095981
    117          1           0       -8.933319    0.962946   -2.128057
    118          1           0       -9.325897    2.602921    0.813906
    119          1           0       -9.591251    1.372770    2.061098
    120          1           0      -12.079537    1.587016    0.711609
    121          1           0      -11.521509    3.244847    0.759541
    122          1           0      -11.440375    3.290373    3.161018
    123          1           0      -11.387037    1.642841    3.288180
    124          1           0      -13.817657    3.056054    2.287692
    125          1           0      -13.581638    1.875392    4.978354
    126          1           0      -14.993573    2.588299    4.417445
    127          1           0      -13.624293    3.651749    4.598915
    128          1           0      -14.547580    0.525810    3.325091
    129          1           0      -13.209159    0.057028    2.302262
    130          1           0      -15.366180    1.734841    1.038621
    131          1           0      -15.909733    0.165234    1.563238
    132          1           0      -15.024069   -0.961037   -0.065375
    133          1           0      -13.476160   -0.089626   -0.104465
    134          1           0      -16.075349    0.779779   -1.220035
    135          1           0      -15.687070   -0.275662   -3.218892
    136          1           0      -14.484362   -0.991383   -2.262171
    137          1           0      -14.023341    0.495992   -3.228316
    138          1           0      -13.711897    2.453981   -0.775842
    139          1           0      -15.284183    2.825076   -1.187734
    140          1           0      -13.994055    2.499475   -2.486071
 ---------------------------------------------------------------------

 SCF Done:  E(RPBE1PBE) =  -3005.34095719     A.U. after   15 cycles

 Excitation energies and oscillator strengths:

 Excited State   1:      Singlet-A      1.8430 eV  672.73 nm  f=0.3692  <S**2>=0.000
     245 -> 248        0.16294
     246 -> 247        0.69314
     246 <- 247       -0.11067
 This state for optimization and/or second-order correction.
 Total Energy, E(TD-HF/TD-DFT) =  -3005.27322780
 Copying the excited state density for this state as the 1-particle RhoCI density.

 Excited State   2:      Singlet-A      2.1923 eV  565.55 nm  f=0.0993  <S**2>=0.000
     245 -> 247        0.65176
     246 -> 248       -0.24234

 Excited State   3:      Singlet-A      2.8211 eV  439.49 nm  f=0.0007  <S**2>=0.000
     241 -> 247       -0.12008
     244 -> 247        0.66777
     244 -> 249        0.10058
     244 -> 250       -0.11992

 Excited State   4:      Singlet-A      2.9539 eV  419.73 nm  f=0.0009  <S**2>=0.000
     243 -> 247        0.67962

 Excited State   5:      Singlet-A      3.0113 eV  411.73 nm  f=0.0031  <S**2>=0.000
     240 -> 247       -0.19087
     241 -> 247        0.63500
     244 -> 247        0.10892
     246 -> 248        0.17308

 The electronic state is 1-A.
 Alpha  occ. eigenvalues --  -46.91155 -19.26799 -19.26266 -19.20089 -19.19076
 Alpha  occ. eigenvalues --  -19.18970 -19.18352 -14.41944 -14.40924 -14.39016
 Alpha  occ. eigenvalues --  -14.38214 -10.36467 -10.35917 -10.32451 -10.31508
 Alpha  occ. eigenvalues --  -10.29244 -10.29152 -10.28782 -10.28649 -10.28190
 Alpha  occ. eigenvalues --  -10.28101 -10.27967 -10.27510 -10.27227 -10.26998
 Alpha  occ. eigenvalues --  -10.26747 -10.26020 -10.26016 -10.25408 -10.25345
 Alpha  occ. eigenvalues --  -10.25334 -10.25237 -10.25214 -10.25191 -10.25012
 Alpha  occ. eigenvalues --  -10.24964 -10.24821 -10.24706 -10.24525 -10.24154
 Alpha  occ. eigenvalues --  -10.23928 -10.23766 -10.23742 -10.23577 -10.23568
 Alpha  occ. eigenvalues --  -10.23522 -10.23454 -10.23309 -10.23286 -10.23225
 Alpha  occ. eigenvalues --  -10.23168 -10.23010 -10.22879 -10.22716 -10.22683
 Alpha  occ. eigenvalues --  -10.22558 -10.22546 -10.22516 -10.22368 -10.22298
 Alpha  occ. eigenvalues --  -10.22210 -10.22097 -10.22026 -10.21921 -10.21682
 Alpha  occ. eigenvalues --  -10.21535  -3.13472  -1.86294  -1.85860  -1.85706
 Alpha  occ. eigenvalues --   -1.12049  -1.11281  -1.03296  -1.02757  -1.01796
 Alpha  occ. eigenvalues --   -1.01244  -0.99168  -0.98345  -0.97862  -0.97055
 Alpha  occ. eigenvalues --   -0.86289  -0.85127  -0.84143  -0.83787  -0.83299
 Alpha  occ. eigenvalues --   -0.82659  -0.82431  -0.82189  -0.82117  -0.81407
 Alpha  occ. eigenvalues --   -0.81116  -0.80653  -0.78805  -0.78175  -0.77800
 Alpha  occ. eigenvalues --   -0.77111  -0.76964  -0.75991  -0.75520  -0.75041
 Alpha  occ. eigenvalues --   -0.73826  -0.73228  -0.73023  -0.71405  -0.70460
 Alpha  occ. eigenvalues --   -0.69905  -0.69504  -0.69204  -0.68934  -0.68714
 Alpha  occ. eigenvalues --   -0.67984  -0.67152  -0.66103  -0.64767  -0.64164
 Alpha  occ. eigenvalues --   -0.62844  -0.62404  -0.61979  -0.60989  -0.60119
 Alpha  occ. eigenvalues --   -0.59379  -0.59351  -0.59099  -0.58728  -0.57831
 Alpha  occ. eigenvalues --   -0.57440  -0.56874  -0.56782  -0.56412  -0.55308
 Alpha  occ. eigenvalues --   -0.54909  -0.54879  -0.53657  -0.53114  -0.52591
 Alpha  occ. eigenvalues --   -0.52048  -0.51729  -0.51174  -0.50843  -0.50229
 Alpha  occ. eigenvalues --   -0.49992  -0.49752  -0.49400  -0.49158  -0.48945
 Alpha  occ. eigenvalues --   -0.48414  -0.48097  -0.47871  -0.47762  -0.47631
 Alpha  occ. eigenvalues --   -0.47195  -0.47023  -0.46899  -0.46741  -0.46550
 Alpha  occ. eigenvalues --   -0.46350  -0.46194  -0.46058  -0.45863  -0.45595
 Alpha  occ. eigenvalues --   -0.45106  -0.44980  -0.44689  -0.44562  -0.44293
 Alpha  occ. eigenvalues --   -0.44002  -0.43814  -0.43690  -0.43352  -0.43126
 Alpha  occ. eigenvalues --   -0.43003  -0.42908  -0.42898  -0.42520  -0.42251
 Alpha  occ. eigenvalues --   -0.42006  -0.41968  -0.41623  -0.41468  -0.41056
 Alpha  occ. eigenvalues --   -0.41019  -0.40825  -0.40740  -0.40445  -0.40271
 Alpha  occ. eigenvalues --   -0.40077  -0.39904  -0.39718  -0.39607  -0.39252
 Alpha  occ. eigenvalues --   -0.39017  -0.38855  -0.38780  -0.38720  -0.38604
 Alpha  occ. eigenvalues --   -0.38500  -0.38266  -0.38183  -0.37922  -0.37728
 Alpha  occ. eigenvalues --   -0.37461  -0.37325  -0.37287  -0.37042  -0.36786
 Alpha  occ. eigenvalues --   -0.36527  -0.36497  -0.36164  -0.36064  -0.35986
 Alpha  occ. eigenvalues --   -0.35610  -0.35590  -0.35473  -0.35227  -0.34802
 Alpha  occ. eigenvalues --   -0.34481  -0.34419  -0.34362  -0.34221  -0.33311
 Alpha  occ. eigenvalues --   -0.33302  -0.33209  -0.32486  -0.32385  -0.32371
 Alpha  occ. eigenvalues --   -0.32328  -0.31985  -0.31664  -0.31597  -0.31162
 Alpha  occ. eigenvalues --   -0.30810  -0.30447  -0.29658  -0.29536  -0.29405
 Alpha  occ. eigenvalues --   -0.29369  -0.28856  -0.28223  -0.26679  -0.25962
 Alpha  occ. eigenvalues --   -0.25064  -0.25034  -0.24914  -0.24766  -0.20944
 Alpha  occ. eigenvalues --   -0.18737
 Alpha virt. eigenvalues --   -0.11190  -0.05314  -0.04134  -0.02123  -0.00048
 Alpha virt. eigenvalues --    0.00459   0.00555   0.00567   0.00973   0.03383
 Alpha virt. eigenvalues --    0.03709   0.04662   0.04878   0.05244   0.05831

 Mulliken charges:
               1
     1  Mg   0.991494
     2  C   -0.017328
     3  C   -0.080184
     4  C   -0.047861
     5  C   -0.057170
     6  N   -0.355342
     7  C    0.036098
     8  C   -0.090650
     9  C   -0.168048
    10  C    0.068761
    11  C    0.053470
    12  C    0.028221
    13  C   -0.020168
    14  C    0.205821
    15  O   -0.260063
    16  O   -0.375218
    17  N   -0.546693
    18  C    0.190029
    19  C   -0.208381
    20  C   -0.034685
    21  C    0.168862
    22  C    0.048446
    23  C    0.059092
    24  O   -0.286721
    25  C   -0.010030
    26  N   -0.442909
    27  C    0.078471
    28  C   -0.106876
    29  C   -0.092505
    30  C    0.101350
    31  C    0.023703
    32  C   -0.029645
    33  C   -0.077686
    34  N   -0.438516
    35  C    0.109661
    36  C   -0.200565
    37  C   -0.046248
    38  C    0.149786
    39  C    0.072369
    40  C    0.152738
    41  O   -0.232781
    42  C   -0.122995
    43  C    0.299168
    44  O   -0.283055
    45  O   -0.341530
    46  C    0.097973
    47  C    0.236409
    48  C   -0.121428
    49  C   -0.202299
    50  C    0.032604
    51  C   -0.015188
    52  C   -0.047417
    53  C   -0.029110
    54  C   -0.240918
    55  C   -0.016000
    56  C    0.021842
    57  C   -0.047367
    58  C   -0.033689
    59  C   -0.194753
    60  C   -0.038169
    61  C    0.006324
    62  C   -0.025619
    63  C   -0.024370
    64  C   -0.285566
    65  C   -0.002950
    66  C   -0.013666
    67  H    0.012943
    68  H    0.016964
    69  H   -0.008089
    70  H    0.035425
    71  H    0.031024
    72  H    0.052736
    73  H    0.046181
    74  H    0.044420
    75  H    0.042331
    76  H    0.088958
    77  H    0.056796
    78  H    0.066527
    79  H    0.033235
    80  H    0.054822
    81  H    0.067113
    82  H    0.063905
    83  H    0.062382
    84  H    0.059154
    85  H    0.053805
    86  H    0.046991
    87  H    0.049705
    88  H    0.040839
    89  H    0.031425
    90  H    0.040393
    91  H    0.036377
    92  H    0.037011
    93  H    0.046794
    94  H    0.060969
    95  H    0.075241
    96  H    0.036475
    97  H    0.074475
    98  H    0.071523
    99  H    0.061547
   100  H    0.074996
   101  H    0.080857
   102  H    0.080964
   103  H    0.050407
   104  H    0.034480
   105  H    0.020675
   106  H    0.048331
   107  H    0.057009
   108  H    0.026223
   109  H    0.020562
   110  H    0.037595
   111  H    0.041578
   112  H    0.028003
   113  H    0.024873
   114  H    0.037253
   115  H    0.029868
   116  H    0.055679
   117  H    0.024731
   118  H    0.021266
   119  H    0.028264
   120  H    0.048840
   121  H    0.036764
   122  H    0.022735
   123  H    0.011575
   124  H    0.034272
   125  H    0.028604
   126  H    0.030074
   127  H    0.042212
   128  H    0.018083
   129  H    0.034586
   130  H    0.029053
   131  H    0.030279
   132  H    0.028021
   133  H    0.038245
   134  H    0.032323
   135  H    0.040228
   136  H    0.013498
   137  H    0.037979
   138  H    0.021704
   139  H    0.037059
   140  H    0.049518
 Sum of Mulliken charges =  -0.00000

 Dipole moment (field-independent basis, Debye):
    X=             -2.5994    Y=              2.3329    Z=             -4.4916  Tot=              5.6898
 Quadrupole moment (field-independent basis, Debye-Ang):
   XX=           -362.5521   YY=           -417.3810   ZZ=           -401.3094
   XY=              3.9723   XZ=             -0.6163   YZ=             -0.4612

 Normal termination of Gaussian 16 at Wed May  4 15:42:26 2022.
