 Gaussian 16, Revision A.03,
 Gaussian 16:  ES64L-G16RevA.03 25-Dec-2016

 --------------------------------
 #p wB97XD/Def2SVP td=(nstates=5)
 --------------------------------

 -------------------------------------------------
 step_1_chromophore_1 TDDFT with wB97XD functional
 -------------------------------------------------
 Symbolic Z-matrix:
 Charge =  0 Multiplicity = 1

                         Standard orientation:
 ---------------------------------------------------------------------
 Center     Atomic      Atomic             Coordinates (Angstroms)
 Number     Number       Type             X           Y           Z
 ---------------------------------------------------------------------
      1         12           0        6.110173    0.584427    0.086308
      2          6           0        4.084321   -2.334675   -0.346106
      3          6           0        3.869472    2.248419   -1.876713
      4          6           0        8.110195    3.045414    0.077699
      5          6           0        8.707761   -1.538463    1.030520
      6          7           0        4.251170   -0.068640   -0.922779
      7          6           0        3.552106   -1.198723   -0.960113
      8          6           0        2.163335   -1.043633   -1.649051
      9          6           0        2.472414    0.231968   -2.554209
     10          6           0        3.572459    0.862154   -1.718332
     11          6           0        3.037802   -0.117644   -3.927019
     12          6           0        1.018780   -0.752781   -0.620883
     13          6           0       -0.404015   -0.910929   -1.164939
     14          6           0       -1.437407   -1.431175   -0.282447
     15          8           0       -1.465245   -1.429690    0.945531
     16          8           0       -2.412060   -1.970020   -1.058229
     17          7           0        5.799163    2.486589   -0.347168
     18          6           0        4.829733    2.986009   -1.150953
     19          6           0        5.017723    4.452752   -1.153289
     20          6           0        6.289963    4.749570   -0.438167
     21          6           0        6.803887    3.420344   -0.227411
     22          6           0        4.027073    5.408330   -1.744248
     23          6           0        6.944554    6.028674   -0.021589
     24          8           0        8.156954    6.072352    0.381839
     25          6           0        6.147320    7.257925   -0.184073
     26          7           0        8.183391    0.730072    0.281729
     27          6           0        8.792641    1.920612    0.302053
     28          6           0       10.224258    1.794088    0.731474
     29          6           0       10.402711    0.290168    1.237567
     30          6           0        8.982614   -0.237167    0.915833
     31          6           0       11.275258    2.098395   -0.345005
     32          6           0       10.956022    0.091590    2.671035
     33          6           0        9.946441    0.584046    3.683621
     34          7           0        6.333258   -1.537811    0.483027
     35          6           0        7.511274   -2.209448    0.840595
     36          6           0        7.189308   -3.647319    0.894754
     37          6           0        5.841684   -3.714214    0.546502
     38          6           0        5.359510   -2.403938    0.265470
     39          6           0        8.107477   -4.696843    1.177417
     40          6           0        4.703229   -4.590342    0.322499
     41          8           0        4.485452   -5.790477    0.494960
     42          6           0        3.551956   -3.745638   -0.382392
     43          6           0        2.267307   -4.031436    0.346514
     44          8           0        2.104707   -3.658887    1.526402
     45          8           0        1.352322   -4.482264   -0.525323
     46          6           0        0.044899   -4.757232    0.128276
     47          6           0       -3.550340   -2.584985   -0.377102
     48          6           0       -4.836845   -2.019445   -0.742110
     49          6           0       -6.037989   -2.630497   -0.886966
     50          6           0       -6.417067   -4.060155   -0.768488
     51          6           0       -7.190232   -1.848771   -1.501930
     52          6           0       -8.461116   -1.493060   -0.619190
     53          6           0       -8.351515   -0.063212    0.060215
     54          6           0       -9.705962    0.749175   -0.060346
     55          6           0       -9.821888    1.276039   -1.580360
     56          6           0       -9.960311    1.770012    1.115321
     57          6           0      -11.410354    2.270505    1.235486
     58          6           0      -11.873148    2.410030    2.684976
     59          6           0      -13.432757    2.208923    2.857037
     60          6           0      -13.913103    2.649041    4.285798
     61          6           0      -14.000819    0.797275    2.421949
     62          6           0      -15.023617    0.724132    1.263450
     63          6           0      -14.557530    0.023398   -0.031892
     64          6           0      -14.992245    0.776830   -1.335053
     65          6           0      -14.791498   -0.021380   -2.652372
     66          6           0      -14.453046    2.212964   -1.538521
     67          1           0        3.365778    2.809265   -2.666451
     68          1           0        8.807893    3.877501    0.192966
     69          1           0        9.446217   -2.252321    1.400039
     70          1           0        1.871654   -1.884742   -2.278243
     71          1           0        1.615278    0.901863   -2.619642
     72          1           0        3.256346   -1.182311   -4.008524
     73          1           0        3.952850    0.467220   -4.022491
     74          1           0        2.375032    0.231451   -4.719260
     75          1           0        1.009816    0.311220   -0.384491
     76          1           0        1.134681   -1.370446    0.270399
     77          1           0       -0.410065   -1.444012   -2.116094
     78          1           0       -0.789136    0.079641   -1.407123
     79          1           0        3.278669    4.890222   -2.342579
     80          1           0        4.568441    6.025317   -2.461155
     81          1           0        3.566851    6.042955   -0.986766
     82          1           0        5.870434    7.371347   -1.232414
     83          1           0        6.742509    8.061643    0.247942
     84          1           0        5.214169    7.149316    0.369445
     85          1           0       10.448416    2.475717    1.550963
     86          1           0       11.089438   -0.274866    0.606839
     87          1           0       11.975458    2.885204   -0.063303
     88          1           0       10.750834    2.352807   -1.265627
     89          1           0       11.866268    1.239710   -0.662472
     90          1           0       11.863534    0.677736    2.811751
     91          1           0       11.193242   -0.947268    2.900714
     92          1           0       10.144825    1.654473    3.724394
     93          1           0       10.121703    0.117282    4.653479
     94          1           0        8.925698    0.455327    3.323063
     95          1           0        7.594720   -5.375357    1.859084
     96          1           0        9.026075   -4.311101    1.618985
     97          1           0        8.263143   -5.103500    0.178291
     98          1           0        3.514672   -4.072332   -1.421142
     99          1           0       -0.211822   -5.793715   -0.090886
    100          1           0       -0.641625   -3.982682   -0.214012
    101          1           0        0.044644   -4.771319    1.218753
    102          1           0       -3.577722   -2.470291    0.706861
    103          1           0       -3.421259   -3.629991   -0.656341
    104          1           0       -4.731942   -1.106062   -1.328318
    105          1           0       -5.541439   -4.702492   -0.677528
    106          1           0       -6.894711   -4.435056   -1.674364
    107          1           0       -7.052233   -4.275771    0.091591
    108          1           0       -7.566149   -2.442003   -2.335742
    109          1           0       -6.838285   -0.955927   -2.019637
    110          1           0       -8.481138   -2.084512    0.295878
    111          1           0       -9.381344   -1.542697   -1.199484
    112          1           0       -7.554723    0.509487   -0.414077
    113          1           0       -8.062241   -0.308034    1.081996
    114          1           0      -10.489634    0.019621    0.141481
    115          1           0       -9.612410    2.342656   -1.660332
    116          1           0      -10.716295    0.928360   -2.095981
    117          1           0       -8.933319    0.962946   -2.128057
    118          1           0       -9.325897    2.602921    0.813906
    119          1           0       -9.591251    1.372770    2.061098
    120          1           0      -12.079537    1.587016    0.711609
    121          1           0      -11.521509    3.244847    0.759541
    122          1           0      -11.440375    3.290373    3.161018
    123          1           0      -11.387037    1.642841    3.288180
    124          1           0      -13.817657    3.056054    2.287692
    125          1           0      -13.581638    1.875392    4.978354
    126          1           0      -14.993573    2.588299    4.417445
    127          1           0      -13.624293    3.651749    4.598915
    128          1           0      -14.547580    0.525810    3.325091
    129          1           0      -13.209159    0.057028    2.302262
    130          1           0      -15.366180    1.734841    1.038621
    131          1           0      -15.909733    0.165234    1.563238
    132          1           0      -15.024069   -0.961037   -0.065375
    133          1           0      -13.476160   -0.089626   -0.104465
    134          1           0      -16.075349    0.779779   -1.220035
    135          1           0      -15.687070   -0.275662   -3.218892
    136          1           0      -14.484362   -0.991383   -2.262171
    137          1           0      -14.023341    0.495992   -3.228316
    138          1           0      -13.711897    2.453981   -0.775842
    139          1           0      -15.284183    2.825076   -1.187734
    140          1           0      -13.994055    2.499475   -2.486071
 ---------------------------------------------------------------------

 SCF Done:  E(RwB97XD) =  -3007.85102170     A.U. after   19 cycles

 Excitation energies and oscillator strengths:

 Excited State   1:      Singlet-A      1.6232 eV  763.84 nm  f=0.3791  <S**2>=0.000
     245 -> 248        0.18257
     246 -> 247        0.68320
     245 <- 248        0.11485
 This state for optimization and/or second-order correction.
 Total Energy, E(TD-HF/TD-DFT) =  -3007.79137094
 Copying the excited state density for this state as the 1-particle RhoCI density.

 Excited State   2:      Singlet-A      2.1377 eV  579.98 nm  f=0.1012  <S**2>=0.000
     245 -> 247        0.63828
     246 -> 248       -0.28260

 Excited State   3:      Singlet-A      3.3009 eV  375.60 nm  f=0.0082  <S**2>=0.000
     243 -> 247       -0.45251
     244 -> 247        0.47984
     246 -> 248       -0.16560

 Excited State   4:      Singlet-A      3.3513 eV  369.96 nm  f=0.0339  <S**2>=0.000
     241 -> 247        0.12955
     241 -> 250       -0.11882
     243 -> 247        0.37658
     244 -> 247        0.44386
     244 -> 249        0.10037
     246 -> 248        0.29866

 Excited State   5:      Singlet-A      3.4548 eV  358.88 nm  f=0.0280  <S**2>=0.000
     241 -> 247        0.55810
     241 -> 249        0.20177
     241 -> 250       -0.27218
     244 -> 247       -0.13206
     246 -> 248       -0.16970

 The electronic state is 1-A.
 Alpha  occ. eigenvalues --  -46.94079 -19.31370 -19.30808 -19.24733 -19.23834
 Alpha  occ. eigenvalues --  -19.23757 -19.23152 -14.47035 -14.46009 -14.43975
 Alpha  occ. eigenvalues --  -14.43109 -10.43258 -10.42739 -10.39380 -10.38339
 Alpha  occ. eigenvalues --  -10.35726 -10.35449 -10.35317 -10.34914 -10.34570
 Alpha  occ. eigenvalues --  -10.34499 -10.34154 -10.33851 -10.33786 -10.33200
 Alpha  occ. eigenvalues --  -10.32989 -10.32282 -10.32255 -10.31814 -10.31777
 Alpha  occ. eigenvalues --  -10.31663 -10.31499 -10.31485 -10.31425 -10.31396
 Alpha  occ. eigenvalues --  -10.31387 -10.31348 -10.31112 -10.30874 -10.30427
 Alpha  occ. eigenvalues --  -10.30221 -10.30207 -10.30142 -10.30021 -10.29947
 Alpha  occ. eigenvalues --  -10.29941 -10.29927 -10.29684 -10.29670 -10.29619
 Alpha  occ. eigenvalues --  -10.29439 -10.29380 -10.29231 -10.29116 -10.29097
 Alpha  occ. eigenvalues --  -10.28928 -10.28874 -10.28812 -10.28761 -10.28682
 Alpha  occ. eigenvalues --  -10.28594 -10.28516 -10.28402 -10.28357 -10.28116
 Alpha  occ. eigenvalues --  -10.27947  -3.20238  -1.93814  -1.93381  -1.93218
 Alpha  occ. eigenvalues --   -1.19409  -1.18677  -1.10773  -1.10084  -1.09380
 Alpha  occ. eigenvalues --   -1.08622  -1.06556  -1.05737  -1.05210  -1.04393
 Alpha  occ. eigenvalues --   -0.93878  -0.92797  -0.91775  -0.91354  -0.90989
 Alpha  occ. eigenvalues --   -0.90252  -0.90013  -0.89849  -0.89701  -0.89185
 Alpha  occ. eigenvalues --   -0.88767  -0.88303  -0.86459  -0.85755  -0.85452
 Alpha  occ. eigenvalues --   -0.84843  -0.84640  -0.83631  -0.83186  -0.82656
 Alpha  occ. eigenvalues --   -0.81496  -0.80851  -0.80694  -0.78979  -0.78067
 Alpha  occ. eigenvalues --   -0.77576  -0.77205  -0.76784  -0.76621  -0.76385
 Alpha  occ. eigenvalues --   -0.75577  -0.74671  -0.73643  -0.72369  -0.71724
 Alpha  occ. eigenvalues --   -0.70442  -0.69990  -0.69544  -0.68624  -0.67617
 Alpha  occ. eigenvalues --   -0.66889  -0.66793  -0.66626  -0.66182  -0.65317
 Alpha  occ. eigenvalues --   -0.65117  -0.64543  -0.64181  -0.64043  -0.62863
 Alpha  occ. eigenvalues --   -0.62389  -0.62352  -0.61009  -0.60489  -0.60083
 Alpha  occ. eigenvalues --   -0.59468  -0.59197  -0.58618  -0.58250  -0.57688
 Alpha  occ. eigenvalues --   -0.57414  -0.57179  -0.56788  -0.56533  -0.56315
 Alpha  occ. eigenvalues --   -0.55906  -0.55535  -0.55199  -0.55160  -0.54947
 Alpha  occ. eigenvalues --   -0.54709  -0.54420  -0.54246  -0.54172  -0.53919
 Alpha  occ. eigenvalues --   -0.53740  -0.53613  -0.53441  -0.53186  -0.52960
 Alpha  occ. eigenvalues --   -0.52513  -0.52348  -0.51997  -0.51838  -0.51702
 Alpha  occ. eigenvalues --   -0.51327  -0.51117  -0.50983  -0.50684  -0.50405
 Alpha  occ. eigenvalues --   -0.50367  -0.50210  -0.50149  -0.49833  -0.49499
 Alpha  occ. eigenvalues --   -0.49297  -0.49215  -0.48833  -0.48596  -0.48289
 Alpha  occ. eigenvalues --   -0.48251  -0.48059  -0.47948  -0.47646  -0.47458
 Alpha  occ. eigenvalues --   -0.47264  -0.47057  -0.46941  -0.46784  -0.46439
 Alpha  occ. eigenvalues --   -0.46192  -0.46073  -0.45972  -0.45903  -0.45757
 Alpha  occ. eigenvalues --   -0.45675  -0.45387  -0.45277  -0.45012  -0.44832
 Alpha  occ. eigenvalues --   -0.44589  -0.44476  -0.44397  -0.44203  -0.43810
 Alpha  occ. eigenvalues --   -0.43671  -0.43667  -0.43240  -0.43096  -0.43016
 Alpha  occ. eigenvalues --   -0.42831  -0.42709  -0.42455  -0.42279  -0.41906
 Alpha  occ. eigenvalues --   -0.41481  -0.41447  -0.41411  -0.41221  -0.40348
 Alpha  occ. eigenvalues --   -0.40284  -0.40241  -0.39495  -0.39350  -0.39301
 Alpha  occ. eigenvalues --   -0.39274  -0.38994  -0.38653  -0.38571  -0.38120
 Alpha  occ. eigenvalues --   -0.37810  -0.37446  -0.36595  -0.36520  -0.36391
 Alpha  occ. eigenvalues --   -0.36237  -0.35626  -0.35222  -0.33308  -0.33141
 Alpha  occ. eigenvalues --   -0.31930  -0.31739  -0.31568  -0.31424  -0.25962
 Alpha  occ. eigenvalues --   -0.22893
 Alpha virt. eigenvalues --   -0.07060   0.00213   0.02020   0.04373   0.06380
 Alpha virt. eigenvalues --    0.06672   0.07239   0.07365   0.07797   0.09658
 Alpha virt. eigenvalues --    0.10374   0.11499   0.11528   0.12023   0.12634

 Mulliken charges:
               1
     1  Mg   0.980165
     2  C   -0.018422
     3  C   -0.101322
     4  C   -0.061169
     5  C   -0.070968
     6  N   -0.323416
     7  C   -0.003454
     8  C   -0.062883
     9  C   -0.141667
    10  C    0.062342
    11  C    0.059497
    12  C    0.039009
    13  C   -0.004833
    14  C    0.191287
    15  O   -0.255471
    16  O   -0.372264
    17  N   -0.518281
    18  C    0.183850
    19  C   -0.196001
    20  C   -0.036885
    21  C    0.166735
    22  C    0.061094
    23  C    0.056889
    24  O   -0.280013
    25  C    0.001582
    26  N   -0.410228
    27  C    0.066186
    28  C   -0.084920
    29  C   -0.063889
    30  C    0.089958
    31  C    0.031907
    32  C   -0.016787
    33  C   -0.058156
    34  N   -0.398653
    35  C    0.097569
    36  C   -0.187798
    37  C   -0.039933
    38  C    0.126426
    39  C    0.081381
    40  C    0.129582
    41  O   -0.224446
    42  C   -0.076707
    43  C    0.272714
    44  O   -0.277895
    45  O   -0.339852
    46  C    0.121190
    47  C    0.248267
    48  C   -0.124885
    49  C   -0.193424
    50  C    0.044582
    51  C    0.008277
    52  C   -0.033794
    53  C   -0.012803
    54  C   -0.206699
    55  C   -0.004002
    56  C    0.032626
    57  C   -0.008714
    58  C   -0.020736
    59  C   -0.167037
    60  C   -0.023102
    61  C    0.023264
    62  C   -0.010251
    63  C   -0.003939
    64  C   -0.257736
    65  C    0.011192
    66  C    0.005079
    67  H    0.007436
    68  H    0.010716
    69  H   -0.017244
    70  H    0.024895
    71  H    0.022041
    72  H    0.047373
    73  H    0.038500
    74  H    0.039887
    75  H    0.034237
    76  H    0.078103
    77  H    0.050966
    78  H    0.060273
    79  H    0.029190
    80  H    0.048788
    81  H    0.062506
    82  H    0.057615
    83  H    0.061869
    84  H    0.053396
    85  H    0.043097
    86  H    0.035590
    87  H    0.045332
    88  H    0.034215
    89  H    0.025653
    90  H    0.032564
    91  H    0.029427
    92  H    0.029220
    93  H    0.042383
    94  H    0.049981
    95  H    0.071237
    96  H    0.031431
    97  H    0.069227
    98  H    0.064977
    99  H    0.058464
   100  H    0.061919
   101  H    0.077525
   102  H    0.076566
   103  H    0.045200
   104  H    0.030523
   105  H    0.014250
   106  H    0.043329
   107  H    0.052145
   108  H    0.017509
   109  H    0.010883
   110  H    0.028623
   111  H    0.034309
   112  H    0.016124
   113  H    0.017607
   114  H    0.019793
   115  H    0.024214
   116  H    0.051223
   117  H    0.016159
   118  H    0.011517
   119  H    0.020184
   120  H    0.012833
   121  H    0.029324
   122  H    0.016267
   123  H   -0.000078
   124  H    0.020215
   125  H    0.020346
   126  H    0.023444
   127  H    0.037589
   128  H    0.009386
   129  H    0.025658
   130  H    0.017172
   131  H    0.024056
   132  H    0.020337
   133  H    0.025863
   134  H    0.019753
   135  H    0.035584
   136  H    0.005820
   137  H    0.030980
   138  H    0.007031
   139  H    0.031053
   140  H    0.045205
 Sum of Mulliken charges =  -0.00000

 Dipole moment (field-independent basis, Debye):
    X=             -2.7234    Y=              2.5388    Z=             -4.5430  Tot=              5.8738
 Quadrupole moment (field-independent basis, Debye-Ang):
   XX=           -364.1531   YY=           -415.0596   ZZ=           -401.0520
   XY=              5.3530   XZ=             -0.9112   YZ=             -0.4997

 Normal termination of Gaussian 16 at Wed May  4 16:22:10 2022.
