 Gaussian 16, Revision A.03,
 Gaussian 16:  ES64L-G16RevA.03 25-Dec-2016

 --------------------
 #p ZINDO=(nstates=5)
 --------------------

 --------------------------
 step_1_chromophore_1 ZINDO
 --------------------------
 Symbolic Z-matrix:
 Charge =  0 Multiplicity = 1

                         Standard orientation:
 ---------------------------------------------------------------------
 Center     Atomic      Atomic             Coordinates (Angstroms)
 Number     Number       Type             X           Y           Z
 ---------------------------------------------------------------------
      1         12           0        6.110173    0.584427    0.086308
      2          6           0        4.084321   -2.334675   -0.346106
      3          6           0        3.869472    2.248419   -1.876713
      4          6           0        8.110195    3.045414    0.077699
      5          6           0        8.707761   -1.538463    1.030520
      6          7           0        4.251170   -0.068640   -0.922779
      7          6           0        3.552106   -1.198723   -0.960113
      8          6           0        2.163335   -1.043633   -1.649051
      9          6           0        2.472414    0.231968   -2.554209
     10          6           0        3.572459    0.862154   -1.718332
     11          6           0        3.037802   -0.117644   -3.927019
     12          6           0        1.018780   -0.752781   -0.620883
     13          6           0       -0.404015   -0.910929   -1.164939
     14          6           0       -1.437407   -1.431175   -0.282447
     15          8           0       -1.465245   -1.429690    0.945531
     16          8           0       -2.412060   -1.970020   -1.058229
     17          7           0        5.799163    2.486589   -0.347168
     18          6           0        4.829733    2.986009   -1.150953
     19          6           0        5.017723    4.452752   -1.153289
     20          6           0        6.289963    4.749570   -0.438167
     21          6           0        6.803887    3.420344   -0.227411
     22          6           0        4.027073    5.408330   -1.744248
     23          6           0        6.944554    6.028674   -0.021589
     24          8           0        8.156954    6.072352    0.381839
     25          6           0        6.147320    7.257925   -0.184073
     26          7           0        8.183391    0.730072    0.281729
     27          6           0        8.792641    1.920612    0.302053
     28          6           0       10.224258    1.794088    0.731474
     29          6           0       10.402711    0.290168    1.237567
     30          6           0        8.982614   -0.237167    0.915833
     31          6           0       11.275258    2.098395   -0.345005
     32          6           0       10.956022    0.091590    2.671035
     33          6           0        9.946441    0.584046    3.683621
     34          7           0        6.333258   -1.537811    0.483027
     35          6           0        7.511274   -2.209448    0.840595
     36          6           0        7.189308   -3.647319    0.894754
     37          6           0        5.841684   -3.714214    0.546502
     38          6           0        5.359510   -2.403938    0.265470
     39          6           0        8.107477   -4.696843    1.177417
     40          6           0        4.703229   -4.590342    0.322499
     41          8           0        4.485452   -5.790477    0.494960
     42          6           0        3.551956   -3.745638   -0.382392
     43          6           0        2.267307   -4.031436    0.346514
     44          8           0        2.104707   -3.658887    1.526402
     45          8           0        1.352322   -4.482264   -0.525323
     46          6           0        0.044899   -4.757232    0.128276
     47          6           0       -3.550340   -2.584985   -0.377102
     48          6           0       -4.836845   -2.019445   -0.742110
     49          6           0       -6.037989   -2.630497   -0.886966
     50          6           0       -6.417067   -4.060155   -0.768488
     51          6           0       -7.190232   -1.848771   -1.501930
     52          6           0       -8.461116   -1.493060   -0.619190
     53          6           0       -8.351515   -0.063212    0.060215
     54          6           0       -9.705962    0.749175   -0.060346
     55          6           0       -9.821888    1.276039   -1.580360
     56          6           0       -9.960311    1.770012    1.115321
     57          6           0      -11.410354    2.270505    1.235486
     58          6           0      -11.873148    2.410030    2.684976
     59          6           0      -13.432757    2.208923    2.857037
     60          6           0      -13.913103    2.649041    4.285798
     61          6           0      -14.000819    0.797275    2.421949
     62          6           0      -15.023617    0.724132    1.263450
     63          6           0      -14.557530    0.023398   -0.031892
     64          6           0      -14.992245    0.776830   -1.335053
     65          6           0      -14.791498   -0.021380   -2.652372
     66          6           0      -14.453046    2.212964   -1.538521
     67          1           0        3.365778    2.809265   -2.666451
     68          1           0        8.807893    3.877501    0.192966
     69          1           0        9.446217   -2.252321    1.400039
     70          1           0        1.871654   -1.884742   -2.278243
     71          1           0        1.615278    0.901863   -2.619642
     72          1           0        3.256346   -1.182311   -4.008524
     73          1           0        3.952850    0.467220   -4.022491
     74          1           0        2.375032    0.231451   -4.719260
     75          1           0        1.009816    0.311220   -0.384491
     76          1           0        1.134681   -1.370446    0.270399
     77          1           0       -0.410065   -1.444012   -2.116094
     78          1           0       -0.789136    0.079641   -1.407123
     79          1           0        3.278669    4.890222   -2.342579
     80          1           0        4.568441    6.025317   -2.461155
     81          1           0        3.566851    6.042955   -0.986766
     82          1           0        5.870434    7.371347   -1.232414
     83          1           0        6.742509    8.061643    0.247942
     84          1           0        5.214169    7.149316    0.369445
     85          1           0       10.448416    2.475717    1.550963
     86          1           0       11.089438   -0.274866    0.606839
     87          1           0       11.975458    2.885204   -0.063303
     88          1           0       10.750834    2.352807   -1.265627
     89          1           0       11.866268    1.239710   -0.662472
     90          1           0       11.863534    0.677736    2.811751
     91          1           0       11.193242   -0.947268    2.900714
     92          1           0       10.144825    1.654473    3.724394
     93          1           0       10.121703    0.117282    4.653479
     94          1           0        8.925698    0.455327    3.323063
     95          1           0        7.594720   -5.375357    1.859084
     96          1           0        9.026075   -4.311101    1.618985
     97          1           0        8.263143   -5.103500    0.178291
     98          1           0        3.514672   -4.072332   -1.421142
     99          1           0       -0.211822   -5.793715   -0.090886
    100          1           0       -0.641625   -3.982682   -0.214012
    101          1           0        0.044644   -4.771319    1.218753
    102          1           0       -3.577722   -2.470291    0.706861
    103          1           0       -3.421259   -3.629991   -0.656341
    104          1           0       -4.731942   -1.106062   -1.328318
    105          1           0       -5.541439   -4.702492   -0.677528
    106          1           0       -6.894711   -4.435056   -1.674364
    107          1           0       -7.052233   -4.275771    0.091591
    108          1           0       -7.566149   -2.442003   -2.335742
    109          1           0       -6.838285   -0.955927   -2.019637
    110          1           0       -8.481138   -2.084512    0.295878
    111          1           0       -9.381344   -1.542697   -1.199484
    112          1           0       -7.554723    0.509487   -0.414077
    113          1           0       -8.062241   -0.308034    1.081996
    114          1           0      -10.489634    0.019621    0.141481
    115          1           0       -9.612410    2.342656   -1.660332
    116          1           0      -10.716295    0.928360   -2.095981
    117          1           0       -8.933319    0.962946   -2.128057
    118          1           0       -9.325897    2.602921    0.813906
    119          1           0       -9.591251    1.372770    2.061098
    120          1           0      -12.079537    1.587016    0.711609
    121          1           0      -11.521509    3.244847    0.759541
    122          1           0      -11.440375    3.290373    3.161018
    123          1           0      -11.387037    1.642841    3.288180
    124          1           0      -13.817657    3.056054    2.287692
    125          1           0      -13.581638    1.875392    4.978354
    126          1           0      -14.993573    2.588299    4.417445
    127          1           0      -13.624293    3.651749    4.598915
    128          1           0      -14.547580    0.525810    3.325091
    129          1           0      -13.209159    0.057028    2.302262
    130          1           0      -15.366180    1.734841    1.038621
    131          1           0      -15.909733    0.165234    1.563238
    132          1           0      -15.024069   -0.961037   -0.065375
    133          1           0      -13.476160   -0.089626   -0.104465
    134          1           0      -16.075349    0.779779   -1.220035
    135          1           0      -15.687070   -0.275662   -3.218892
    136          1           0      -14.484362   -0.991383   -2.262171
    137          1           0      -14.023341    0.495992   -3.228316
    138          1           0      -13.711897    2.453981   -0.775842
    139          1           0      -15.284183    2.825076   -1.187734
    140          1           0      -13.994055    2.499475   -2.486071
 ---------------------------------------------------------------------

 SCF Done:  E(RZINDO/S) =  -474.420858810     A.U. after   20 cycles

 Excitation energies and oscillator strengths:

 Excited State   1:      Singlet-A      1.1945 eV 1037.96 nm  f=0.6238  <S**2>=0.000
     175 ->178         0.19176
     176 ->177         0.66246
 This state for optimization and/or second-order correction.
 Total Energy, E(CIS/TDA) =  -474.376961630
 Copying the excited state density for this state as the 1-particle RhoCI density.

 Excited State   2:      Singlet-A      1.8721 eV  662.27 nm  f=0.0399  <S**2>=0.000
     175 ->177         0.54853
     176 ->178        -0.41949

 Excited State   3:      Singlet-A      2.8355 eV  437.25 nm  f=0.2565  <S**2>=0.000
     168 ->179         0.11577
     171 ->177         0.10081
     172 ->177         0.16847
     174 ->177         0.25077
     175 ->177         0.22740
     176 ->178         0.35914
     176 ->179         0.38380

 Excited State   4:      Singlet-A      2.9247 eV  423.92 nm  f=0.0108  <S**2>=0.000
     168 ->177         0.17575
     168 ->179        -0.26618
     168 ->180         0.12292
     168 ->186        -0.13598
     172 ->177        -0.14338
     174 ->177        -0.21401
     176 ->179         0.47848

 Excited State   5:      Singlet-A      2.9531 eV  419.84 nm  f=0.3106  <S**2>=0.000
     168 ->177         0.22512
     168 ->179        -0.31898
     168 ->180         0.13987
     168 ->186        -0.16287
     170 ->177         0.10989
     170 ->180         0.13802
     172 ->177         0.11072
     175 ->177         0.19983
     176 ->178         0.28010
     176 ->179        -0.23206

 The electronic state is 1-A.
 Alpha  occ. eigenvalues --   -1.84377  -1.82680  -1.81159  -1.75121  -1.72605
 Alpha  occ. eigenvalues --   -1.71424  -1.63008  -1.58690  -1.58332  -1.56106
 Alpha  occ. eigenvalues --   -1.54465  -1.51219  -1.48972  -1.48066  -1.47224
 Alpha  occ. eigenvalues --   -1.43940  -1.42476  -1.40646  -1.39253  -1.38808
 Alpha  occ. eigenvalues --   -1.36802  -1.36352  -1.33000  -1.32060  -1.30530
 Alpha  occ. eigenvalues --   -1.27507  -1.25413  -1.23121  -1.22194  -1.18697
 Alpha  occ. eigenvalues --   -1.17635  -1.16335  -1.15354  -1.13767  -1.12531
 Alpha  occ. eigenvalues --   -1.11751  -1.11584  -1.11142  -1.05524  -1.04095
 Alpha  occ. eigenvalues --   -1.03013  -1.01271  -0.98767  -0.97881  -0.97521
 Alpha  occ. eigenvalues --   -0.95052  -0.94373  -0.93215  -0.92767  -0.90983
 Alpha  occ. eigenvalues --   -0.90464  -0.89249  -0.88697  -0.87341  -0.85768
 Alpha  occ. eigenvalues --   -0.84725  -0.83592  -0.83196  -0.81950  -0.81135
 Alpha  occ. eigenvalues --   -0.80364  -0.79388  -0.76486  -0.76220  -0.75493
 Alpha  occ. eigenvalues --   -0.75199  -0.75000  -0.74716  -0.74244  -0.73934
 Alpha  occ. eigenvalues --   -0.73236  -0.72857  -0.72291  -0.72081  -0.71048
 Alpha  occ. eigenvalues --   -0.70997  -0.70221  -0.69474  -0.69016  -0.68435
 Alpha  occ. eigenvalues --   -0.67348  -0.67208  -0.66842  -0.66681  -0.66347
 Alpha  occ. eigenvalues --   -0.65695  -0.65373  -0.64968  -0.64039  -0.63919
 Alpha  occ. eigenvalues --   -0.63102  -0.62899  -0.62654  -0.62299  -0.62152
 Alpha  occ. eigenvalues --   -0.61772  -0.61576  -0.61110  -0.60676  -0.60055
 Alpha  occ. eigenvalues --   -0.59816  -0.59173  -0.58814  -0.58215  -0.57665
 Alpha  occ. eigenvalues --   -0.57547  -0.57186  -0.56556  -0.56068  -0.55999
 Alpha  occ. eigenvalues --   -0.55658  -0.55178  -0.54462  -0.54170  -0.54047
 Alpha  occ. eigenvalues --   -0.53921  -0.53572  -0.52946  -0.52833  -0.52310
 Alpha  occ. eigenvalues --   -0.52247  -0.51997  -0.51668  -0.51622  -0.51512
 Alpha  occ. eigenvalues --   -0.51158  -0.50852  -0.50500  -0.50476  -0.50382
 Alpha  occ. eigenvalues --   -0.50300  -0.49639  -0.49401  -0.49064  -0.48736
 Alpha  occ. eigenvalues --   -0.48659  -0.48293  -0.48004  -0.47811  -0.47333
 Alpha  occ. eigenvalues --   -0.47068  -0.46892  -0.46785  -0.46465  -0.46372
 Alpha  occ. eigenvalues --   -0.46026  -0.45691  -0.45642  -0.45564  -0.44945
 Alpha  occ. eigenvalues --   -0.44813  -0.44690  -0.44494  -0.43973  -0.43939
 Alpha  occ. eigenvalues --   -0.43624  -0.43313  -0.42721  -0.42378  -0.42102
 Alpha  occ. eigenvalues --   -0.41783  -0.41613  -0.40676  -0.38970  -0.38625
 Alpha  occ. eigenvalues --   -0.37614  -0.37222  -0.35654  -0.34625  -0.34357
 Alpha  occ. eigenvalues --   -0.32512  -0.32053  -0.31812  -0.31547  -0.26559
 Alpha  occ. eigenvalues --   -0.21383
 Alpha virt. eigenvalues --   -0.08541  -0.01798  -0.00707   0.01369   0.02240
 Alpha virt. eigenvalues --    0.02423   0.02678   0.02870   0.03705   0.05055
 Alpha virt. eigenvalues --    0.06544   0.07098   0.07494   0.07872   0.08437

 Mulliken charges:
               1
     1  Mg   0.419503
     2  C   -0.040907
     3  C   -0.092040
     4  C   -0.066260
     5  C   -0.045047
     6  N   -0.281809
     7  C    0.129950
     8  C    0.000830
     9  C   -0.000356
    10  C    0.131788
    11  C   -0.046716
    12  C   -0.023174
    13  C    0.008114
    14  C    0.480665
    15  O   -0.528527
    16  O   -0.277415
    17  N   -0.326789
    18  C    0.122437
    19  C    0.000932
    20  C   -0.058504
    21  C    0.166711
    22  C   -0.039575
    23  C    0.334315
    24  O   -0.550495
    25  C   -0.027149
    26  N   -0.288102
    27  C    0.170820
    28  C    0.013709
    29  C   -0.007528
    30  C    0.112194
    31  C   -0.050847
    32  C   -0.025273
    33  C   -0.058182
    34  N   -0.324094
    35  C    0.070598
    36  C    0.052147
    37  C   -0.061570
    38  C    0.125646
    39  C   -0.033699
    40  C    0.327884
    41  O   -0.531239
    42  C    0.047849
    43  C    0.493999
    44  O   -0.528954
    45  O   -0.253788
    46  C    0.067487
    47  C    0.108457
    48  C   -0.081961
    49  C   -0.002071
    50  C   -0.035018
    51  C   -0.028438
    52  C   -0.042847
    53  C   -0.042937
    54  C   -0.022268
    55  C   -0.063463
    56  C   -0.034413
    57  C   -0.032180
    58  C   -0.035995
    59  C   -0.015023
    60  C   -0.062163
    61  C   -0.028524
    62  C   -0.031735
    63  C   -0.028980
    64  C   -0.017895
    65  C   -0.069260
    66  C   -0.061665
    67  H    0.030629
    68  H    0.025984
    69  H    0.020772
    70  H    0.028916
    71  H    0.027401
    72  H    0.028888
    73  H    0.024382
    74  H    0.019592
    75  H    0.026795
    76  H    0.049884
    77  H    0.033272
    78  H    0.042726
    79  H    0.023534
    80  H    0.026096
    81  H    0.037604
    82  H    0.045265
    83  H    0.041806
    84  H    0.034977
    85  H    0.033697
    86  H    0.023135
    87  H    0.025389
    88  H    0.018064
    89  H    0.017998
    90  H    0.017996
    91  H    0.018778
    92  H    0.016957
    93  H    0.019666
    94  H    0.029004
    95  H    0.042477
    96  H    0.025124
    97  H    0.044458
    98  H    0.046445
    99  H    0.036093
   100  H    0.044548
   101  H    0.057077
   102  H    0.064701
   103  H    0.036926
   104  H    0.032145
   105  H    0.009683
   106  H    0.028409
   107  H    0.031935
   108  H    0.012060
   109  H    0.015991
   110  H    0.024513
   111  H    0.029183
   112  H    0.020806
   113  H    0.017552
   114  H    0.012251
   115  H    0.022367
   116  H    0.030460
   117  H    0.015333
   118  H    0.012689
   119  H    0.027479
   120  H    0.023375
   121  H    0.017629
   122  H    0.022207
   123  H    0.007896
   124  H    0.014342
   125  H    0.013295
   126  H    0.011910
   127  H    0.023601
   128  H    0.013429
   129  H    0.026513
   130  H    0.022101
   131  H    0.017352
   132  H    0.017835
   133  H    0.020776
   134  H    0.011125
   135  H    0.024534
   136  H    0.011912
   137  H    0.026821
   138  H    0.011298
   139  H    0.017086
   140  H    0.033897
 Sum of Mulliken charges =  -0.00000

 Dipole moment (field-independent basis, Debye):
    X=             -3.1253    Y=              3.6856    Z=             -8.5844  Tot=              9.8511
 N-N= 4.244215580003D+03 E-N= 0.000000000000D+00  KE=-9.163220295630D+03
 Leave Link  601 at Wed May  4 16:42:55 2022, MaxMem=  6710886400 cpu:               0.7 elap:               0.0
 (Enter /sw/apps/gaussian-16.0/g16/l9999.exe)
 1\1\GINC-BP1-COMPUTE164\SP\RZINDO CIS\STO-3G\C55H74Mg1N4O6\OF15641\04-
 May-2022\0\\#p ZINDO=(nstates=5)\\step_1_chromophore_1 ZINDO\\0,1\Mg,0
 ,-1.968,16.991,27.078\C,0,-2.185,14.773,29.879\C,0,-3.223,19.433,29.10
 4\C,0,-2.213,18.841,24.514\C,0,-1.822,14.167,25.041\N,0,-2.585,16.982,
 29.204\C,0,-2.562,16.083,30.183\C,0,-2.904,16.682,31.58\C,0,-3.741,17.
 955,31.11\C,0,-3.123,18.159,29.738\C,0,-5.231,17.676,30.941\C,0,-1.623
 ,17.101,32.377\C,0,-1.844,17.388,33.865\C,0,-0.8,17.024,34.811\O,0,0.3

 Normal termination of Gaussian 16 at Wed May  4 16:42:55 2022.
