 Gaussian 16, Revision A.03,
 Gaussian 16:  ES64L-G16RevA.03 25-Dec-2016

 ------------------------------
 #p blyp/Def2SVP td=(nstates=5)
 ------------------------------

 ---------------------------------------------------
 step_1401_chromophore_21 TDDFT with blyp functional
 ---------------------------------------------------
 Symbolic Z-matrix:
 Charge =  0 Multiplicity = 1

                         Standard orientation:
 ---------------------------------------------------------------------
 Center     Atomic      Atomic             Coordinates (Angstroms)
 Number     Number       Type             X           Y           Z
 ---------------------------------------------------------------------
      1         12           0        5.379436    1.235507   -0.259126
      2          6           0        4.851697   -2.285200   -0.027727
      3          6           0        1.906248    1.469217   -0.316025
      4          6           0        5.588469    4.504959   -0.125716
      5          6           0        8.725532    0.759067   -0.118683
      6          7           0        3.571895   -0.277656   -0.113997
      7          6           0        3.642794   -1.609159    0.110913
      8          6           0        2.197421   -2.235994    0.305506
      9          6           0        1.314338   -1.036665    0.006974
     10          6           0        2.348969    0.127313   -0.124194
     11          6           0        0.272130   -1.188044   -1.210785
     12          6           0        2.152886   -2.781173    1.757721
     13          6           0        1.078078   -3.898811    2.026146
     14          6           0        0.128980   -4.398916    0.932001
     15          8           0        0.191297   -5.514658    0.432276
     16          8           0       -0.773325   -3.444579    0.573805
     17          7           0        3.966552    2.776016   -0.467455
     18          6           0        2.609072    2.666688   -0.459892
     19          6           0        1.980533    4.030940   -0.616251
     20          6           0        3.028104    4.940091   -0.404721
     21          6           0        4.281485    4.091957   -0.423835
     22          6           0        0.522451    4.216296   -0.724278
     23          6           0        2.947915    6.456719   -0.187831
     24          8           0        3.921794    7.199610   -0.034144
     25          6           0        1.674988    7.154371   -0.106243
     26          7           0        6.866807    2.469496   -0.036546
     27          6           0        6.799314    3.799067    0.022095
     28          6           0        8.214058    4.467960    0.257408
     29          6           0        9.064051    3.156093    0.445436
     30          6           0        8.214942    2.091750    0.061042
     31          6           0        8.694296    5.457125   -0.806587
     32          6           0        9.627854    2.918391    1.868375
     33          6           0       11.139025    3.186112    2.008155
     34          7           0        6.582985   -0.397460   -0.121445
     35          6           0        7.958595   -0.433749   -0.126215
     36          6           0        8.362501   -1.807737   -0.200183
     37          6           0        7.211521   -2.586901   -0.162452
     38          6           0        6.156848   -1.695475   -0.172092
     39          6           0        9.745583   -2.269070   -0.114475
     40          6           0        6.682875   -3.900736   -0.096430
     41          8           0        7.194488   -5.026342   -0.188610
     42          6           0        5.141786   -3.767870    0.084246
     43          6           0        4.456111   -4.601371   -1.021702
     44          8           0        3.965659   -4.199898   -2.026003
     45          8           0        4.329675   -5.860082   -0.506594
     46          6           0        3.510011   -6.843509   -1.181696
     47          6           0       -1.811624   -3.939339   -0.331449
     48          6           0       -3.013627   -3.014322   -0.099614
     49          6           0       -4.125814   -2.924890   -0.832856
     50          6           0       -4.489106   -3.865680   -1.924078
     51          6           0       -5.155484   -1.845163   -0.540095
     52          6           0       -6.344529   -2.324942    0.303645
     53          6           0       -6.968996   -1.330032    1.341595
     54          6           0       -8.127712   -0.513699    0.831854
     55          6           0       -8.255170    0.921909    1.507441
     56          6           0       -9.411329   -1.378305    1.053900
     57          6           0      -10.495058   -1.017384    0.044456
     58          6           0      -11.943821   -1.375668    0.524522
     59          6           0      -12.765035   -0.073030    0.816813
     60          6           0      -12.816417    0.153000    2.290098
     61          6           0      -14.235087   -0.140731    0.154632
     62          6           0      -14.436727    1.032976   -0.908441
     63          6           0      -15.447186    2.060908   -0.515619
     64          6           0      -14.841027    3.494845   -0.555561
     65          6           0      -15.994602    4.469194   -0.196375
     66          6           0      -14.283244    3.852478   -2.003801
     67          1           0        0.815167    1.477497   -0.361734
     68          1           0        5.670827    5.576660    0.066771
     69          1           0        9.809230    0.674707   -0.017735
     70          1           0        1.941544   -3.058647   -0.361962
     71          1           0        0.735233   -0.859452    0.912965
     72          1           0        0.305469   -2.178328   -1.664910
     73          1           0        0.478924   -0.464414   -1.998409
     74          1           0       -0.734104   -1.062906   -0.810580
     75          1           0        1.896314   -1.936096    2.397470
     76          1           0        3.087837   -3.174373    2.156961
     77          1           0        0.526363   -3.377433    2.808550
     78          1           0        1.634017   -4.750564    2.416358
     79          1           0        0.125351    3.434236   -1.371222
     80          1           0        0.255965    5.141213   -1.234711
     81          1           0        0.032263    4.152227    0.246878
     82          1           0        1.153167    6.453663    0.545359
     83          1           0        1.247671    7.106009   -1.107907
     84          1           0        1.809679    8.119350    0.382573
     85          1           0        8.096596    5.036931    1.180070
     86          1           0        9.949478    3.254238   -0.181793
     87          1           0        8.809553    6.449434   -0.370690
     88          1           0        7.991594    5.626890   -1.622819
     89          1           0        9.667243    5.221985   -1.235715
     90          1           0        9.480034    1.870158    2.128903
     91          1           0        9.111613    3.615828    2.528428
     92          1           0       11.651958    3.686988    1.186821
     93          1           0       11.596665    2.210270    2.173357
     94          1           0       11.379988    3.748210    2.910110
     95          1           0       10.040094   -2.401969    0.926495
     96          1           0       10.358923   -1.454124   -0.497594
     97          1           0        9.922979   -3.080717   -0.819978
     98          1           0        4.901536   -4.113313    1.089007
     99          1           0        3.837937   -6.840468   -2.221987
    100          1           0        2.433810   -6.673463   -1.190820
    101          1           0        3.676382   -7.852923   -0.805674
    102          1           0       -2.080632   -4.992652   -0.255557
    103          1           0       -1.351251   -3.707031   -1.291445
    104          1           0       -2.865912   -2.276097    0.688750
    105          1           0       -4.687853   -3.282673   -2.822720
    106          1           0       -5.320587   -4.486028   -1.589430
    107          1           0       -3.675401   -4.573897   -2.084107
    108          1           0       -5.393702   -1.449932   -1.526778
    109          1           0       -4.568826   -1.072183   -0.044898
    110          1           0       -5.998553   -3.257578    0.749187
    111          1           0       -7.067828   -2.587339   -0.468975
    112          1           0       -6.233577   -0.578286    1.630519
    113          1           0       -7.189151   -2.012043    2.163502
    114          1           0       -8.110977   -0.406907   -0.252628
    115          1           0       -7.672456    1.630549    0.918130
    116          1           0       -7.922456    0.805905    2.538967
    117          1           0       -9.280537    1.281006    1.422596
    118          1           0       -9.800729   -1.254977    2.065231
    119          1           0       -9.158839   -2.430739    0.929441
    120          1           0      -10.230197   -1.473309   -0.908933
    121          1           0      -10.343796    0.047729   -0.134560
    122          1           0      -11.935259   -2.039573    1.388301
    123          1           0      -12.409185   -2.016679   -0.225228
    124          1           0      -12.168437    0.746063    0.413091
    125          1           0      -11.891443    0.029218    2.851859
    126          1           0      -13.583397   -0.513401    2.683625
    127          1           0      -13.081570    1.177102    2.551651
    128          1           0      -14.873412   -0.067558    1.033928
    129          1           0      -14.623292   -1.036914   -0.328511
    130          1           0      -14.857777    0.640539   -1.833509
    131          1           0      -13.515941    1.604051   -1.024701
    132          1           0      -15.764068    1.805346    0.495395
    133          1           0      -16.276483    2.041131   -1.223249
    134          1           0      -14.114867    3.739033    0.220096
    135          1           0      -16.062526    5.261804   -0.942420
    136          1           0      -15.876095    5.037566    0.726223
    137          1           0      -16.974781    4.018080   -0.042115
    138          1           0      -13.339955    3.338268   -2.187225
    139          1           0      -14.159598    4.920910   -2.181014
    140          1           0      -14.962771    3.387755   -2.717980
 ---------------------------------------------------------------------

 SCF Done:  E(RB-LYP) =  -3007.37786728     A.U. after   21 cycles

 Excitation energies and oscillator strengths:

 Excited State   1:      Singlet-A      1.8132 eV  683.79 nm  f=0.2781  <S**2>=0.000
     244 -> 247       -0.11744
     245 -> 248       -0.18582
     246 -> 247        0.67497
     246 <- 247       -0.13440
 This state for optimization and/or second-order correction.
 Total Energy, E(TD-HF/TD-DFT) =  -3007.31123330
 Copying the excited state density for this state as the 1-particle RhoCI density.

 Excited State   2:      Singlet-A      1.8718 eV  662.38 nm  f=0.0131  <S**2>=0.000
     244 -> 247        0.69246
     246 -> 247        0.11463

 Excited State   3:      Singlet-A      2.0345 eV  609.40 nm  f=0.0530  <S**2>=0.000
     243 -> 247       -0.23176
     245 -> 247        0.60349
     246 -> 248        0.24281

 Excited State   4:      Singlet-A      2.0659 eV  600.14 nm  f=0.0090  <S**2>=0.000
     243 -> 247        0.66710
     245 -> 247        0.20618

 Excited State   5:      Singlet-A      2.6360 eV  470.34 nm  f=0.0006  <S**2>=0.000
     242 -> 247        0.68845

 The electronic state is 1-A.
 Alpha  occ. eigenvalues --  -46.26143 -18.83183 -18.80428 -18.77357 -18.76408
 Alpha  occ. eigenvalues --  -18.75466 -18.74490 -14.03023 -14.02789 -14.01409
 Alpha  occ. eigenvalues --  -14.00254 -10.04708 -10.03115  -9.99926  -9.98568
 Alpha  occ. eigenvalues --   -9.98558  -9.96554  -9.96241  -9.96213  -9.96132
 Alpha  occ. eigenvalues --   -9.96121  -9.96075  -9.95823  -9.94715  -9.94636
 Alpha  occ. eigenvalues --   -9.94273  -9.93887  -9.93740  -9.93738  -9.93731
 Alpha  occ. eigenvalues --   -9.93680  -9.93567  -9.93501  -9.93042  -9.92950
 Alpha  occ. eigenvalues --   -9.92895  -9.92798  -9.92698  -9.92662  -9.92563
 Alpha  occ. eigenvalues --   -9.92529  -9.92425  -9.92384  -9.92256  -9.92243
 Alpha  occ. eigenvalues --   -9.92215  -9.92166  -9.92127  -9.92084  -9.91974
 Alpha  occ. eigenvalues --   -9.91897  -9.91886  -9.91860  -9.91789  -9.91551
 Alpha  occ. eigenvalues --   -9.91538  -9.91350  -9.91301  -9.90997  -9.90986
 Alpha  occ. eigenvalues --   -9.90839  -9.90776  -9.90698  -9.90690  -9.90245
 Alpha  occ. eigenvalues --   -9.89953  -2.91090  -1.71508  -1.70983  -1.70805
 Alpha  occ. eigenvalues --   -0.99045  -0.97387  -0.91310  -0.90587  -0.90223
 Alpha  occ. eigenvalues --   -0.89474  -0.87433  -0.86631  -0.85691  -0.85206
 Alpha  occ. eigenvalues --   -0.75026  -0.74346  -0.73300  -0.73164  -0.72820
 Alpha  occ. eigenvalues --   -0.72352  -0.71828  -0.70937  -0.70782  -0.70268
 Alpha  occ. eigenvalues --   -0.69743  -0.69102  -0.67914  -0.67419  -0.66980
 Alpha  occ. eigenvalues --   -0.66615  -0.66256  -0.65576  -0.65220  -0.64443
 Alpha  occ. eigenvalues --   -0.64282  -0.62998  -0.62361  -0.62066  -0.61146
 Alpha  occ. eigenvalues --   -0.60223  -0.59993  -0.59635  -0.59487  -0.59019
 Alpha  occ. eigenvalues --   -0.58515  -0.57132  -0.56404  -0.55701  -0.54607
 Alpha  occ. eigenvalues --   -0.53871  -0.53654  -0.52715  -0.52300  -0.51594
 Alpha  occ. eigenvalues --   -0.51402  -0.51289  -0.50569  -0.50291  -0.50165
 Alpha  occ. eigenvalues --   -0.50058  -0.49265  -0.48642  -0.47912  -0.46786
 Alpha  occ. eigenvalues --   -0.46169  -0.46096  -0.45814  -0.45062  -0.44187
 Alpha  occ. eigenvalues --   -0.43957  -0.43416  -0.42983  -0.42676  -0.42294
 Alpha  occ. eigenvalues --   -0.41914  -0.41769  -0.41631  -0.41417  -0.41180
 Alpha  occ. eigenvalues --   -0.41062  -0.40851  -0.40708  -0.40631  -0.40308
 Alpha  occ. eigenvalues --   -0.40117  -0.39934  -0.39692  -0.39596  -0.39451
 Alpha  occ. eigenvalues --   -0.39295  -0.39173  -0.38896  -0.38680  -0.38569
 Alpha  occ. eigenvalues --   -0.38542  -0.37968  -0.37866  -0.37586  -0.37458
 Alpha  occ. eigenvalues --   -0.37403  -0.36893  -0.36872  -0.36659  -0.36247
 Alpha  occ. eigenvalues --   -0.36045  -0.35916  -0.35744  -0.35618  -0.35508
 Alpha  occ. eigenvalues --   -0.35326  -0.35258  -0.35147  -0.34938  -0.34897
 Alpha  occ. eigenvalues --   -0.34806  -0.34455  -0.34161  -0.33905  -0.33728
 Alpha  occ. eigenvalues --   -0.33588  -0.33406  -0.33304  -0.33105  -0.33042
 Alpha  occ. eigenvalues --   -0.32793  -0.32353  -0.32275  -0.32141  -0.31970
 Alpha  occ. eigenvalues --   -0.31927  -0.31848  -0.31754  -0.31688  -0.31435
 Alpha  occ. eigenvalues --   -0.31273  -0.31062  -0.30834  -0.30703  -0.30657
 Alpha  occ. eigenvalues --   -0.30456  -0.30392  -0.30168  -0.29991  -0.29954
 Alpha  occ. eigenvalues --   -0.29776  -0.29560  -0.29536  -0.29173  -0.29142
 Alpha  occ. eigenvalues --   -0.28873  -0.28800  -0.28115  -0.27980  -0.27821
 Alpha  occ. eigenvalues --   -0.27673  -0.27530  -0.27309  -0.26858  -0.26732
 Alpha  occ. eigenvalues --   -0.26350  -0.26121  -0.26079  -0.25911  -0.25828
 Alpha  occ. eigenvalues --   -0.25770  -0.25284  -0.23954  -0.23811  -0.23550
 Alpha  occ. eigenvalues --   -0.22870  -0.22394  -0.22159  -0.21658  -0.21070
 Alpha  occ. eigenvalues --   -0.20718  -0.20104  -0.18412  -0.17727  -0.16921
 Alpha  occ. eigenvalues --   -0.15387
 Alpha virt. eigenvalues --   -0.10937  -0.06862  -0.06067  -0.04633  -0.03647
 Alpha virt. eigenvalues --   -0.01870  -0.01660  -0.01173  -0.00595   0.00016
 Alpha virt. eigenvalues --    0.01093   0.01534   0.02333   0.02564   0.02672

 Mulliken charges:
               1
     1  Mg   0.730174
     2  C    0.040902
     3  C   -0.069192
     4  C   -0.054794
     5  C   -0.087424
     6  N   -0.110452
     7  C   -0.095255
     8  C   -0.005237
     9  C    0.040024
    10  C   -0.062774
    11  C    0.118369
    12  C    0.080074
    13  C    0.169449
    14  C    0.058356
    15  O   -0.186738
    16  O   -0.275437
    17  N   -0.255290
    18  C    0.147797
    19  C   -0.148808
    20  C    0.017343
    21  C    0.098230
    22  C    0.180057
    23  C   -0.088382
    24  O   -0.175051
    25  C    0.159099
    26  N   -0.299799
    27  C    0.027702
    28  C    0.031401
    29  C    0.043200
    30  C    0.047971
    31  C    0.133606
    32  C    0.094274
    33  C    0.049074
    34  N   -0.287459
    35  C    0.126346
    36  C   -0.208113
    37  C    0.165908
    38  C    0.044326
    39  C    0.184523
    40  C   -0.096697
    41  O   -0.146831
    42  C    0.007763
    43  C    0.130393
    44  O   -0.146397
    45  O   -0.260312
    46  C    0.213972
    47  C    0.298973
    48  C   -0.095373
    49  C   -0.210540
    50  C    0.167573
    51  C    0.142172
    52  C    0.065825
    53  C    0.164797
    54  C   -0.094198
    55  C    0.113993
    56  C    0.060366
    57  C    0.055354
    58  C    0.134205
    59  C   -0.055697
    60  C    0.095151
    61  C    0.106571
    62  C    0.079526
    63  C    0.084781
    64  C   -0.102492
    65  C    0.099135
    66  C    0.097352
    67  H   -0.075205
    68  H   -0.053379
    69  H   -0.058322
    70  H    0.010698
    71  H   -0.036504
    72  H    0.001156
    73  H   -0.005969
    74  H   -0.002721
    75  H   -0.037643
    76  H   -0.009386
    77  H   -0.013081
    78  H   -0.000804
    79  H   -0.002612
    80  H   -0.014513
    81  H    0.018146
    82  H   -0.006435
    83  H    0.024618
    84  H    0.007210
    85  H   -0.016318
    86  H   -0.030546
    87  H   -0.013744
    88  H   -0.001682
    89  H   -0.010165
    90  H   -0.005513
    91  H   -0.019178
    92  H   -0.003983
    93  H   -0.010177
    94  H   -0.013011
    95  H    0.011561
    96  H   -0.032992
    97  H    0.006353
    98  H    0.015214
    99  H   -0.001044
   100  H    0.018372
   101  H    0.010658
   102  H    0.030171
   103  H    0.001247
   104  H   -0.034370
   105  H    0.001141
   106  H    0.003327
   107  H   -0.023145
   108  H   -0.034386
   109  H   -0.044209
   110  H   -0.024794
   111  H   -0.024890
   112  H   -0.045533
   113  H   -0.026532
   114  H   -0.039942
   115  H   -0.010894
   116  H   -0.001657
   117  H   -0.016809
   118  H   -0.034998
   119  H   -0.036726
   120  H   -0.036864
   121  H   -0.034798
   122  H   -0.039372
   123  H   -0.046285
   124  H   -0.026104
   125  H   -0.017775
   126  H   -0.013752
   127  H   -0.026216
   128  H   -0.043636
   129  H   -0.026464
   130  H   -0.036563
   131  H   -0.011906
   132  H   -0.030377
   133  H   -0.029729
   134  H   -0.031108
   135  H   -0.032033
   136  H   -0.029653
   137  H   -0.021202
   138  H   -0.016859
   139  H   -0.001658
   140  H   -0.021077
 Sum of Mulliken charges =  -0.00000

 Dipole moment (field-independent basis, Debye):
    X=             -4.6292    Y=              3.4652    Z=              1.7259  Tot=              6.0346
 Quadrupole moment (field-independent basis, Debye-Ang):
   XX=           -391.8905   YY=           -440.9784   ZZ=           -402.1613
   XY=             35.4935   XZ=             15.3522   YZ=             -2.3843

 Normal termination of Gaussian 16 at Wed May  4 06:24:16 2022.
