 Gaussian 16, Revision A.03,
 Gaussian 16:  ES64L-G16RevA.03 25-Dec-2016

 -----------------------------------
 #p cam-b3lyp/Def2SVP td=(nstates=5)
 -----------------------------------

 --------------------------------------------------------
 step_1401_chromophore_21 TDDFT with cam-b3lyp functional
 --------------------------------------------------------
 Symbolic Z-matrix:
 Charge =  0 Multiplicity = 1

                         Standard orientation:
 ---------------------------------------------------------------------
 Center     Atomic      Atomic             Coordinates (Angstroms)
 Number     Number       Type             X           Y           Z
 ---------------------------------------------------------------------
      1         12           0        5.379436    1.235507   -0.259126
      2          6           0        4.851697   -2.285200   -0.027727
      3          6           0        1.906248    1.469217   -0.316025
      4          6           0        5.588469    4.504959   -0.125716
      5          6           0        8.725532    0.759067   -0.118683
      6          7           0        3.571895   -0.277656   -0.113997
      7          6           0        3.642794   -1.609159    0.110913
      8          6           0        2.197421   -2.235994    0.305506
      9          6           0        1.314338   -1.036665    0.006974
     10          6           0        2.348969    0.127313   -0.124194
     11          6           0        0.272130   -1.188044   -1.210785
     12          6           0        2.152886   -2.781173    1.757721
     13          6           0        1.078078   -3.898811    2.026146
     14          6           0        0.128980   -4.398916    0.932001
     15          8           0        0.191297   -5.514658    0.432276
     16          8           0       -0.773325   -3.444579    0.573805
     17          7           0        3.966552    2.776016   -0.467455
     18          6           0        2.609072    2.666688   -0.459892
     19          6           0        1.980533    4.030940   -0.616251
     20          6           0        3.028104    4.940091   -0.404721
     21          6           0        4.281485    4.091957   -0.423835
     22          6           0        0.522451    4.216296   -0.724278
     23          6           0        2.947915    6.456719   -0.187831
     24          8           0        3.921794    7.199610   -0.034144
     25          6           0        1.674988    7.154371   -0.106243
     26          7           0        6.866807    2.469496   -0.036546
     27          6           0        6.799314    3.799067    0.022095
     28          6           0        8.214058    4.467960    0.257408
     29          6           0        9.064051    3.156093    0.445436
     30          6           0        8.214942    2.091750    0.061042
     31          6           0        8.694296    5.457125   -0.806587
     32          6           0        9.627854    2.918391    1.868375
     33          6           0       11.139025    3.186112    2.008155
     34          7           0        6.582985   -0.397460   -0.121445
     35          6           0        7.958595   -0.433749   -0.126215
     36          6           0        8.362501   -1.807737   -0.200183
     37          6           0        7.211521   -2.586901   -0.162452
     38          6           0        6.156848   -1.695475   -0.172092
     39          6           0        9.745583   -2.269070   -0.114475
     40          6           0        6.682875   -3.900736   -0.096430
     41          8           0        7.194488   -5.026342   -0.188610
     42          6           0        5.141786   -3.767870    0.084246
     43          6           0        4.456111   -4.601371   -1.021702
     44          8           0        3.965659   -4.199898   -2.026003
     45          8           0        4.329675   -5.860082   -0.506594
     46          6           0        3.510011   -6.843509   -1.181696
     47          6           0       -1.811624   -3.939339   -0.331449
     48          6           0       -3.013627   -3.014322   -0.099614
     49          6           0       -4.125814   -2.924890   -0.832856
     50          6           0       -4.489106   -3.865680   -1.924078
     51          6           0       -5.155484   -1.845163   -0.540095
     52          6           0       -6.344529   -2.324942    0.303645
     53          6           0       -6.968996   -1.330032    1.341595
     54          6           0       -8.127712   -0.513699    0.831854
     55          6           0       -8.255170    0.921909    1.507441
     56          6           0       -9.411329   -1.378305    1.053900
     57          6           0      -10.495058   -1.017384    0.044456
     58          6           0      -11.943821   -1.375668    0.524522
     59          6           0      -12.765035   -0.073030    0.816813
     60          6           0      -12.816417    0.153000    2.290098
     61          6           0      -14.235087   -0.140731    0.154632
     62          6           0      -14.436727    1.032976   -0.908441
     63          6           0      -15.447186    2.060908   -0.515619
     64          6           0      -14.841027    3.494845   -0.555561
     65          6           0      -15.994602    4.469194   -0.196375
     66          6           0      -14.283244    3.852478   -2.003801
     67          1           0        0.815167    1.477497   -0.361734
     68          1           0        5.670827    5.576660    0.066771
     69          1           0        9.809230    0.674707   -0.017735
     70          1           0        1.941544   -3.058647   -0.361962
     71          1           0        0.735233   -0.859452    0.912965
     72          1           0        0.305469   -2.178328   -1.664910
     73          1           0        0.478924   -0.464414   -1.998409
     74          1           0       -0.734104   -1.062906   -0.810580
     75          1           0        1.896314   -1.936096    2.397470
     76          1           0        3.087837   -3.174373    2.156961
     77          1           0        0.526363   -3.377433    2.808550
     78          1           0        1.634017   -4.750564    2.416358
     79          1           0        0.125351    3.434236   -1.371222
     80          1           0        0.255965    5.141213   -1.234711
     81          1           0        0.032263    4.152227    0.246878
     82          1           0        1.153167    6.453663    0.545359
     83          1           0        1.247671    7.106009   -1.107907
     84          1           0        1.809679    8.119350    0.382573
     85          1           0        8.096596    5.036931    1.180070
     86          1           0        9.949478    3.254238   -0.181793
     87          1           0        8.809553    6.449434   -0.370690
     88          1           0        7.991594    5.626890   -1.622819
     89          1           0        9.667243    5.221985   -1.235715
     90          1           0        9.480034    1.870158    2.128903
     91          1           0        9.111613    3.615828    2.528428
     92          1           0       11.651958    3.686988    1.186821
     93          1           0       11.596665    2.210270    2.173357
     94          1           0       11.379988    3.748210    2.910110
     95          1           0       10.040094   -2.401969    0.926495
     96          1           0       10.358923   -1.454124   -0.497594
     97          1           0        9.922979   -3.080717   -0.819978
     98          1           0        4.901536   -4.113313    1.089007
     99          1           0        3.837937   -6.840468   -2.221987
    100          1           0        2.433810   -6.673463   -1.190820
    101          1           0        3.676382   -7.852923   -0.805674
    102          1           0       -2.080632   -4.992652   -0.255557
    103          1           0       -1.351251   -3.707031   -1.291445
    104          1           0       -2.865912   -2.276097    0.688750
    105          1           0       -4.687853   -3.282673   -2.822720
    106          1           0       -5.320587   -4.486028   -1.589430
    107          1           0       -3.675401   -4.573897   -2.084107
    108          1           0       -5.393702   -1.449932   -1.526778
    109          1           0       -4.568826   -1.072183   -0.044898
    110          1           0       -5.998553   -3.257578    0.749187
    111          1           0       -7.067828   -2.587339   -0.468975
    112          1           0       -6.233577   -0.578286    1.630519
    113          1           0       -7.189151   -2.012043    2.163502
    114          1           0       -8.110977   -0.406907   -0.252628
    115          1           0       -7.672456    1.630549    0.918130
    116          1           0       -7.922456    0.805905    2.538967
    117          1           0       -9.280537    1.281006    1.422596
    118          1           0       -9.800729   -1.254977    2.065231
    119          1           0       -9.158839   -2.430739    0.929441
    120          1           0      -10.230197   -1.473309   -0.908933
    121          1           0      -10.343796    0.047729   -0.134560
    122          1           0      -11.935259   -2.039573    1.388301
    123          1           0      -12.409185   -2.016679   -0.225228
    124          1           0      -12.168437    0.746063    0.413091
    125          1           0      -11.891443    0.029218    2.851859
    126          1           0      -13.583397   -0.513401    2.683625
    127          1           0      -13.081570    1.177102    2.551651
    128          1           0      -14.873412   -0.067558    1.033928
    129          1           0      -14.623292   -1.036914   -0.328511
    130          1           0      -14.857777    0.640539   -1.833509
    131          1           0      -13.515941    1.604051   -1.024701
    132          1           0      -15.764068    1.805346    0.495395
    133          1           0      -16.276483    2.041131   -1.223249
    134          1           0      -14.114867    3.739033    0.220096
    135          1           0      -16.062526    5.261804   -0.942420
    136          1           0      -15.876095    5.037566    0.726223
    137          1           0      -16.974781    4.018080   -0.042115
    138          1           0      -13.339955    3.338268   -2.187225
    139          1           0      -14.159598    4.920910   -2.181014
    140          1           0      -14.962771    3.387755   -2.717980
 ---------------------------------------------------------------------

 SCF Done:  E(RCAM-B3LYP) =  -3007.18508203     A.U. after   17 cycles

 Excitation energies and oscillator strengths:

 Excited State   1:      Singlet-A      1.8480 eV  670.90 nm  f=0.3602  <S**2>=0.000
     245 -> 248       -0.17583
     246 -> 247        0.68375
 This state for optimization and/or second-order correction.
 Total Energy, E(TD-HF/TD-DFT) =  -3007.11716810
 Copying the excited state density for this state as the 1-particle RhoCI density.

 Excited State   2:      Singlet-A      2.3086 eV  537.06 nm  f=0.0749  <S**2>=0.000
     245 -> 247        0.61786
     246 -> 248        0.32671

 Excited State   3:      Singlet-A      3.4696 eV  357.35 nm  f=0.7190  <S**2>=0.000
     242 -> 247       -0.13116
     245 -> 247       -0.31321
     246 -> 248        0.60160
     245 <- 247        0.10246

 Excited State   4:      Singlet-A      3.5911 eV  345.26 nm  f=0.0326  <S**2>=0.000
     240 -> 247        0.46425
     240 -> 248       -0.14259
     240 -> 249        0.33034
     240 -> 250        0.15718
     242 -> 247       -0.17540
     244 -> 247        0.16174
     246 -> 248       -0.10270

 Excited State   5:      Singlet-A      3.6116 eV  343.29 nm  f=0.0027  <S**2>=0.000
     243 -> 247        0.50675
     243 -> 249       -0.29937
     243 -> 250        0.31513

 The electronic state is 1-A.
 Alpha  occ. eigenvalues --  -46.87589 -19.26136 -19.23059 -19.20380 -19.19281
 Alpha  occ. eigenvalues --  -19.19202 -19.17155 -14.41762 -14.41743 -14.40156
 Alpha  occ. eigenvalues --  -14.38302 -10.40035 -10.38313 -10.35615 -10.33423
 Alpha  occ. eigenvalues --  -10.32676 -10.31566 -10.31458 -10.31241 -10.31003
 Alpha  occ. eigenvalues --  -10.30237 -10.30078 -10.29971 -10.29877 -10.28989
 Alpha  occ. eigenvalues --  -10.28340 -10.28105 -10.27983 -10.27901 -10.27741
 Alpha  occ. eigenvalues --  -10.27571 -10.27539 -10.27490 -10.27061 -10.27047
 Alpha  occ. eigenvalues --  -10.26990 -10.26831 -10.26668 -10.26559 -10.26498
 Alpha  occ. eigenvalues --  -10.26288 -10.26262 -10.26202 -10.26168 -10.26065
 Alpha  occ. eigenvalues --  -10.25964 -10.25958 -10.25912 -10.25866 -10.25766
 Alpha  occ. eigenvalues --  -10.25682 -10.25604 -10.25601 -10.25518 -10.25336
 Alpha  occ. eigenvalues --  -10.25333 -10.25028 -10.24708 -10.24704 -10.24493
 Alpha  occ. eigenvalues --  -10.24453 -10.24412 -10.24373 -10.24360 -10.23882
 Alpha  occ. eigenvalues --  -10.23295  -3.16456  -1.91343  -1.90935  -1.90761
 Alpha  occ. eigenvalues --   -1.17540  -1.15760  -1.10219  -1.08513  -1.07944
 Alpha  occ. eigenvalues --   -1.07348  -1.05317  -1.04416  -1.03591  -1.02311
 Alpha  occ. eigenvalues --   -0.91835  -0.91332  -0.90020  -0.89990  -0.89602
 Alpha  occ. eigenvalues --   -0.89141  -0.89123  -0.87663  -0.87558  -0.86721
 Alpha  occ. eigenvalues --   -0.85868  -0.85443  -0.84251  -0.83690  -0.83339
 Alpha  occ. eigenvalues --   -0.82799  -0.82322  -0.81509  -0.81089  -0.80257
 Alpha  occ. eigenvalues --   -0.79967  -0.79210  -0.77761  -0.77623  -0.76608
 Alpha  occ. eigenvalues --   -0.75461  -0.75374  -0.74959  -0.74739  -0.74242
 Alpha  occ. eigenvalues --   -0.73688  -0.71887  -0.71353  -0.70569  -0.69066
 Alpha  occ. eigenvalues --   -0.68496  -0.68144  -0.67508  -0.66753  -0.65874
 Alpha  occ. eigenvalues --   -0.65579  -0.65365  -0.64635  -0.64394  -0.64073
 Alpha  occ. eigenvalues --   -0.63933  -0.63248  -0.62569  -0.61417  -0.60678
 Alpha  occ. eigenvalues --   -0.59723  -0.59603  -0.59354  -0.58560  -0.57425
 Alpha  occ. eigenvalues --   -0.57356  -0.56747  -0.56425  -0.55890  -0.55460
 Alpha  occ. eigenvalues --   -0.55107  -0.54739  -0.54577  -0.54222  -0.54163
 Alpha  occ. eigenvalues --   -0.53897  -0.53688  -0.53421  -0.53300  -0.53116
 Alpha  occ. eigenvalues --   -0.53035  -0.52822  -0.52626  -0.52361  -0.52264
 Alpha  occ. eigenvalues --   -0.51854  -0.51829  -0.51632  -0.51102  -0.50963
 Alpha  occ. eigenvalues --   -0.50792  -0.50693  -0.50214  -0.50115  -0.49766
 Alpha  occ. eigenvalues --   -0.49603  -0.49281  -0.49113  -0.48995  -0.48795
 Alpha  occ. eigenvalues --   -0.48467  -0.48018  -0.47899  -0.47862  -0.47753
 Alpha  occ. eigenvalues --   -0.47580  -0.47417  -0.47199  -0.47186  -0.46885
 Alpha  occ. eigenvalues --   -0.46661  -0.46352  -0.46141  -0.45775  -0.45468
 Alpha  occ. eigenvalues --   -0.45291  -0.45279  -0.45051  -0.44807  -0.44697
 Alpha  occ. eigenvalues --   -0.44669  -0.44121  -0.43965  -0.43909  -0.43783
 Alpha  occ. eigenvalues --   -0.43574  -0.43484  -0.43342  -0.43109  -0.42999
 Alpha  occ. eigenvalues --   -0.42700  -0.42421  -0.42284  -0.42132  -0.42087
 Alpha  occ. eigenvalues --   -0.41983  -0.41682  -0.41513  -0.41331  -0.41159
 Alpha  occ. eigenvalues --   -0.40953  -0.40689  -0.40492  -0.40352  -0.40327
 Alpha  occ. eigenvalues --   -0.39926  -0.39802  -0.39588  -0.39239  -0.38956
 Alpha  occ. eigenvalues --   -0.38564  -0.38521  -0.38225  -0.37658  -0.37635
 Alpha  occ. eigenvalues --   -0.37603  -0.37181  -0.36974  -0.36782  -0.36525
 Alpha  occ. eigenvalues --   -0.36363  -0.35953  -0.35319  -0.34685  -0.34434
 Alpha  occ. eigenvalues --   -0.33756  -0.33198  -0.32950  -0.32158  -0.31228
 Alpha  occ. eigenvalues --   -0.30490  -0.30259  -0.29478  -0.28885  -0.23818
 Alpha  occ. eigenvalues --   -0.20751
 Alpha virt. eigenvalues --   -0.07729  -0.01635   0.00225   0.02370   0.03841
 Alpha virt. eigenvalues --    0.04225   0.05109   0.05458   0.06407   0.06910
 Alpha virt. eigenvalues --    0.08189   0.08398   0.08558   0.08872   0.09056

 Mulliken charges:
               1
     1  Mg   0.866195
     2  C    0.022870
     3  C   -0.087861
     4  C   -0.088891
     5  C   -0.086928
     6  N   -0.176473
     7  C   -0.066285
     8  C   -0.049552
     9  C   -0.013560
    10  C   -0.035138
    11  C    0.064584
    12  C    0.038635
    13  C    0.100641
    14  C    0.132238
    15  O   -0.227970
    16  O   -0.337316
    17  N   -0.346212
    18  C    0.163719
    19  C   -0.144239
    20  C   -0.049154
    21  C    0.137098
    22  C    0.113646
    23  C   -0.004798
    24  O   -0.212154
    25  C    0.074444
    26  N   -0.380953
    27  C    0.058828
    28  C   -0.019069
    29  C   -0.019392
    30  C    0.059839
    31  C    0.071550
    32  C    0.040956
    33  C   -0.012064
    34  N   -0.376406
    35  C    0.122405
    36  C   -0.207796
    37  C    0.078234
    38  C    0.078267
    39  C    0.131948
    40  C    0.006447
    41  O   -0.189215
    42  C   -0.065969
    43  C    0.216709
    44  O   -0.183963
    45  O   -0.324749
    46  C    0.176765
    47  C    0.265880
    48  C   -0.118073
    49  C   -0.231107
    50  C    0.105289
    51  C    0.089046
    52  C    0.011938
    53  C    0.100560
    54  C   -0.150281
    55  C    0.059213
    56  C    0.015830
    57  C    0.003074
    58  C    0.076409
    59  C   -0.111068
    60  C    0.040577
    61  C    0.055437
    62  C    0.020719
    63  C    0.032855
    64  C   -0.162272
    65  C    0.039380
    66  C    0.036394
    67  H   -0.037830
    68  H   -0.012651
    69  H   -0.025613
    70  H    0.039336
    71  H   -0.000083
    72  H    0.023909
    73  H    0.019374
    74  H    0.019185
    75  H   -0.007124
    76  H    0.020577
    77  H    0.019642
    78  H    0.031985
    79  H    0.028057
    80  H    0.016507
    81  H    0.049105
    82  H    0.019853
    83  H    0.050655
    84  H    0.044325
    85  H    0.018851
    86  H    0.005428
    87  H    0.011631
    88  H    0.024724
    89  H    0.015773
    90  H    0.025903
    91  H    0.006627
    92  H    0.017432
    93  H    0.012926
    94  H    0.011019
    95  H    0.034278
    96  H   -0.010447
    97  H    0.031253
    98  H    0.054586
    99  H    0.022565
   100  H    0.038404
   101  H    0.033583
   102  H    0.059437
   103  H    0.027732
   104  H   -0.000683
   105  H    0.025243
   106  H    0.027543
   107  H    0.002022
   108  H   -0.006132
   109  H   -0.014875
   110  H    0.005921
   111  H    0.000747
   112  H   -0.015229
   113  H    0.004071
   114  H   -0.009006
   115  H    0.012950
   116  H    0.021165
   117  H    0.004455
   118  H   -0.009305
   119  H   -0.008236
   120  H   -0.007786
   121  H   -0.009639
   122  H   -0.009541
   123  H   -0.014416
   124  H    0.001696
   125  H    0.005170
   126  H    0.008927
   127  H   -0.001420
   128  H   -0.014998
   129  H    0.002717
   130  H   -0.006307
   131  H    0.012306
   132  H   -0.001651
   133  H   -0.001140
   134  H   -0.000574
   135  H   -0.006805
   136  H   -0.004259
   137  H    0.003952
   138  H    0.007345
   139  H    0.022373
   140  H    0.002778
 Sum of Mulliken charges =  -0.00000

 Dipole moment (field-independent basis, Debye):
    X=             -6.0297    Y=              4.9225    Z=              1.7860  Tot=              7.9861
 Quadrupole moment (field-independent basis, Debye-Ang):
   XX=           -401.5418   YY=           -435.8876   ZZ=           -402.0650
   XY=             40.5796   XZ=             15.8778   YZ=             -3.0835

 Normal termination of Gaussian 16 at Wed May  4 05:16:13 2022.
