 Gaussian 16, Revision A.03,
 Gaussian 16:  ES64L-G16RevA.03 25-Dec-2016

 ---------------------------------
 #p PBE1PBE/Def2SVP td=(nstates=5)
 ---------------------------------

 ------------------------------------------------------
 step_1401_chromophore_21 TDDFT with PBE1PBE functional
 ------------------------------------------------------
 Symbolic Z-matrix:
 Charge =  0 Multiplicity = 1

                         Standard orientation:
 ---------------------------------------------------------------------
 Center     Atomic      Atomic             Coordinates (Angstroms)
 Number     Number       Type             X           Y           Z
 ---------------------------------------------------------------------
      1         12           0        5.379436    1.235507   -0.259126
      2          6           0        4.851697   -2.285200   -0.027727
      3          6           0        1.906248    1.469217   -0.316025
      4          6           0        5.588469    4.504959   -0.125716
      5          6           0        8.725532    0.759067   -0.118683
      6          7           0        3.571895   -0.277656   -0.113997
      7          6           0        3.642794   -1.609159    0.110913
      8          6           0        2.197421   -2.235994    0.305506
      9          6           0        1.314338   -1.036665    0.006974
     10          6           0        2.348969    0.127313   -0.124194
     11          6           0        0.272130   -1.188044   -1.210785
     12          6           0        2.152886   -2.781173    1.757721
     13          6           0        1.078078   -3.898811    2.026146
     14          6           0        0.128980   -4.398916    0.932001
     15          8           0        0.191297   -5.514658    0.432276
     16          8           0       -0.773325   -3.444579    0.573805
     17          7           0        3.966552    2.776016   -0.467455
     18          6           0        2.609072    2.666688   -0.459892
     19          6           0        1.980533    4.030940   -0.616251
     20          6           0        3.028104    4.940091   -0.404721
     21          6           0        4.281485    4.091957   -0.423835
     22          6           0        0.522451    4.216296   -0.724278
     23          6           0        2.947915    6.456719   -0.187831
     24          8           0        3.921794    7.199610   -0.034144
     25          6           0        1.674988    7.154371   -0.106243
     26          7           0        6.866807    2.469496   -0.036546
     27          6           0        6.799314    3.799067    0.022095
     28          6           0        8.214058    4.467960    0.257408
     29          6           0        9.064051    3.156093    0.445436
     30          6           0        8.214942    2.091750    0.061042
     31          6           0        8.694296    5.457125   -0.806587
     32          6           0        9.627854    2.918391    1.868375
     33          6           0       11.139025    3.186112    2.008155
     34          7           0        6.582985   -0.397460   -0.121445
     35          6           0        7.958595   -0.433749   -0.126215
     36          6           0        8.362501   -1.807737   -0.200183
     37          6           0        7.211521   -2.586901   -0.162452
     38          6           0        6.156848   -1.695475   -0.172092
     39          6           0        9.745583   -2.269070   -0.114475
     40          6           0        6.682875   -3.900736   -0.096430
     41          8           0        7.194488   -5.026342   -0.188610
     42          6           0        5.141786   -3.767870    0.084246
     43          6           0        4.456111   -4.601371   -1.021702
     44          8           0        3.965659   -4.199898   -2.026003
     45          8           0        4.329675   -5.860082   -0.506594
     46          6           0        3.510011   -6.843509   -1.181696
     47          6           0       -1.811624   -3.939339   -0.331449
     48          6           0       -3.013627   -3.014322   -0.099614
     49          6           0       -4.125814   -2.924890   -0.832856
     50          6           0       -4.489106   -3.865680   -1.924078
     51          6           0       -5.155484   -1.845163   -0.540095
     52          6           0       -6.344529   -2.324942    0.303645
     53          6           0       -6.968996   -1.330032    1.341595
     54          6           0       -8.127712   -0.513699    0.831854
     55          6           0       -8.255170    0.921909    1.507441
     56          6           0       -9.411329   -1.378305    1.053900
     57          6           0      -10.495058   -1.017384    0.044456
     58          6           0      -11.943821   -1.375668    0.524522
     59          6           0      -12.765035   -0.073030    0.816813
     60          6           0      -12.816417    0.153000    2.290098
     61          6           0      -14.235087   -0.140731    0.154632
     62          6           0      -14.436727    1.032976   -0.908441
     63          6           0      -15.447186    2.060908   -0.515619
     64          6           0      -14.841027    3.494845   -0.555561
     65          6           0      -15.994602    4.469194   -0.196375
     66          6           0      -14.283244    3.852478   -2.003801
     67          1           0        0.815167    1.477497   -0.361734
     68          1           0        5.670827    5.576660    0.066771
     69          1           0        9.809230    0.674707   -0.017735
     70          1           0        1.941544   -3.058647   -0.361962
     71          1           0        0.735233   -0.859452    0.912965
     72          1           0        0.305469   -2.178328   -1.664910
     73          1           0        0.478924   -0.464414   -1.998409
     74          1           0       -0.734104   -1.062906   -0.810580
     75          1           0        1.896314   -1.936096    2.397470
     76          1           0        3.087837   -3.174373    2.156961
     77          1           0        0.526363   -3.377433    2.808550
     78          1           0        1.634017   -4.750564    2.416358
     79          1           0        0.125351    3.434236   -1.371222
     80          1           0        0.255965    5.141213   -1.234711
     81          1           0        0.032263    4.152227    0.246878
     82          1           0        1.153167    6.453663    0.545359
     83          1           0        1.247671    7.106009   -1.107907
     84          1           0        1.809679    8.119350    0.382573
     85          1           0        8.096596    5.036931    1.180070
     86          1           0        9.949478    3.254238   -0.181793
     87          1           0        8.809553    6.449434   -0.370690
     88          1           0        7.991594    5.626890   -1.622819
     89          1           0        9.667243    5.221985   -1.235715
     90          1           0        9.480034    1.870158    2.128903
     91          1           0        9.111613    3.615828    2.528428
     92          1           0       11.651958    3.686988    1.186821
     93          1           0       11.596665    2.210270    2.173357
     94          1           0       11.379988    3.748210    2.910110
     95          1           0       10.040094   -2.401969    0.926495
     96          1           0       10.358923   -1.454124   -0.497594
     97          1           0        9.922979   -3.080717   -0.819978
     98          1           0        4.901536   -4.113313    1.089007
     99          1           0        3.837937   -6.840468   -2.221987
    100          1           0        2.433810   -6.673463   -1.190820
    101          1           0        3.676382   -7.852923   -0.805674
    102          1           0       -2.080632   -4.992652   -0.255557
    103          1           0       -1.351251   -3.707031   -1.291445
    104          1           0       -2.865912   -2.276097    0.688750
    105          1           0       -4.687853   -3.282673   -2.822720
    106          1           0       -5.320587   -4.486028   -1.589430
    107          1           0       -3.675401   -4.573897   -2.084107
    108          1           0       -5.393702   -1.449932   -1.526778
    109          1           0       -4.568826   -1.072183   -0.044898
    110          1           0       -5.998553   -3.257578    0.749187
    111          1           0       -7.067828   -2.587339   -0.468975
    112          1           0       -6.233577   -0.578286    1.630519
    113          1           0       -7.189151   -2.012043    2.163502
    114          1           0       -8.110977   -0.406907   -0.252628
    115          1           0       -7.672456    1.630549    0.918130
    116          1           0       -7.922456    0.805905    2.538967
    117          1           0       -9.280537    1.281006    1.422596
    118          1           0       -9.800729   -1.254977    2.065231
    119          1           0       -9.158839   -2.430739    0.929441
    120          1           0      -10.230197   -1.473309   -0.908933
    121          1           0      -10.343796    0.047729   -0.134560
    122          1           0      -11.935259   -2.039573    1.388301
    123          1           0      -12.409185   -2.016679   -0.225228
    124          1           0      -12.168437    0.746063    0.413091
    125          1           0      -11.891443    0.029218    2.851859
    126          1           0      -13.583397   -0.513401    2.683625
    127          1           0      -13.081570    1.177102    2.551651
    128          1           0      -14.873412   -0.067558    1.033928
    129          1           0      -14.623292   -1.036914   -0.328511
    130          1           0      -14.857777    0.640539   -1.833509
    131          1           0      -13.515941    1.604051   -1.024701
    132          1           0      -15.764068    1.805346    0.495395
    133          1           0      -16.276483    2.041131   -1.223249
    134          1           0      -14.114867    3.739033    0.220096
    135          1           0      -16.062526    5.261804   -0.942420
    136          1           0      -15.876095    5.037566    0.726223
    137          1           0      -16.974781    4.018080   -0.042115
    138          1           0      -13.339955    3.338268   -2.187225
    139          1           0      -14.159598    4.920910   -2.181014
    140          1           0      -14.962771    3.387755   -2.717980
 ---------------------------------------------------------------------

 SCF Done:  E(RPBE1PBE) =  -3005.37107723     A.U. after   16 cycles

 Excitation energies and oscillator strengths:

 Excited State   1:      Singlet-A      1.9022 eV  651.81 nm  f=0.3509  <S**2>=0.000
     245 -> 248        0.17664
     246 -> 247        0.68914
 This state for optimization and/or second-order correction.
 Total Energy, E(TD-HF/TD-DFT) =  -3005.30117408
 Copying the excited state density for this state as the 1-particle RhoCI density.

 Excited State   2:      Singlet-A      2.2802 eV  543.74 nm  f=0.0781  <S**2>=0.000
     245 -> 247        0.63620
     246 -> 248       -0.29547

 Excited State   3:      Singlet-A      3.0254 eV  409.82 nm  f=0.0002  <S**2>=0.000
     244 -> 247        0.66232
     244 -> 249       -0.17515
     244 -> 250        0.13419

 Excited State   4:      Singlet-A      3.1516 eV  393.40 nm  f=0.0012  <S**2>=0.000
     240 -> 247        0.15689
     242 -> 247        0.60449
     242 -> 248        0.10124
     242 -> 249        0.17875
     243 -> 247        0.20002

 Excited State   5:      Singlet-A      3.2176 eV  385.33 nm  f=0.0554  <S**2>=0.000
     240 -> 247       -0.10069
     242 -> 247       -0.12473
     243 -> 247        0.59092
     245 -> 247        0.10161
     246 -> 248        0.30499

 The electronic state is 1-A.
 Alpha  occ. eigenvalues --  -46.91023 -19.26795 -19.23848 -19.20664 -19.19588
 Alpha  occ. eigenvalues --  -19.19090 -19.17756 -14.41367 -14.41101 -14.39631
 Alpha  occ. eigenvalues --  -14.38207 -10.37080 -10.35425 -10.32407 -10.30866
 Alpha  occ. eigenvalues --  -10.30086 -10.28935 -10.28639 -10.28424 -10.28374
 Alpha  occ. eigenvalues --  -10.28140 -10.27911 -10.27313 -10.27269 -10.26357
 Alpha  occ. eigenvalues --  -10.26215 -10.26096 -10.25664 -10.25600 -10.25582
 Alpha  occ. eigenvalues --  -10.25259 -10.25039 -10.25036 -10.24929 -10.24857
 Alpha  occ. eigenvalues --  -10.24599 -10.24458 -10.24448 -10.24407 -10.23957
 Alpha  occ. eigenvalues --  -10.23939 -10.23876 -10.23740 -10.23679 -10.23652
 Alpha  occ. eigenvalues --  -10.23607 -10.23503 -10.23493 -10.23458 -10.23284
 Alpha  occ. eigenvalues --  -10.23272 -10.23238 -10.23054 -10.22985 -10.22934
 Alpha  occ. eigenvalues --  -10.22878 -10.22429 -10.22261 -10.22229 -10.22183
 Alpha  occ. eigenvalues --  -10.22016 -10.21901 -10.21875 -10.21801 -10.21436
 Alpha  occ. eigenvalues --  -10.21262  -3.13462  -1.86291  -1.85862  -1.85691
 Alpha  occ. eigenvalues --   -1.12348  -1.10641  -1.04617  -1.03375  -1.02907
 Alpha  occ. eigenvalues --   -1.02394  -0.99877  -0.98970  -0.98066  -0.97327
 Alpha  occ. eigenvalues --   -0.86424  -0.85441  -0.84329  -0.84104  -0.83799
 Alpha  occ. eigenvalues --   -0.83202  -0.83068  -0.81833  -0.81642  -0.81091
 Alpha  occ. eigenvalues --   -0.80461  -0.79649  -0.78387  -0.77821  -0.77496
 Alpha  occ. eigenvalues --   -0.77085  -0.76517  -0.75770  -0.75380  -0.74417
 Alpha  occ. eigenvalues --   -0.74329  -0.73244  -0.72177  -0.71904  -0.70730
 Alpha  occ. eigenvalues --   -0.69906  -0.69429  -0.69128  -0.69063  -0.68433
 Alpha  occ. eigenvalues --   -0.67914  -0.66499  -0.65702  -0.64909  -0.63482
 Alpha  occ. eigenvalues --   -0.62825  -0.62570  -0.61769  -0.60947  -0.60258
 Alpha  occ. eigenvalues --   -0.59852  -0.59740  -0.59190  -0.58639  -0.58506
 Alpha  occ. eigenvalues --   -0.58434  -0.57381  -0.56739  -0.56092  -0.55033
 Alpha  occ. eigenvalues --   -0.54245  -0.54184  -0.53779  -0.53143  -0.52119
 Alpha  occ. eigenvalues --   -0.51840  -0.51283  -0.50891  -0.50351  -0.50027
 Alpha  occ. eigenvalues --   -0.49684  -0.49374  -0.48921  -0.48555  -0.48435
 Alpha  occ. eigenvalues --   -0.48306  -0.48111  -0.48015  -0.47848  -0.47744
 Alpha  occ. eigenvalues --   -0.47548  -0.47391  -0.47116  -0.46830  -0.46772
 Alpha  occ. eigenvalues --   -0.46416  -0.46253  -0.45979  -0.45682  -0.45547
 Alpha  occ. eigenvalues --   -0.45456  -0.45142  -0.44890  -0.44591  -0.44418
 Alpha  occ. eigenvalues --   -0.44114  -0.43962  -0.43719  -0.43499  -0.43178
 Alpha  occ. eigenvalues --   -0.43039  -0.42590  -0.42588  -0.42510  -0.42361
 Alpha  occ. eigenvalues --   -0.42195  -0.42086  -0.41957  -0.41790  -0.41516
 Alpha  occ. eigenvalues --   -0.41240  -0.41042  -0.40933  -0.40563  -0.40172
 Alpha  occ. eigenvalues --   -0.40036  -0.40009  -0.39724  -0.39530  -0.39502
 Alpha  occ. eigenvalues --   -0.39280  -0.38835  -0.38748  -0.38740  -0.38511
 Alpha  occ. eigenvalues --   -0.38375  -0.38234  -0.38038  -0.37917  -0.37775
 Alpha  occ. eigenvalues --   -0.37412  -0.37193  -0.37104  -0.36993  -0.36825
 Alpha  occ. eigenvalues --   -0.36755  -0.36475  -0.36421  -0.36243  -0.36009
 Alpha  occ. eigenvalues --   -0.35860  -0.35460  -0.35428  -0.35218  -0.35203
 Alpha  occ. eigenvalues --   -0.34692  -0.34550  -0.34525  -0.34177  -0.33745
 Alpha  occ. eigenvalues --   -0.33556  -0.33317  -0.32943  -0.32643  -0.32498
 Alpha  occ. eigenvalues --   -0.32445  -0.32107  -0.32025  -0.31565  -0.31482
 Alpha  occ. eigenvalues --   -0.31339  -0.30842  -0.30323  -0.29792  -0.29399
 Alpha  occ. eigenvalues --   -0.28960  -0.28329  -0.28181  -0.27362  -0.26050
 Alpha  occ. eigenvalues --   -0.25741  -0.25579  -0.24885  -0.24586  -0.20629
 Alpha  occ. eigenvalues --   -0.18308
 Alpha virt. eigenvalues --   -0.10389  -0.05186  -0.03881  -0.02075  -0.00526
 Alpha virt. eigenvalues --    0.01052   0.01190   0.01501   0.02217   0.02639
 Alpha virt. eigenvalues --    0.04107   0.04587   0.05237   0.05441   0.05637

 Mulliken charges:
               1
     1  Mg   1.024292
     2  C    0.009761
     3  C   -0.077390
     4  C   -0.085243
     5  C   -0.079423
     6  N   -0.285184
     7  C    0.001462
     8  C   -0.126326
     9  C   -0.080267
    10  C    0.008978
    11  C    0.001940
    12  C   -0.005853
    13  C    0.031518
    14  C    0.190878
    15  O   -0.262930
    16  O   -0.364704
    17  N   -0.460289
    18  C    0.177647
    19  C   -0.162799
    20  C   -0.102192
    21  C    0.171360
    22  C    0.049680
    23  C    0.047347
    24  O   -0.251610
    25  C   -0.004446
    26  N   -0.491152
    27  C    0.088671
    28  C   -0.089203
    29  C   -0.097634
    30  C    0.091242
    31  C    0.015225
    32  C   -0.018182
    33  C   -0.082520
    34  N   -0.504830
    35  C    0.152451
    36  C   -0.228069
    37  C    0.026478
    38  C    0.138255
    39  C    0.078429
    40  C    0.105677
    41  O   -0.231958
    42  C   -0.175338
    43  C    0.307107
    44  O   -0.219817
    45  O   -0.357639
    46  C    0.121817
    47  C    0.225046
    48  C   -0.126866
    49  C   -0.280016
    50  C    0.043228
    51  C    0.030541
    52  C   -0.050260
    53  C    0.038993
    54  C   -0.236106
    55  C   -0.005086
    56  C   -0.033582
    57  C   -0.062316
    58  C    0.026667
    59  C   -0.200830
    60  C   -0.020658
    61  C    0.007681
    62  C   -0.049021
    63  C   -0.017759
    64  C   -0.262172
    65  C   -0.014876
    66  C   -0.026145
    67  H   -0.006024
    68  H    0.020486
    69  H    0.006035
    70  H    0.079886
    71  H    0.037251
    72  H    0.049997
    73  H    0.047725
    74  H    0.048073
    75  H    0.025828
    76  H    0.053086
    77  H    0.052720
    78  H    0.063124
    79  H    0.053933
    80  H    0.043835
    81  H    0.074136
    82  H    0.049020
    83  H    0.076754
    84  H    0.069944
    85  H    0.054537
    86  H    0.043435
    87  H    0.038676
    88  H    0.052216
    89  H    0.041299
    90  H    0.059435
    91  H    0.041118
    92  H    0.044043
    93  H    0.040276
    94  H    0.039819
    95  H    0.064346
    96  H    0.020270
    97  H    0.060791
    98  H    0.091899
    99  H    0.044675
   100  H    0.061796
   101  H    0.055788
   102  H    0.083902
   103  H    0.056003
   104  H    0.028110
   105  H    0.052202
   106  H    0.055091
   107  H    0.030191
   108  H    0.026722
   109  H    0.017352
   110  H    0.038964
   111  H    0.033199
   112  H    0.018681
   113  H    0.036361
   114  H    0.029364
   115  H    0.041580
   116  H    0.048252
   117  H    0.032650
   118  H    0.024563
   119  H    0.025796
   120  H    0.025265
   121  H    0.023181
   122  H    0.022016
   123  H    0.018397
   124  H    0.038806
   125  H    0.033981
   126  H    0.036464
   127  H    0.027859
   128  H    0.016035
   129  H    0.032773
   130  H    0.026929
   131  H    0.046852
   132  H    0.032053
   133  H    0.030937
   134  H    0.036999
   135  H    0.020465
   136  H    0.023462
   137  H    0.030477
   138  H    0.035193
   139  H    0.049801
   140  H    0.031163
 Sum of Mulliken charges =  -0.00000

 Dipole moment (field-independent basis, Debye):
    X=             -5.3204    Y=              4.2281    Z=              1.8867  Tot=              7.0528
 Quadrupole moment (field-independent basis, Debye-Ang):
   XX=           -388.4141   YY=           -434.4940   ZZ=           -399.6021
   XY=             38.4717   XZ=             16.6819   YZ=             -2.4339

 Normal termination of Gaussian 16 at Wed May  4 05:36:41 2022.
