 Gaussian 16, Revision A.03,
 Gaussian 16:  ES64L-G16RevA.03 25-Dec-2016

 --------------------------------
 #p wB97XD/Def2SVP td=(nstates=5)
 --------------------------------

 -----------------------------------------------------
 step_1401_chromophore_21 TDDFT with wB97XD functional
 -----------------------------------------------------
 Symbolic Z-matrix:
 Charge =  0 Multiplicity = 1

                         Standard orientation:
 ---------------------------------------------------------------------
 Center     Atomic      Atomic             Coordinates (Angstroms)
 Number     Number       Type             X           Y           Z
 ---------------------------------------------------------------------
      1         12           0        5.379436    1.235507   -0.259126
      2          6           0        4.851697   -2.285200   -0.027727
      3          6           0        1.906248    1.469217   -0.316025
      4          6           0        5.588469    4.504959   -0.125716
      5          6           0        8.725532    0.759067   -0.118683
      6          7           0        3.571895   -0.277656   -0.113997
      7          6           0        3.642794   -1.609159    0.110913
      8          6           0        2.197421   -2.235994    0.305506
      9          6           0        1.314338   -1.036665    0.006974
     10          6           0        2.348969    0.127313   -0.124194
     11          6           0        0.272130   -1.188044   -1.210785
     12          6           0        2.152886   -2.781173    1.757721
     13          6           0        1.078078   -3.898811    2.026146
     14          6           0        0.128980   -4.398916    0.932001
     15          8           0        0.191297   -5.514658    0.432276
     16          8           0       -0.773325   -3.444579    0.573805
     17          7           0        3.966552    2.776016   -0.467455
     18          6           0        2.609072    2.666688   -0.459892
     19          6           0        1.980533    4.030940   -0.616251
     20          6           0        3.028104    4.940091   -0.404721
     21          6           0        4.281485    4.091957   -0.423835
     22          6           0        0.522451    4.216296   -0.724278
     23          6           0        2.947915    6.456719   -0.187831
     24          8           0        3.921794    7.199610   -0.034144
     25          6           0        1.674988    7.154371   -0.106243
     26          7           0        6.866807    2.469496   -0.036546
     27          6           0        6.799314    3.799067    0.022095
     28          6           0        8.214058    4.467960    0.257408
     29          6           0        9.064051    3.156093    0.445436
     30          6           0        8.214942    2.091750    0.061042
     31          6           0        8.694296    5.457125   -0.806587
     32          6           0        9.627854    2.918391    1.868375
     33          6           0       11.139025    3.186112    2.008155
     34          7           0        6.582985   -0.397460   -0.121445
     35          6           0        7.958595   -0.433749   -0.126215
     36          6           0        8.362501   -1.807737   -0.200183
     37          6           0        7.211521   -2.586901   -0.162452
     38          6           0        6.156848   -1.695475   -0.172092
     39          6           0        9.745583   -2.269070   -0.114475
     40          6           0        6.682875   -3.900736   -0.096430
     41          8           0        7.194488   -5.026342   -0.188610
     42          6           0        5.141786   -3.767870    0.084246
     43          6           0        4.456111   -4.601371   -1.021702
     44          8           0        3.965659   -4.199898   -2.026003
     45          8           0        4.329675   -5.860082   -0.506594
     46          6           0        3.510011   -6.843509   -1.181696
     47          6           0       -1.811624   -3.939339   -0.331449
     48          6           0       -3.013627   -3.014322   -0.099614
     49          6           0       -4.125814   -2.924890   -0.832856
     50          6           0       -4.489106   -3.865680   -1.924078
     51          6           0       -5.155484   -1.845163   -0.540095
     52          6           0       -6.344529   -2.324942    0.303645
     53          6           0       -6.968996   -1.330032    1.341595
     54          6           0       -8.127712   -0.513699    0.831854
     55          6           0       -8.255170    0.921909    1.507441
     56          6           0       -9.411329   -1.378305    1.053900
     57          6           0      -10.495058   -1.017384    0.044456
     58          6           0      -11.943821   -1.375668    0.524522
     59          6           0      -12.765035   -0.073030    0.816813
     60          6           0      -12.816417    0.153000    2.290098
     61          6           0      -14.235087   -0.140731    0.154632
     62          6           0      -14.436727    1.032976   -0.908441
     63          6           0      -15.447186    2.060908   -0.515619
     64          6           0      -14.841027    3.494845   -0.555561
     65          6           0      -15.994602    4.469194   -0.196375
     66          6           0      -14.283244    3.852478   -2.003801
     67          1           0        0.815167    1.477497   -0.361734
     68          1           0        5.670827    5.576660    0.066771
     69          1           0        9.809230    0.674707   -0.017735
     70          1           0        1.941544   -3.058647   -0.361962
     71          1           0        0.735233   -0.859452    0.912965
     72          1           0        0.305469   -2.178328   -1.664910
     73          1           0        0.478924   -0.464414   -1.998409
     74          1           0       -0.734104   -1.062906   -0.810580
     75          1           0        1.896314   -1.936096    2.397470
     76          1           0        3.087837   -3.174373    2.156961
     77          1           0        0.526363   -3.377433    2.808550
     78          1           0        1.634017   -4.750564    2.416358
     79          1           0        0.125351    3.434236   -1.371222
     80          1           0        0.255965    5.141213   -1.234711
     81          1           0        0.032263    4.152227    0.246878
     82          1           0        1.153167    6.453663    0.545359
     83          1           0        1.247671    7.106009   -1.107907
     84          1           0        1.809679    8.119350    0.382573
     85          1           0        8.096596    5.036931    1.180070
     86          1           0        9.949478    3.254238   -0.181793
     87          1           0        8.809553    6.449434   -0.370690
     88          1           0        7.991594    5.626890   -1.622819
     89          1           0        9.667243    5.221985   -1.235715
     90          1           0        9.480034    1.870158    2.128903
     91          1           0        9.111613    3.615828    2.528428
     92          1           0       11.651958    3.686988    1.186821
     93          1           0       11.596665    2.210270    2.173357
     94          1           0       11.379988    3.748210    2.910110
     95          1           0       10.040094   -2.401969    0.926495
     96          1           0       10.358923   -1.454124   -0.497594
     97          1           0        9.922979   -3.080717   -0.819978
     98          1           0        4.901536   -4.113313    1.089007
     99          1           0        3.837937   -6.840468   -2.221987
    100          1           0        2.433810   -6.673463   -1.190820
    101          1           0        3.676382   -7.852923   -0.805674
    102          1           0       -2.080632   -4.992652   -0.255557
    103          1           0       -1.351251   -3.707031   -1.291445
    104          1           0       -2.865912   -2.276097    0.688750
    105          1           0       -4.687853   -3.282673   -2.822720
    106          1           0       -5.320587   -4.486028   -1.589430
    107          1           0       -3.675401   -4.573897   -2.084107
    108          1           0       -5.393702   -1.449932   -1.526778
    109          1           0       -4.568826   -1.072183   -0.044898
    110          1           0       -5.998553   -3.257578    0.749187
    111          1           0       -7.067828   -2.587339   -0.468975
    112          1           0       -6.233577   -0.578286    1.630519
    113          1           0       -7.189151   -2.012043    2.163502
    114          1           0       -8.110977   -0.406907   -0.252628
    115          1           0       -7.672456    1.630549    0.918130
    116          1           0       -7.922456    0.805905    2.538967
    117          1           0       -9.280537    1.281006    1.422596
    118          1           0       -9.800729   -1.254977    2.065231
    119          1           0       -9.158839   -2.430739    0.929441
    120          1           0      -10.230197   -1.473309   -0.908933
    121          1           0      -10.343796    0.047729   -0.134560
    122          1           0      -11.935259   -2.039573    1.388301
    123          1           0      -12.409185   -2.016679   -0.225228
    124          1           0      -12.168437    0.746063    0.413091
    125          1           0      -11.891443    0.029218    2.851859
    126          1           0      -13.583397   -0.513401    2.683625
    127          1           0      -13.081570    1.177102    2.551651
    128          1           0      -14.873412   -0.067558    1.033928
    129          1           0      -14.623292   -1.036914   -0.328511
    130          1           0      -14.857777    0.640539   -1.833509
    131          1           0      -13.515941    1.604051   -1.024701
    132          1           0      -15.764068    1.805346    0.495395
    133          1           0      -16.276483    2.041131   -1.223249
    134          1           0      -14.114867    3.739033    0.220096
    135          1           0      -16.062526    5.261804   -0.942420
    136          1           0      -15.876095    5.037566    0.726223
    137          1           0      -16.974781    4.018080   -0.042115
    138          1           0      -13.339955    3.338268   -2.187225
    139          1           0      -14.159598    4.920910   -2.181014
    140          1           0      -14.962771    3.387755   -2.717980
 ---------------------------------------------------------------------

 SCF Done:  E(RwB97XD) =  -3007.88351860     A.U. after   17 cycles

 Excitation energies and oscillator strengths:

 Excited State   1:      Singlet-A      1.8376 eV  674.71 nm  f=0.3604  <S**2>=0.000
     245 -> 248       -0.17702
     246 -> 247        0.68156
     245 <- 248       -0.10277
 This state for optimization and/or second-order correction.
 Total Energy, E(TD-HF/TD-DFT) =  -3007.81598854
 Copying the excited state density for this state as the 1-particle RhoCI density.

 Excited State   2:      Singlet-A      2.2655 eV  547.27 nm  f=0.0743  <S**2>=0.000
     245 -> 247        0.61631
     246 -> 248        0.32570

 Excited State   3:      Singlet-A      3.4838 eV  355.89 nm  f=0.6998  <S**2>=0.000
     239 -> 247       -0.10932
     242 -> 247       -0.15082
     245 -> 247       -0.30077
     246 -> 248        0.58658
     245 <- 247        0.10377

 Excited State   4:      Singlet-A      3.5853 eV  345.81 nm  f=0.0602  <S**2>=0.000
     240 -> 247        0.46761
     240 -> 248       -0.14664
     240 -> 249        0.35996
     240 -> 250        0.15973
     242 -> 247       -0.13808
     246 -> 248       -0.13989

 Excited State   5:      Singlet-A      3.6667 eV  338.13 nm  f=0.0012  <S**2>=0.000
     243 -> 247        0.47969
     243 -> 249       -0.31777
     243 -> 250        0.34749

 The electronic state is 1-A.
 Alpha  occ. eigenvalues --  -46.93933 -19.31355 -19.28272 -19.25296 -19.24305
 Alpha  occ. eigenvalues --  -19.24157 -19.22139 -14.46354 -14.46330 -14.44798
 Alpha  occ. eigenvalues --  -14.42858 -10.43841 -10.42117 -10.39638 -10.37361
 Alpha  occ. eigenvalues --  -10.36599 -10.35692 -10.35638 -10.35425 -10.35084
 Alpha  occ. eigenvalues --  -10.34508 -10.34032 -10.33867 -10.33666 -10.33201
 Alpha  occ. eigenvalues --  -10.32410 -10.32011 -10.32008 -10.31983 -10.31799
 Alpha  occ. eigenvalues --  -10.31538 -10.31449 -10.31387 -10.31150 -10.31111
 Alpha  occ. eigenvalues --  -10.31062 -10.30813 -10.30672 -10.30554 -10.30415
 Alpha  occ. eigenvalues --  -10.30227 -10.30165 -10.30088 -10.30079 -10.30059
 Alpha  occ. eigenvalues --  -10.29957 -10.29912 -10.29871 -10.29733 -10.29707
 Alpha  occ. eigenvalues --  -10.29668 -10.29637 -10.29465 -10.29462 -10.29303
 Alpha  occ. eigenvalues --  -10.29136 -10.28876 -10.28650 -10.28635 -10.28429
 Alpha  occ. eigenvalues --  -10.28288 -10.28281 -10.28268 -10.28184 -10.27697
 Alpha  occ. eigenvalues --  -10.27212  -3.20208  -1.93792  -1.93361  -1.93188
 Alpha  occ. eigenvalues --   -1.19711  -1.17888  -1.12499  -1.10693  -1.10111
 Alpha  occ. eigenvalues --   -1.09504  -1.07346  -1.06460  -1.05675  -1.04284
 Alpha  occ. eigenvalues --   -0.93769  -0.93145  -0.91907  -0.91794  -0.91433
 Alpha  occ. eigenvalues --   -0.91132  -0.90897  -0.89669  -0.89339  -0.88631
 Alpha  occ. eigenvalues --   -0.87742  -0.87322  -0.86124  -0.85633  -0.85220
 Alpha  occ. eigenvalues --   -0.84717  -0.84188  -0.83392  -0.82984  -0.82105
 Alpha  occ. eigenvalues --   -0.81918  -0.81238  -0.79659  -0.79504  -0.78450
 Alpha  occ. eigenvalues --   -0.77397  -0.77161  -0.76791  -0.76695  -0.76113
 Alpha  occ. eigenvalues --   -0.75577  -0.73834  -0.73310  -0.72529  -0.70971
 Alpha  occ. eigenvalues --   -0.70443  -0.70101  -0.69540  -0.68620  -0.67821
 Alpha  occ. eigenvalues --   -0.67431  -0.67287  -0.66639  -0.66207  -0.66028
 Alpha  occ. eigenvalues --   -0.65906  -0.65081  -0.64406  -0.63384  -0.62726
 Alpha  occ. eigenvalues --   -0.61680  -0.61576  -0.61282  -0.60562  -0.59348
 Alpha  occ. eigenvalues --   -0.59280  -0.58698  -0.58439  -0.57805  -0.57401
 Alpha  occ. eigenvalues --   -0.57045  -0.56677  -0.56428  -0.56215  -0.56030
 Alpha  occ. eigenvalues --   -0.55816  -0.55600  -0.55324  -0.55188  -0.55064
 Alpha  occ. eigenvalues --   -0.54951  -0.54755  -0.54516  -0.54297  -0.54150
 Alpha  occ. eigenvalues --   -0.53826  -0.53710  -0.53557  -0.53043  -0.52862
 Alpha  occ. eigenvalues --   -0.52688  -0.52647  -0.52124  -0.51981  -0.51677
 Alpha  occ. eigenvalues --   -0.51491  -0.51146  -0.51033  -0.50963  -0.50731
 Alpha  occ. eigenvalues --   -0.50460  -0.49894  -0.49879  -0.49798  -0.49658
 Alpha  occ. eigenvalues --   -0.49503  -0.49329  -0.49092  -0.49069  -0.48795
 Alpha  occ. eigenvalues --   -0.48541  -0.48306  -0.48038  -0.47704  -0.47382
 Alpha  occ. eigenvalues --   -0.47220  -0.47180  -0.46936  -0.46716  -0.46597
 Alpha  occ. eigenvalues --   -0.46520  -0.46084  -0.45891  -0.45882  -0.45679
 Alpha  occ. eigenvalues --   -0.45430  -0.45366  -0.45212  -0.44966  -0.44898
 Alpha  occ. eigenvalues --   -0.44576  -0.44304  -0.44262  -0.44043  -0.43956
 Alpha  occ. eigenvalues --   -0.43945  -0.43669  -0.43403  -0.43259  -0.43039
 Alpha  occ. eigenvalues --   -0.42831  -0.42543  -0.42411  -0.42258  -0.42214
 Alpha  occ. eigenvalues --   -0.41783  -0.41654  -0.41518  -0.41139  -0.40836
 Alpha  occ. eigenvalues --   -0.40459  -0.40392  -0.40059  -0.39575  -0.39536
 Alpha  occ. eigenvalues --   -0.39482  -0.39067  -0.38927  -0.38627  -0.38513
 Alpha  occ. eigenvalues --   -0.38375  -0.37811  -0.37287  -0.36605  -0.36382
 Alpha  occ. eigenvalues --   -0.35776  -0.35097  -0.35048  -0.34392  -0.33246
 Alpha  occ. eigenvalues --   -0.32536  -0.32473  -0.31380  -0.30973  -0.25790
 Alpha  occ. eigenvalues --   -0.22605
 Alpha virt. eigenvalues --   -0.06033   0.00296   0.02247   0.04499   0.06279
 Alpha virt. eigenvalues --    0.07163   0.07740   0.07831   0.08939   0.09188
 Alpha virt. eigenvalues --    0.10781   0.11465   0.11900   0.12029   0.12364

 Mulliken charges:
               1
     1  Mg   1.010286
     2  C    0.012677
     3  C   -0.097531
     4  C   -0.104694
     5  C   -0.094930
     6  N   -0.244097
     7  C   -0.030467
     8  C   -0.093494
     9  C   -0.061115
    10  C   -0.004788
    11  C    0.018310
    12  C    0.003889
    13  C    0.043609
    14  C    0.181164
    15  O   -0.259732
    16  O   -0.362154
    17  N   -0.430345
    18  C    0.179167
    19  C   -0.153233
    20  C   -0.094115
    21  C    0.167497
    22  C    0.060867
    23  C    0.044577
    24  O   -0.243029
    25  C    0.009980
    26  N   -0.461008
    27  C    0.082497
    28  C   -0.067442
    29  C   -0.068660
    30  C    0.081713
    31  C    0.023785
    32  C   -0.003710
    33  C   -0.066871
    34  N   -0.467289
    35  C    0.137126
    36  C   -0.226127
    37  C    0.030622
    38  C    0.113948
    39  C    0.089926
    40  C    0.085093
    41  O   -0.225622
    42  C   -0.136538
    43  C    0.284244
    44  O   -0.214380
    45  O   -0.356811
    46  C    0.136602
    47  C    0.234816
    48  C   -0.136530
    49  C   -0.260600
    50  C    0.055197
    51  C    0.047166
    52  C   -0.034588
    53  C    0.056669
    54  C   -0.204522
    55  C    0.009145
    56  C   -0.020795
    57  C   -0.039330
    58  C    0.036417
    59  C   -0.166742
    60  C   -0.006458
    61  C    0.019694
    62  C   -0.024952
    63  C   -0.006369
    64  C   -0.227946
    65  C   -0.006220
    66  C   -0.013677
    67  H   -0.012581
    68  H    0.014729
    69  H   -0.001025
    70  H    0.062627
    71  H    0.026416
    72  H    0.043427
    73  H    0.042020
    74  H    0.039148
    75  H    0.017031
    76  H    0.044062
    77  H    0.046673
    78  H    0.059252
    79  H    0.051055
    80  H    0.040088
    81  H    0.073258
    82  H    0.040518
    83  H    0.072139
    84  H    0.071125
    85  H    0.045361
    86  H    0.028969
    87  H    0.033762
    88  H    0.046406
    89  H    0.037290
    90  H    0.050303
    91  H    0.030955
    92  H    0.037397
    93  H    0.034341
    94  H    0.033644
    95  H    0.057219
    96  H    0.010560
    97  H    0.055054
    98  H    0.083824
    99  H    0.039723
   100  H    0.058997
   101  H    0.052196
   102  H    0.080524
   103  H    0.048525
   104  H    0.024444
   105  H    0.047132
   106  H    0.049656
   107  H    0.024591
   108  H    0.018648
   109  H    0.007835
   110  H    0.030326
   111  H    0.022736
   112  H    0.009080
   113  H    0.028910
   114  H    0.014953
   115  H    0.035931
   116  H    0.042322
   117  H    0.024734
   118  H    0.011620
   119  H    0.015946
   120  H    0.017839
   121  H    0.008180
   122  H    0.013376
   123  H    0.011394
   124  H    0.022778
   125  H    0.026648
   126  H    0.029071
   127  H    0.021485
   128  H    0.005023
   129  H    0.027161
   130  H    0.020288
   131  H    0.029182
   132  H    0.021302
   133  H    0.021981
   134  H    0.026848
   135  H    0.014027
   136  H    0.018110
   137  H    0.024573
   138  H    0.029154
   139  H    0.044596
   140  H    0.023343
 Sum of Mulliken charges =  -0.00000

 Dipole moment (field-independent basis, Debye):
    X=             -6.2626    Y=              5.1774    Z=              1.8137  Tot=              8.3256
 Quadrupole moment (field-independent basis, Debye-Ang):
   XX=           -397.8951   YY=           -431.2092   ZZ=           -399.2889
   XY=             41.4539   XZ=             16.3997   YZ=             -2.9799

 Normal termination of Gaussian 16 at Wed May  4 06:11:05 2022.
