 Gaussian 16, Revision A.03,
 Gaussian 16:  ES64L-G16RevA.03 25-Dec-2016

 --------------------
 #p ZINDO=(nstates=5)
 --------------------

 ------------------------------
 step_1401_chromophore_21 ZINDO
 ------------------------------
 Symbolic Z-matrix:
 Charge =  0 Multiplicity = 1

                         Standard orientation:
 ---------------------------------------------------------------------
 Center     Atomic      Atomic             Coordinates (Angstroms)
 Number     Number       Type             X           Y           Z
 ---------------------------------------------------------------------
      1         12           0        5.379436    1.235507   -0.259126
      2          6           0        4.851697   -2.285200   -0.027727
      3          6           0        1.906248    1.469217   -0.316025
      4          6           0        5.588469    4.504959   -0.125716
      5          6           0        8.725532    0.759067   -0.118683
      6          7           0        3.571895   -0.277656   -0.113997
      7          6           0        3.642794   -1.609159    0.110913
      8          6           0        2.197421   -2.235994    0.305506
      9          6           0        1.314338   -1.036665    0.006974
     10          6           0        2.348969    0.127313   -0.124194
     11          6           0        0.272130   -1.188044   -1.210785
     12          6           0        2.152886   -2.781173    1.757721
     13          6           0        1.078078   -3.898811    2.026146
     14          6           0        0.128980   -4.398916    0.932001
     15          8           0        0.191297   -5.514658    0.432276
     16          8           0       -0.773325   -3.444579    0.573805
     17          7           0        3.966552    2.776016   -0.467455
     18          6           0        2.609072    2.666688   -0.459892
     19          6           0        1.980533    4.030940   -0.616251
     20          6           0        3.028104    4.940091   -0.404721
     21          6           0        4.281485    4.091957   -0.423835
     22          6           0        0.522451    4.216296   -0.724278
     23          6           0        2.947915    6.456719   -0.187831
     24          8           0        3.921794    7.199610   -0.034144
     25          6           0        1.674988    7.154371   -0.106243
     26          7           0        6.866807    2.469496   -0.036546
     27          6           0        6.799314    3.799067    0.022095
     28          6           0        8.214058    4.467960    0.257408
     29          6           0        9.064051    3.156093    0.445436
     30          6           0        8.214942    2.091750    0.061042
     31          6           0        8.694296    5.457125   -0.806587
     32          6           0        9.627854    2.918391    1.868375
     33          6           0       11.139025    3.186112    2.008155
     34          7           0        6.582985   -0.397460   -0.121445
     35          6           0        7.958595   -0.433749   -0.126215
     36          6           0        8.362501   -1.807737   -0.200183
     37          6           0        7.211521   -2.586901   -0.162452
     38          6           0        6.156848   -1.695475   -0.172092
     39          6           0        9.745583   -2.269070   -0.114475
     40          6           0        6.682875   -3.900736   -0.096430
     41          8           0        7.194488   -5.026342   -0.188610
     42          6           0        5.141786   -3.767870    0.084246
     43          6           0        4.456111   -4.601371   -1.021702
     44          8           0        3.965659   -4.199898   -2.026003
     45          8           0        4.329675   -5.860082   -0.506594
     46          6           0        3.510011   -6.843509   -1.181696
     47          6           0       -1.811624   -3.939339   -0.331449
     48          6           0       -3.013627   -3.014322   -0.099614
     49          6           0       -4.125814   -2.924890   -0.832856
     50          6           0       -4.489106   -3.865680   -1.924078
     51          6           0       -5.155484   -1.845163   -0.540095
     52          6           0       -6.344529   -2.324942    0.303645
     53          6           0       -6.968996   -1.330032    1.341595
     54          6           0       -8.127712   -0.513699    0.831854
     55          6           0       -8.255170    0.921909    1.507441
     56          6           0       -9.411329   -1.378305    1.053900
     57          6           0      -10.495058   -1.017384    0.044456
     58          6           0      -11.943821   -1.375668    0.524522
     59          6           0      -12.765035   -0.073030    0.816813
     60          6           0      -12.816417    0.153000    2.290098
     61          6           0      -14.235087   -0.140731    0.154632
     62          6           0      -14.436727    1.032976   -0.908441
     63          6           0      -15.447186    2.060908   -0.515619
     64          6           0      -14.841027    3.494845   -0.555561
     65          6           0      -15.994602    4.469194   -0.196375
     66          6           0      -14.283244    3.852478   -2.003801
     67          1           0        0.815167    1.477497   -0.361734
     68          1           0        5.670827    5.576660    0.066771
     69          1           0        9.809230    0.674707   -0.017735
     70          1           0        1.941544   -3.058647   -0.361962
     71          1           0        0.735233   -0.859452    0.912965
     72          1           0        0.305469   -2.178328   -1.664910
     73          1           0        0.478924   -0.464414   -1.998409
     74          1           0       -0.734104   -1.062906   -0.810580
     75          1           0        1.896314   -1.936096    2.397470
     76          1           0        3.087837   -3.174373    2.156961
     77          1           0        0.526363   -3.377433    2.808550
     78          1           0        1.634017   -4.750564    2.416358
     79          1           0        0.125351    3.434236   -1.371222
     80          1           0        0.255965    5.141213   -1.234711
     81          1           0        0.032263    4.152227    0.246878
     82          1           0        1.153167    6.453663    0.545359
     83          1           0        1.247671    7.106009   -1.107907
     84          1           0        1.809679    8.119350    0.382573
     85          1           0        8.096596    5.036931    1.180070
     86          1           0        9.949478    3.254238   -0.181793
     87          1           0        8.809553    6.449434   -0.370690
     88          1           0        7.991594    5.626890   -1.622819
     89          1           0        9.667243    5.221985   -1.235715
     90          1           0        9.480034    1.870158    2.128903
     91          1           0        9.111613    3.615828    2.528428
     92          1           0       11.651958    3.686988    1.186821
     93          1           0       11.596665    2.210270    2.173357
     94          1           0       11.379988    3.748210    2.910110
     95          1           0       10.040094   -2.401969    0.926495
     96          1           0       10.358923   -1.454124   -0.497594
     97          1           0        9.922979   -3.080717   -0.819978
     98          1           0        4.901536   -4.113313    1.089007
     99          1           0        3.837937   -6.840468   -2.221987
    100          1           0        2.433810   -6.673463   -1.190820
    101          1           0        3.676382   -7.852923   -0.805674
    102          1           0       -2.080632   -4.992652   -0.255557
    103          1           0       -1.351251   -3.707031   -1.291445
    104          1           0       -2.865912   -2.276097    0.688750
    105          1           0       -4.687853   -3.282673   -2.822720
    106          1           0       -5.320587   -4.486028   -1.589430
    107          1           0       -3.675401   -4.573897   -2.084107
    108          1           0       -5.393702   -1.449932   -1.526778
    109          1           0       -4.568826   -1.072183   -0.044898
    110          1           0       -5.998553   -3.257578    0.749187
    111          1           0       -7.067828   -2.587339   -0.468975
    112          1           0       -6.233577   -0.578286    1.630519
    113          1           0       -7.189151   -2.012043    2.163502
    114          1           0       -8.110977   -0.406907   -0.252628
    115          1           0       -7.672456    1.630549    0.918130
    116          1           0       -7.922456    0.805905    2.538967
    117          1           0       -9.280537    1.281006    1.422596
    118          1           0       -9.800729   -1.254977    2.065231
    119          1           0       -9.158839   -2.430739    0.929441
    120          1           0      -10.230197   -1.473309   -0.908933
    121          1           0      -10.343796    0.047729   -0.134560
    122          1           0      -11.935259   -2.039573    1.388301
    123          1           0      -12.409185   -2.016679   -0.225228
    124          1           0      -12.168437    0.746063    0.413091
    125          1           0      -11.891443    0.029218    2.851859
    126          1           0      -13.583397   -0.513401    2.683625
    127          1           0      -13.081570    1.177102    2.551651
    128          1           0      -14.873412   -0.067558    1.033928
    129          1           0      -14.623292   -1.036914   -0.328511
    130          1           0      -14.857777    0.640539   -1.833509
    131          1           0      -13.515941    1.604051   -1.024701
    132          1           0      -15.764068    1.805346    0.495395
    133          1           0      -16.276483    2.041131   -1.223249
    134          1           0      -14.114867    3.739033    0.220096
    135          1           0      -16.062526    5.261804   -0.942420
    136          1           0      -15.876095    5.037566    0.726223
    137          1           0      -16.974781    4.018080   -0.042115
    138          1           0      -13.339955    3.338268   -2.187225
    139          1           0      -14.159598    4.920910   -2.181014
    140          1           0      -14.962771    3.387755   -2.717980
 ---------------------------------------------------------------------

 SCF Done:  E(RZINDO/S) =  -474.567169892     A.U. after   17 cycles

 Excitation energies and oscillator strengths:

 Excited State   1:      Singlet-A      1.4424 eV  859.56 nm  f=0.4868  <S**2>=0.000
     175 ->178         0.14573
     176 ->177         0.67476
 This state for optimization and/or second-order correction.
 Total Energy, E(CIS/TDA) =  -474.514161953
 Copying the excited state density for this state as the 1-particle RhoCI density.

 Excited State   2:      Singlet-A      1.9722 eV  628.67 nm  f=0.0076  <S**2>=0.000
     175 ->177         0.49415
     176 ->178        -0.46687

 Excited State   3:      Singlet-A      2.8453 eV  435.75 nm  f=0.0002  <S**2>=0.000
     167 ->179         0.11716
     168 ->177        -0.28422
     168 ->178         0.14097
     168 ->179         0.42059
     168 ->180        -0.17213
     168 ->184        -0.10193
     168 ->185         0.22131
     169 ->177         0.13818
     169 ->179        -0.16673

 Excited State   4:      Singlet-A      2.9475 eV  420.64 nm  f=0.8131  <S**2>=0.000
     175 ->177         0.39151
     176 ->178         0.41387
     176 ->179        -0.27877
     176 ->180        -0.21018

 Excited State   5:      Singlet-A      3.0414 eV  407.66 nm  f=0.3974  <S**2>=0.000
     175 ->177         0.20674
     176 ->178         0.28349
     176 ->179         0.50438
     176 ->180         0.22777

 The electronic state is 1-A.
 Alpha  occ. eigenvalues --   -1.84408  -1.82603  -1.81276  -1.74773  -1.71977
 Alpha  occ. eigenvalues --   -1.71087  -1.65891  -1.61874  -1.61597  -1.57237
 Alpha  occ. eigenvalues --   -1.56705  -1.51892  -1.49090  -1.48285  -1.47716
 Alpha  occ. eigenvalues --   -1.45842  -1.43162  -1.41779  -1.38565  -1.38182
 Alpha  occ. eigenvalues --   -1.35744  -1.33559  -1.32963  -1.32150  -1.29212
 Alpha  occ. eigenvalues --   -1.27597  -1.24853  -1.23133  -1.20174  -1.18330
 Alpha  occ. eigenvalues --   -1.16764  -1.16441  -1.15882  -1.15072  -1.13594
 Alpha  occ. eigenvalues --   -1.13212  -1.12062  -1.09906  -1.04227  -1.03798
 Alpha  occ. eigenvalues --   -1.02960  -1.00494  -0.98493  -0.96875  -0.96221
 Alpha  occ. eigenvalues --   -0.95100  -0.94774  -0.94276  -0.93630  -0.92106
 Alpha  occ. eigenvalues --   -0.91627  -0.90618  -0.88967  -0.88601  -0.86823
 Alpha  occ. eigenvalues --   -0.86562  -0.84826  -0.83496  -0.82171  -0.80102
 Alpha  occ. eigenvalues --   -0.79515  -0.78571  -0.77579  -0.76628  -0.76513
 Alpha  occ. eigenvalues --   -0.75734  -0.74964  -0.74365  -0.73773  -0.73296
 Alpha  occ. eigenvalues --   -0.72700  -0.72569  -0.71854  -0.71073  -0.70795
 Alpha  occ. eigenvalues --   -0.70590  -0.70131  -0.69234  -0.68870  -0.68385
 Alpha  occ. eigenvalues --   -0.68048  -0.67617  -0.66555  -0.66300  -0.66076
 Alpha  occ. eigenvalues --   -0.65015  -0.64765  -0.64428  -0.63818  -0.63491
 Alpha  occ. eigenvalues --   -0.63378  -0.63153  -0.62970  -0.62507  -0.62427
 Alpha  occ. eigenvalues --   -0.61819  -0.61628  -0.61223  -0.60602  -0.60238
 Alpha  occ. eigenvalues --   -0.59574  -0.59121  -0.58928  -0.58847  -0.57996
 Alpha  occ. eigenvalues --   -0.57773  -0.57099  -0.56815  -0.56627  -0.56136
 Alpha  occ. eigenvalues --   -0.55826  -0.55234  -0.55099  -0.55057  -0.54722
 Alpha  occ. eigenvalues --   -0.54133  -0.54094  -0.52977  -0.52731  -0.52580
 Alpha  occ. eigenvalues --   -0.52387  -0.51896  -0.51510  -0.51390  -0.51209
 Alpha  occ. eigenvalues --   -0.50751  -0.50361  -0.50308  -0.50230  -0.50092
 Alpha  occ. eigenvalues --   -0.49885  -0.49744  -0.49511  -0.49258  -0.48958
 Alpha  occ. eigenvalues --   -0.48911  -0.48748  -0.47955  -0.47701  -0.47419
 Alpha  occ. eigenvalues --   -0.47331  -0.47146  -0.47068  -0.46971  -0.46651
 Alpha  occ. eigenvalues --   -0.46528  -0.46247  -0.45683  -0.45616  -0.45498
 Alpha  occ. eigenvalues --   -0.45301  -0.45039  -0.44687  -0.44603  -0.44181
 Alpha  occ. eigenvalues --   -0.43801  -0.43779  -0.43671  -0.42544  -0.42020
 Alpha  occ. eigenvalues --   -0.41461  -0.40959  -0.40616  -0.38876  -0.38569
 Alpha  occ. eigenvalues --   -0.37598  -0.36954  -0.36034  -0.34980  -0.34395
 Alpha  occ. eigenvalues --   -0.33575  -0.32508  -0.31936  -0.31242  -0.26676
 Alpha  occ. eigenvalues --   -0.21547
 Alpha virt. eigenvalues --   -0.07386  -0.01978  -0.00826   0.01572   0.01918
 Alpha virt. eigenvalues --    0.02936   0.03499   0.04094   0.04828   0.04968
 Alpha virt. eigenvalues --    0.05476   0.06571   0.06886   0.07808   0.08060

 Mulliken charges:
               1
     1  Mg   0.425739
     2  C   -0.022864
     3  C   -0.099453
     4  C   -0.094301
     5  C   -0.083061
     6  N   -0.250785
     7  C    0.067066
     8  C    0.006939
     9  C    0.002753
    10  C    0.180198
    11  C   -0.051775
    12  C   -0.022767
    13  C   -0.009386
    14  C    0.471997
    15  O   -0.516942
    16  O   -0.270223
    17  N   -0.328588
    18  C    0.141970
    19  C    0.040475
    20  C   -0.035981
    21  C    0.168133
    22  C   -0.034012
    23  C    0.332863
    24  O   -0.527681
    25  C   -0.025268
    26  N   -0.266345
    27  C    0.183594
    28  C    0.005068
    29  C    0.015646
    30  C    0.091241
    31  C   -0.046773
    32  C   -0.026995
    33  C   -0.062498
    34  N   -0.322166
    35  C    0.059605
    36  C    0.000729
    37  C   -0.052813
    38  C    0.081168
    39  C   -0.042729
    40  C    0.331194
    41  O   -0.546136
    42  C    0.050185
    43  C    0.494836
    44  O   -0.505127
    45  O   -0.266610
    46  C    0.074516
    47  C    0.102515
    48  C   -0.103060
    49  C   -0.004895
    50  C   -0.041852
    51  C   -0.024861
    52  C   -0.032798
    53  C   -0.026443
    54  C   -0.016795
    55  C   -0.060193
    56  C   -0.037140
    57  C   -0.041622
    58  C   -0.037049
    59  C   -0.005909
    60  C   -0.049914
    61  C   -0.048906
    62  C   -0.049018
    63  C   -0.028096
    64  C   -0.014970
    65  C   -0.069018
    66  C   -0.058565
    67  H    0.017801
    68  H    0.032398
    69  H    0.025502
    70  H    0.047924
    71  H    0.025631
    72  H    0.032524
    73  H    0.024667
    74  H    0.022516
    75  H    0.015897
    76  H    0.030847
    77  H    0.035781
    78  H    0.038871
    79  H    0.026822
    80  H    0.026327
    81  H    0.042280
    82  H    0.028413
    83  H    0.050397
    84  H    0.054261
    85  H    0.034819
    86  H    0.027671
    87  H    0.016561
    88  H    0.025703
    89  H    0.023724
    90  H    0.033459
    91  H    0.020538
    92  H    0.024581
    93  H    0.015506
    94  H    0.013898
    95  H    0.036748
    96  H    0.006947
    97  H    0.035778
    98  H    0.060265
    99  H    0.035988
   100  H    0.046128
   101  H    0.034231
   102  H    0.066934
   103  H    0.046368
   104  H    0.027102
   105  H    0.032506
   106  H    0.032171
   107  H    0.017716
   108  H    0.021288
   109  H    0.013700
   110  H    0.023087
   111  H    0.017648
   112  H    0.013699
   113  H    0.025334
   114  H    0.022747
   115  H    0.018299
   116  H    0.028598
   117  H    0.020845
   118  H    0.018818
   119  H    0.014392
   120  H    0.015642
   121  H    0.018527
   122  H    0.020069
   123  H    0.012851
   124  H    0.024967
   125  H    0.016204
   126  H    0.018050
   127  H    0.007634
   128  H    0.017843
   129  H    0.028245
   130  H    0.020673
   131  H    0.029901
   132  H    0.019946
   133  H    0.022502
   134  H    0.028665
   135  H    0.012763
   136  H    0.009236
   137  H    0.018125
   138  H    0.013503
   139  H    0.025816
   140  H    0.020138
 Sum of Mulliken charges =  -0.00000

 Dipole moment (field-independent basis, Debye):
    X=            -10.0173    Y=              8.6841    Z=              3.4106  Tot=             13.6892
 N-N= 4.288301394503D+03 E-N= 0.000000000000D+00  KE=-9.251208701701D+03
 Leave Link  601 at Wed May  4 06:24:22 2022, MaxMem=  6710886400 cpu:               0.8 elap:               0.0
 (Enter /sw/apps/gaussian-16.0/g16/l9999.exe)
 1\1\GINC-BP1-COMPUTE057\SP\RZINDO CIS\STO-3G\C55H74Mg1N4O6\OF15641\04-
 May-2022\0\\#p ZINDO=(nstates=5)\\step_1401_chromophore_21 ZINDO\\0,1\
 Mg,0,15.613,51.961,25.18\C,0,17.2,50.811,28.161\C,0,13.053,53.023,27.2
 87\C,0,14.117,53.409,22.647\C,0,18.253,50.904,23.348\N,0,15.221,51.966
 ,27.509\C,0,16.077,51.57,28.478\C,0,15.498,51.89,29.921\C,0,14.111,52.
 403,29.574\C,0,14.156,52.486,28.014\C,0,12.863,51.599,30.197\C,0,16.47
 2,52.914,30.562\C,0,16.443,52.98,32.134\C,0,15.503,52.106,32.971\O,0,1

 Normal termination of Gaussian 16 at Wed May  4 06:24:22 2022.
