 Gaussian 16, Revision A.03,
 Gaussian 16:  ES64L-G16RevA.03 25-Dec-2016

 ------------------------------
 #p blyp/Def2SVP td=(nstates=5)
 ------------------------------

 -------------------------------------------------
 step_451_chromophore_5 TDDFT with blyp functional
 -------------------------------------------------
 Symbolic Z-matrix:
 Charge =  0 Multiplicity = 1

                         Standard orientation:
 ---------------------------------------------------------------------
 Center     Atomic      Atomic             Coordinates (Angstroms)
 Number     Number       Type             X           Y           Z
 ---------------------------------------------------------------------
      1         12           0        5.342168    0.480831   -0.283674
      2          6           0        3.872615   -2.688472    0.175612
      3          6           0        3.110468    1.008162   -2.805438
      4          6           0        5.997062    3.777974   -0.083869
      5          6           0        7.259142   -0.241265    2.567103
      6          7           0        3.635394   -0.763751   -1.151604
      7          6           0        3.242011   -1.976754   -0.832822
      8          6           0        2.002876   -2.374281   -1.732603
      9          6           0        2.140992   -1.384582   -2.964084
     10          6           0        3.040157   -0.291006   -2.300429
     11          6           0        2.624747   -1.778185   -4.339286
     12          6           0        0.559411   -2.441582   -0.980129
     13          6           0       -0.275896   -3.583682   -1.317071
     14          6           0       -1.562430   -3.338694   -2.196059
     15          8           0       -1.556207   -3.183823   -3.415932
     16          8           0       -2.559298   -3.028098   -1.349017
     17          7           0        4.801550    2.084699   -1.395434
     18          6           0        3.877479    2.069853   -2.423207
     19          6           0        3.837111    3.342110   -3.126579
     20          6           0        4.579437    4.174170   -2.292347
     21          6           0        5.198742    3.363024   -1.212649
     22          6           0        2.940251    3.682854   -4.363563
     23          6           0        4.739240    5.693437   -2.540720
     24          8           0        4.261019    6.176956   -3.544851
     25          6           0        5.411599    6.612978   -1.486328
     26          7           0        6.435224    1.617407    1.093077
     27          6           0        6.631652    2.999875    0.974282
     28          6           0        7.475739    3.532776    2.190015
     29          6           0        7.881369    2.221904    2.906744
     30          6           0        7.148252    1.076874    2.127411
     31          6           0        8.709738    4.431527    1.772575
     32          6           0        7.585689    2.268255    4.437605
     33          6           0        8.855693    2.231372    5.316207
     34          7           0        5.553867   -1.079537    1.184906
     35          6           0        6.483916   -1.303666    2.184824
     36          6           0        6.317793   -2.581920    2.819446
     37          6           0        5.331555   -3.180310    2.023369
     38          6           0        4.921501   -2.208345    1.040300
     39          6           0        6.989300   -2.964117    4.073214
     40          6           0        4.557926   -4.334226    1.803765
     41          8           0        4.624299   -5.436446    2.333224
     42          6           0        3.526790   -4.033629    0.724576
     43          6           0        3.551578   -5.136538   -0.311075
     44          8           0        2.616439   -5.816019   -0.657323
     45          8           0        4.800470   -5.142990   -1.004018
     46          6           0        4.800415   -5.994512   -2.214456
     47          6           0       -3.681596   -2.214239   -1.967217
     48          6           0       -3.749661   -0.971097   -1.139356
     49          6           0       -4.559493   -0.618474   -0.136246
     50          6           0       -5.608613   -1.420920    0.585027
     51          6           0       -4.386793    0.772887    0.500319
     52          6           0       -5.176553    2.010225   -0.133306
     53          6           0       -5.863195    2.969222    0.853468
     54          6           0       -7.336592    3.051036    0.491524
     55          6           0       -7.960417    4.336761    1.103881
     56          6           0       -8.100214    1.781944    0.965248
     57          6           0       -8.885926    1.032142   -0.157790
     58          6           0       -9.536880   -0.339974    0.224382
     59          6           0      -11.085187   -0.259153    0.029855
     60          6           0      -11.543508   -0.302869   -1.406816
     61          6           0      -11.815268   -1.241018    0.966015
     62          6           0      -12.546100   -0.561259    2.146672
     63          6           0      -14.145497   -0.463724    2.031716
     64          6           0      -14.653308    1.005188    1.793584
     65          6           0      -16.081411    1.263114    2.438093
     66          6           0      -14.512192    1.338772    0.302426
     67          1           0        2.420918    1.139816   -3.642596
     68          1           0        6.302420    4.819113    0.035794
     69          1           0        7.929701   -0.295682    3.427987
     70          1           0        2.263668   -3.402619   -1.981085
     71          1           0        1.154210   -0.959871   -3.146898
     72          1           0        2.041416   -1.353189   -5.155897
     73          1           0        2.398127   -2.836595   -4.471122
     74          1           0        3.693570   -1.636142   -4.498584
     75          1           0        0.001702   -1.510965   -1.088306
     76          1           0        0.838953   -2.511338    0.071858
     77          1           0       -0.546134   -4.183480   -0.446868
     78          1           0        0.344803   -4.297489   -1.858667
     79          1           0        2.673570    4.730090   -4.507838
     80          1           0        1.968979    3.203347   -4.239414
     81          1           0        3.456828    3.263224   -5.226264
     82          1           0        6.493170    6.632509   -1.350906
     83          1           0        4.929299    6.407360   -0.530107
     84          1           0        5.072114    7.629981   -1.680399
     85          1           0        6.790774    4.160088    2.760908
     86          1           0        8.926731    1.926133    2.824433
     87          1           0        8.756360    4.803962    0.749970
     88          1           0        9.657737    3.926073    1.954963
     89          1           0        8.603106    5.400550    2.261378
     90          1           0        6.976828    1.433767    4.784535
     91          1           0        7.036003    3.156104    4.751693
     92          1           0        8.893847    1.223930    5.732322
     93          1           0        8.723471    2.965958    6.109532
     94          1           0        9.657255    2.602674    4.678335
     95          1           0        8.074710   -2.955876    3.971082
     96          1           0        6.813837   -4.007541    4.334956
     97          1           0        6.888707   -2.268612    4.906078
     98          1           0        2.569497   -4.185139    1.223553
     99          1           0        5.734531   -5.630553   -2.641232
    100          1           0        4.010415   -5.732208   -2.918910
    101          1           0        4.788817   -7.017790   -1.840055
    102          1           0       -4.667796   -2.676471   -1.918126
    103          1           0       -3.472208   -1.861277   -2.976672
    104          1           0       -3.110264   -0.169975   -1.510231
    105          1           0       -5.266159   -1.593870    1.605280
    106          1           0       -5.778780   -2.384870    0.104850
    107          1           0       -6.496411   -0.799516    0.465850
    108          1           0       -3.316456    0.978129    0.519832
    109          1           0       -4.748290    0.646695    1.521343
    110          1           0       -5.872650    1.522890   -0.816196
    111          1           0       -4.469821    2.548684   -0.764325
    112          1           0       -5.374358    3.943745    0.848605
    113          1           0       -5.902717    2.662364    1.898615
    114          1           0       -7.470442    3.036994   -0.589167
    115          1           0       -8.411847    4.991149    0.358137
    116          1           0       -7.180305    4.989941    1.497436
    117          1           0       -8.630170    4.111705    1.932539
    118          1           0       -8.864475    2.068682    1.687996
    119          1           0       -7.587006    0.956709    1.459777
    120          1           0       -8.366347    0.836325   -1.095662
    121          1           0       -9.770967    1.647177   -0.320749
    122          1           0       -9.373951   -0.633931    1.261532
    123          1           0       -9.074354   -1.029252   -0.481648
    124          1           0      -11.421741    0.735736    0.323383
    125          1           0      -11.956287    0.671319   -1.671906
    126          1           0      -12.334542   -1.022465   -1.616758
    127          1           0      -10.783371   -0.630102   -2.116440
    128          1           0      -11.091041   -1.939615    1.387092
    129          1           0      -12.418110   -1.862251    0.303425
    130          1           0      -12.115658    0.438441    2.221196
    131          1           0      -12.433319   -1.260468    2.974550
    132          1           0      -14.530597   -0.917722    2.944558
    133          1           0      -14.503519   -1.072514    1.201262
    134          1           0      -14.115509    1.822297    2.274939
    135          1           0      -16.553022    0.332687    2.755749
    136          1           0      -16.773970    1.813000    1.799879
    137          1           0      -16.000756    1.909369    3.311414
    138          1           0      -15.457636    1.518968   -0.208832
    139          1           0      -14.114592    0.529664   -0.310570
    140          1           0      -13.925631    2.244030    0.139746
 ---------------------------------------------------------------------

 SCF Done:  E(RB-LYP) =  -3007.35407209     A.U. after   23 cycles

 Excitation energies and oscillator strengths:

 Excited State   1:      Singlet-A      1.8109 eV  684.67 nm  f=0.1464  <S**2>=0.000
     244 -> 247        0.48651
     245 -> 248       -0.13838
     246 -> 247        0.48990
     246 <- 247       -0.10188
 This state for optimization and/or second-order correction.
 Total Energy, E(TD-HF/TD-DFT) =  -3007.28752398
 Copying the excited state density for this state as the 1-particle RhoCI density.

 Excited State   2:      Singlet-A      1.8292 eV  677.82 nm  f=0.1410  <S**2>=0.000
     244 -> 247        0.47785
     245 -> 247       -0.16432
     245 -> 248        0.14203
     246 -> 247       -0.47934
     246 <- 247        0.10199

 Excited State   3:      Singlet-A      2.0476 eV  605.51 nm  f=0.0387  <S**2>=0.000
     243 -> 247       -0.44902
     244 -> 247        0.13776
     245 -> 247        0.47394
     246 -> 248        0.21329

 Excited State   4:      Singlet-A      2.0721 eV  598.34 nm  f=0.0291  <S**2>=0.000
     243 -> 247        0.54512
     244 -> 247        0.10711
     245 -> 247        0.38148
     246 -> 248        0.19584

 Excited State   5:      Singlet-A      2.4332 eV  509.56 nm  f=0.0010  <S**2>=0.000
     242 -> 247        0.70633

 The electronic state is 1-A.
 Alpha  occ. eigenvalues --  -46.27628 -18.82380 -18.80701 -18.77247 -18.76362
 Alpha  occ. eigenvalues --  -18.76040 -18.74604 -14.03431 -14.03185 -14.01636
 Alpha  occ. eigenvalues --  -14.00886 -10.03608 -10.03583 -10.00446  -9.98316
 Alpha  occ. eigenvalues --   -9.97789  -9.97668  -9.97226  -9.96915  -9.96581
 Alpha  occ. eigenvalues --   -9.96332  -9.96294  -9.95491  -9.95325  -9.94998
 Alpha  occ. eigenvalues --   -9.94698  -9.94287  -9.94234  -9.93866  -9.93824
 Alpha  occ. eigenvalues --   -9.93772  -9.93749  -9.93591  -9.93405  -9.93262
 Alpha  occ. eigenvalues --   -9.93130  -9.93130  -9.92836  -9.92620  -9.92576
 Alpha  occ. eigenvalues --   -9.92570  -9.92548  -9.92542  -9.92454  -9.92383
 Alpha  occ. eigenvalues --   -9.92302  -9.92231  -9.92179  -9.92175  -9.92172
 Alpha  occ. eigenvalues --   -9.91998  -9.91948  -9.91625  -9.91552  -9.91550
 Alpha  occ. eigenvalues --   -9.91518  -9.91389  -9.91349  -9.91293  -9.91149
 Alpha  occ. eigenvalues --   -9.91006  -9.90903  -9.90816  -9.90692  -9.90566
 Alpha  occ. eigenvalues --   -9.90491  -2.92274  -1.72689  -1.72133  -1.72013
 Alpha  occ. eigenvalues --   -0.97455  -0.96448  -0.92393  -0.90619  -0.89216
 Alpha  occ. eigenvalues --   -0.89146  -0.87371  -0.86412  -0.85870  -0.84579
 Alpha  occ. eigenvalues --   -0.75851  -0.73869  -0.73069  -0.72521  -0.72306
 Alpha  occ. eigenvalues --   -0.72109  -0.71857  -0.71222  -0.70836  -0.70544
 Alpha  occ. eigenvalues --   -0.69607  -0.69034  -0.67884  -0.67759  -0.67081
 Alpha  occ. eigenvalues --   -0.66580  -0.65567  -0.65256  -0.64736  -0.64270
 Alpha  occ. eigenvalues --   -0.64227  -0.62551  -0.61992  -0.61639  -0.60926
 Alpha  occ. eigenvalues --   -0.60603  -0.60308  -0.60243  -0.59808  -0.59050
 Alpha  occ. eigenvalues --   -0.58353  -0.57873  -0.57166  -0.55187  -0.54287
 Alpha  occ. eigenvalues --   -0.54114  -0.53598  -0.52694  -0.52521  -0.51722
 Alpha  occ. eigenvalues --   -0.51317  -0.50834  -0.50639  -0.50559  -0.50135
 Alpha  occ. eigenvalues --   -0.49752  -0.49698  -0.49232  -0.48284  -0.46536
 Alpha  occ. eigenvalues --   -0.46153  -0.46040  -0.45533  -0.44869  -0.44524
 Alpha  occ. eigenvalues --   -0.43680  -0.43485  -0.43245  -0.42757  -0.42470
 Alpha  occ. eigenvalues --   -0.41895  -0.41704  -0.41501  -0.41358  -0.40850
 Alpha  occ. eigenvalues --   -0.40747  -0.40720  -0.40519  -0.40371  -0.40315
 Alpha  occ. eigenvalues --   -0.39611  -0.39488  -0.39298  -0.39205  -0.38913
 Alpha  occ. eigenvalues --   -0.38676  -0.38569  -0.38487  -0.38439  -0.38247
 Alpha  occ. eigenvalues --   -0.38208  -0.37999  -0.37683  -0.37452  -0.37276
 Alpha  occ. eigenvalues --   -0.37133  -0.37078  -0.36676  -0.36357  -0.36295
 Alpha  occ. eigenvalues --   -0.36076  -0.35983  -0.35853  -0.35611  -0.35458
 Alpha  occ. eigenvalues --   -0.35297  -0.35195  -0.34864  -0.34806  -0.34656
 Alpha  occ. eigenvalues --   -0.34573  -0.34405  -0.34289  -0.34097  -0.34055
 Alpha  occ. eigenvalues --   -0.33842  -0.33717  -0.33592  -0.33395  -0.33261
 Alpha  occ. eigenvalues --   -0.33204  -0.32805  -0.32743  -0.32582  -0.32493
 Alpha  occ. eigenvalues --   -0.32354  -0.32087  -0.31953  -0.31884  -0.31557
 Alpha  occ. eigenvalues --   -0.31444  -0.31202  -0.30847  -0.30666  -0.30436
 Alpha  occ. eigenvalues --   -0.30186  -0.30011  -0.29919  -0.29633  -0.29618
 Alpha  occ. eigenvalues --   -0.29565  -0.29461  -0.29097  -0.28938  -0.28904
 Alpha  occ. eigenvalues --   -0.28672  -0.28394  -0.28367  -0.28170  -0.28031
 Alpha  occ. eigenvalues --   -0.27799  -0.27402  -0.27042  -0.26799  -0.26724
 Alpha  occ. eigenvalues --   -0.26689  -0.26604  -0.26059  -0.25873  -0.25384
 Alpha  occ. eigenvalues --   -0.24791  -0.24505  -0.24483  -0.24172  -0.23978
 Alpha  occ. eigenvalues --   -0.23526  -0.22604  -0.21881  -0.21755  -0.21245
 Alpha  occ. eigenvalues --   -0.20767  -0.20408  -0.18973  -0.18054  -0.17505
 Alpha  occ. eigenvalues --   -0.15834
 Alpha virt. eigenvalues --   -0.11471  -0.07350  -0.05860  -0.04518  -0.03644
 Alpha virt. eigenvalues --   -0.03207  -0.02672  -0.01706  -0.01195  -0.00201
 Alpha virt. eigenvalues --    0.01376   0.01404   0.01961   0.02087   0.02684

 Mulliken charges:
               1
     1  Mg   0.704715
     2  C    0.063928
     3  C   -0.090825
     4  C   -0.034077
     5  C   -0.104349
     6  N   -0.175325
     7  C   -0.135644
     8  C    0.021190
     9  C    0.006864
    10  C   -0.007073
    11  C    0.151359
    12  C    0.157691
    13  C    0.140946
    14  C    0.072182
    15  O   -0.204967
    16  O   -0.252876
    17  N   -0.302259
    18  C    0.194029
    19  C   -0.140630
    20  C    0.003921
    21  C    0.148000
    22  C    0.179947
    23  C   -0.058918
    24  O   -0.144491
    25  C    0.107314
    26  N   -0.254717
    27  C   -0.025321
    28  C    0.059629
    29  C    0.028519
    30  C    0.026761
    31  C    0.104180
    32  C    0.051907
    33  C    0.061319
    34  N   -0.204198
    35  C    0.152204
    36  C   -0.166070
    37  C    0.128255
    38  C    0.033596
    39  C    0.189917
    40  C   -0.120784
    41  O   -0.134240
    42  C    0.107351
    43  C    0.086992
    44  O   -0.153884
    45  O   -0.326666
    46  C    0.223121
    47  C    0.342534
    48  C   -0.120970
    49  C   -0.180922
    50  C    0.156153
    51  C    0.101464
    52  C    0.089975
    53  C    0.124451
    54  C   -0.070624
    55  C    0.124409
    56  C    0.096672
    57  C    0.015329
    58  C    0.105637
    59  C   -0.125704
    60  C    0.119045
    61  C    0.119598
    62  C    0.083162
    63  C    0.096374
    64  C   -0.079003
    65  C    0.087056
    66  C    0.090180
    67  H   -0.068601
    68  H   -0.082823
    69  H   -0.070038
    70  H   -0.026292
    71  H   -0.028944
    72  H   -0.006247
    73  H   -0.013246
    74  H   -0.007459
    75  H   -0.016255
    76  H   -0.026225
    77  H   -0.014533
    78  H   -0.015671
    79  H    0.014031
    80  H   -0.004944
    81  H    0.003083
    82  H    0.028972
    83  H    0.002273
    84  H   -0.016894
    85  H   -0.004623
    86  H   -0.017382
    87  H   -0.011386
    88  H   -0.001176
    89  H   -0.014730
    90  H   -0.020635
    91  H   -0.027419
    92  H    0.006974
    93  H   -0.015414
    94  H   -0.004492
    95  H   -0.021677
    96  H    0.005588
    97  H   -0.004562
    98  H   -0.005785
    99  H    0.009294
   100  H    0.016146
   101  H    0.029331
   102  H   -0.004950
   103  H    0.003831
   104  H   -0.042596
   105  H    0.017737
   106  H   -0.022821
   107  H    0.018298
   108  H   -0.020244
   109  H   -0.040195
   110  H   -0.021572
   111  H   -0.024686
   112  H   -0.032972
   113  H   -0.025046
   114  H   -0.028608
   115  H   -0.014501
   116  H   -0.033330
   117  H   -0.013984
   118  H   -0.043349
   119  H   -0.036127
   120  H   -0.018873
   121  H   -0.032151
   122  H   -0.031395
   123  H   -0.027021
   124  H   -0.032324
   125  H   -0.009102
   126  H   -0.023250
   127  H   -0.028845
   128  H   -0.045056
   129  H   -0.049903
   130  H   -0.011154
   131  H   -0.029438
   132  H   -0.032801
   133  H   -0.025751
   134  H   -0.031273
   135  H   -0.014146
   136  H   -0.024263
   137  H   -0.018806
   138  H   -0.029536
   139  H   -0.019623
   140  H   -0.011749
 Sum of Mulliken charges =  -0.00000

 Dipole moment (field-independent basis, Debye):
    X=              0.8489    Y=              4.8245    Z=              2.0704  Tot=              5.3182
 Quadrupole moment (field-independent basis, Debye-Ang):
   XX=           -352.8002   YY=           -445.7140   ZZ=           -407.4012
   XY=             14.7446   XZ=              6.8786   YZ=             29.0632

 Normal termination of Gaussian 16 at Wed May  4 23:51:24 2022.
