 Gaussian 16, Revision A.03,
 Gaussian 16:  ES64L-G16RevA.03 25-Dec-2016

 -----------------------------------
 #p cam-b3lyp/Def2SVP td=(nstates=5)
 -----------------------------------

 ------------------------------------------------------
 step_451_chromophore_5 TDDFT with cam-b3lyp functional
 ------------------------------------------------------
 Symbolic Z-matrix:
 Charge =  0 Multiplicity = 1

                         Standard orientation:
 ---------------------------------------------------------------------
 Center     Atomic      Atomic             Coordinates (Angstroms)
 Number     Number       Type             X           Y           Z
 ---------------------------------------------------------------------
      1         12           0        5.342168    0.480831   -0.283674
      2          6           0        3.872615   -2.688472    0.175612
      3          6           0        3.110468    1.008162   -2.805438
      4          6           0        5.997062    3.777974   -0.083869
      5          6           0        7.259142   -0.241265    2.567103
      6          7           0        3.635394   -0.763751   -1.151604
      7          6           0        3.242011   -1.976754   -0.832822
      8          6           0        2.002876   -2.374281   -1.732603
      9          6           0        2.140992   -1.384582   -2.964084
     10          6           0        3.040157   -0.291006   -2.300429
     11          6           0        2.624747   -1.778185   -4.339286
     12          6           0        0.559411   -2.441582   -0.980129
     13          6           0       -0.275896   -3.583682   -1.317071
     14          6           0       -1.562430   -3.338694   -2.196059
     15          8           0       -1.556207   -3.183823   -3.415932
     16          8           0       -2.559298   -3.028098   -1.349017
     17          7           0        4.801550    2.084699   -1.395434
     18          6           0        3.877479    2.069853   -2.423207
     19          6           0        3.837111    3.342110   -3.126579
     20          6           0        4.579437    4.174170   -2.292347
     21          6           0        5.198742    3.363024   -1.212649
     22          6           0        2.940251    3.682854   -4.363563
     23          6           0        4.739240    5.693437   -2.540720
     24          8           0        4.261019    6.176956   -3.544851
     25          6           0        5.411599    6.612978   -1.486328
     26          7           0        6.435224    1.617407    1.093077
     27          6           0        6.631652    2.999875    0.974282
     28          6           0        7.475739    3.532776    2.190015
     29          6           0        7.881369    2.221904    2.906744
     30          6           0        7.148252    1.076874    2.127411
     31          6           0        8.709738    4.431527    1.772575
     32          6           0        7.585689    2.268255    4.437605
     33          6           0        8.855693    2.231372    5.316207
     34          7           0        5.553867   -1.079537    1.184906
     35          6           0        6.483916   -1.303666    2.184824
     36          6           0        6.317793   -2.581920    2.819446
     37          6           0        5.331555   -3.180310    2.023369
     38          6           0        4.921501   -2.208345    1.040300
     39          6           0        6.989300   -2.964117    4.073214
     40          6           0        4.557926   -4.334226    1.803765
     41          8           0        4.624299   -5.436446    2.333224
     42          6           0        3.526790   -4.033629    0.724576
     43          6           0        3.551578   -5.136538   -0.311075
     44          8           0        2.616439   -5.816019   -0.657323
     45          8           0        4.800470   -5.142990   -1.004018
     46          6           0        4.800415   -5.994512   -2.214456
     47          6           0       -3.681596   -2.214239   -1.967217
     48          6           0       -3.749661   -0.971097   -1.139356
     49          6           0       -4.559493   -0.618474   -0.136246
     50          6           0       -5.608613   -1.420920    0.585027
     51          6           0       -4.386793    0.772887    0.500319
     52          6           0       -5.176553    2.010225   -0.133306
     53          6           0       -5.863195    2.969222    0.853468
     54          6           0       -7.336592    3.051036    0.491524
     55          6           0       -7.960417    4.336761    1.103881
     56          6           0       -8.100214    1.781944    0.965248
     57          6           0       -8.885926    1.032142   -0.157790
     58          6           0       -9.536880   -0.339974    0.224382
     59          6           0      -11.085187   -0.259153    0.029855
     60          6           0      -11.543508   -0.302869   -1.406816
     61          6           0      -11.815268   -1.241018    0.966015
     62          6           0      -12.546100   -0.561259    2.146672
     63          6           0      -14.145497   -0.463724    2.031716
     64          6           0      -14.653308    1.005188    1.793584
     65          6           0      -16.081411    1.263114    2.438093
     66          6           0      -14.512192    1.338772    0.302426
     67          1           0        2.420918    1.139816   -3.642596
     68          1           0        6.302420    4.819113    0.035794
     69          1           0        7.929701   -0.295682    3.427987
     70          1           0        2.263668   -3.402619   -1.981085
     71          1           0        1.154210   -0.959871   -3.146898
     72          1           0        2.041416   -1.353189   -5.155897
     73          1           0        2.398127   -2.836595   -4.471122
     74          1           0        3.693570   -1.636142   -4.498584
     75          1           0        0.001702   -1.510965   -1.088306
     76          1           0        0.838953   -2.511338    0.071858
     77          1           0       -0.546134   -4.183480   -0.446868
     78          1           0        0.344803   -4.297489   -1.858667
     79          1           0        2.673570    4.730090   -4.507838
     80          1           0        1.968979    3.203347   -4.239414
     81          1           0        3.456828    3.263224   -5.226264
     82          1           0        6.493170    6.632509   -1.350906
     83          1           0        4.929299    6.407360   -0.530107
     84          1           0        5.072114    7.629981   -1.680399
     85          1           0        6.790774    4.160088    2.760908
     86          1           0        8.926731    1.926133    2.824433
     87          1           0        8.756360    4.803962    0.749970
     88          1           0        9.657737    3.926073    1.954963
     89          1           0        8.603106    5.400550    2.261378
     90          1           0        6.976828    1.433767    4.784535
     91          1           0        7.036003    3.156104    4.751693
     92          1           0        8.893847    1.223930    5.732322
     93          1           0        8.723471    2.965958    6.109532
     94          1           0        9.657255    2.602674    4.678335
     95          1           0        8.074710   -2.955876    3.971082
     96          1           0        6.813837   -4.007541    4.334956
     97          1           0        6.888707   -2.268612    4.906078
     98          1           0        2.569497   -4.185139    1.223553
     99          1           0        5.734531   -5.630553   -2.641232
    100          1           0        4.010415   -5.732208   -2.918910
    101          1           0        4.788817   -7.017790   -1.840055
    102          1           0       -4.667796   -2.676471   -1.918126
    103          1           0       -3.472208   -1.861277   -2.976672
    104          1           0       -3.110264   -0.169975   -1.510231
    105          1           0       -5.266159   -1.593870    1.605280
    106          1           0       -5.778780   -2.384870    0.104850
    107          1           0       -6.496411   -0.799516    0.465850
    108          1           0       -3.316456    0.978129    0.519832
    109          1           0       -4.748290    0.646695    1.521343
    110          1           0       -5.872650    1.522890   -0.816196
    111          1           0       -4.469821    2.548684   -0.764325
    112          1           0       -5.374358    3.943745    0.848605
    113          1           0       -5.902717    2.662364    1.898615
    114          1           0       -7.470442    3.036994   -0.589167
    115          1           0       -8.411847    4.991149    0.358137
    116          1           0       -7.180305    4.989941    1.497436
    117          1           0       -8.630170    4.111705    1.932539
    118          1           0       -8.864475    2.068682    1.687996
    119          1           0       -7.587006    0.956709    1.459777
    120          1           0       -8.366347    0.836325   -1.095662
    121          1           0       -9.770967    1.647177   -0.320749
    122          1           0       -9.373951   -0.633931    1.261532
    123          1           0       -9.074354   -1.029252   -0.481648
    124          1           0      -11.421741    0.735736    0.323383
    125          1           0      -11.956287    0.671319   -1.671906
    126          1           0      -12.334542   -1.022465   -1.616758
    127          1           0      -10.783371   -0.630102   -2.116440
    128          1           0      -11.091041   -1.939615    1.387092
    129          1           0      -12.418110   -1.862251    0.303425
    130          1           0      -12.115658    0.438441    2.221196
    131          1           0      -12.433319   -1.260468    2.974550
    132          1           0      -14.530597   -0.917722    2.944558
    133          1           0      -14.503519   -1.072514    1.201262
    134          1           0      -14.115509    1.822297    2.274939
    135          1           0      -16.553022    0.332687    2.755749
    136          1           0      -16.773970    1.813000    1.799879
    137          1           0      -16.000756    1.909369    3.311414
    138          1           0      -15.457636    1.518968   -0.208832
    139          1           0      -14.114592    0.529664   -0.310570
    140          1           0      -13.925631    2.244030    0.139746
 ---------------------------------------------------------------------

 SCF Done:  E(RCAM-B3LYP) =  -3007.14491070     A.U. after   17 cycles

 Excitation energies and oscillator strengths:

 Excited State   1:      Singlet-A      1.7214 eV  720.27 nm  f=0.3612  <S**2>=0.000
     245 -> 248       -0.18580
     246 -> 247        0.68365
     245 <- 248       -0.10799
 This state for optimization and/or second-order correction.
 Total Energy, E(TD-HF/TD-DFT) =  -3007.08165181
 Copying the excited state density for this state as the 1-particle RhoCI density.

 Excited State   2:      Singlet-A      2.2791 eV  544.01 nm  f=0.0670  <S**2>=0.000
     245 -> 247        0.60998
     246 -> 248        0.34835

 Excited State   3:      Singlet-A      3.3852 eV  366.26 nm  f=0.1308  <S**2>=0.000
     243 -> 247        0.48022
     243 -> 249       -0.22117
     243 -> 251       -0.17756
     244 -> 247        0.24034
     245 -> 247       -0.14552
     246 -> 248        0.27246

 Excited State   4:      Singlet-A      3.4505 eV  359.32 nm  f=0.5606  <S**2>=0.000
     243 -> 247       -0.31233
     243 -> 249        0.13052
     245 -> 247       -0.29302
     246 -> 248        0.52160

 Excited State   5:      Singlet-A      3.6039 eV  344.03 nm  f=0.0681  <S**2>=0.000
     241 -> 247        0.25667
     243 -> 247       -0.14298
     244 -> 247        0.59426
     246 -> 248       -0.13135

 The electronic state is 1-A.
 Alpha  occ. eigenvalues --  -46.89240 -19.25263 -19.23491 -19.20390 -19.19400
 Alpha  occ. eigenvalues --  -19.19287 -19.17720 -14.42271 -14.42095 -14.40242
 Alpha  occ. eigenvalues --  -14.39240 -10.39053 -10.38893 -10.35775 -10.33492
 Alpha  occ. eigenvalues --  -10.32424 -10.32037 -10.31597 -10.31107 -10.30942
 Alpha  occ. eigenvalues --  -10.30871 -10.30672 -10.29966 -10.29373 -10.29009
 Alpha  occ. eigenvalues --  -10.28892 -10.28522 -10.28454 -10.28145 -10.28060
 Alpha  occ. eigenvalues --  -10.28020 -10.27902 -10.27826 -10.27726 -10.27370
 Alpha  occ. eigenvalues --  -10.27253 -10.27137 -10.26921 -10.26749 -10.26513
 Alpha  occ. eigenvalues --  -10.26495 -10.26424 -10.26319 -10.26204 -10.26176
 Alpha  occ. eigenvalues --  -10.26119 -10.25928 -10.25924 -10.25867 -10.25846
 Alpha  occ. eigenvalues --  -10.25789 -10.25685 -10.25338 -10.25262 -10.25237
 Alpha  occ. eigenvalues --  -10.25208 -10.25164 -10.25041 -10.24989 -10.24884
 Alpha  occ. eigenvalues --  -10.24849 -10.24591 -10.24435 -10.24286 -10.24156
 Alpha  occ. eigenvalues --  -10.24138  -3.17785  -1.92675  -1.92210  -1.92114
 Alpha  occ. eigenvalues --   -1.15885  -1.14986  -1.10954  -1.08965  -1.07013
 Alpha  occ. eigenvalues --   -1.06990  -1.05025  -1.04132  -1.03559  -1.02110
 Alpha  occ. eigenvalues --   -0.92990  -0.90739  -0.89871  -0.89239  -0.89018
 Alpha  occ. eigenvalues --   -0.88795  -0.88585  -0.87742  -0.87410  -0.87095
 Alpha  occ. eigenvalues --   -0.86248  -0.85528  -0.84092  -0.83908  -0.83252
 Alpha  occ. eigenvalues --   -0.82669  -0.81645  -0.81185  -0.80815  -0.80037
 Alpha  occ. eigenvalues --   -0.79969  -0.78172  -0.77533  -0.77279  -0.76318
 Alpha  occ. eigenvalues --   -0.75942  -0.75619  -0.75612  -0.75107  -0.74285
 Alpha  occ. eigenvalues --   -0.73414  -0.72871  -0.72104  -0.69986  -0.68880
 Alpha  occ. eigenvalues --   -0.68631  -0.68161  -0.67258  -0.66926  -0.65797
 Alpha  occ. eigenvalues --   -0.65438  -0.64962  -0.64818  -0.64532  -0.64142
 Alpha  occ. eigenvalues --   -0.63732  -0.63520  -0.63165  -0.61998  -0.60194
 Alpha  occ. eigenvalues --   -0.59720  -0.59638  -0.58950  -0.58237  -0.58006
 Alpha  occ. eigenvalues --   -0.57153  -0.56696  -0.56653  -0.55769  -0.55745
 Alpha  occ. eigenvalues --   -0.55055  -0.54645  -0.54583  -0.54008  -0.53701
 Alpha  occ. eigenvalues --   -0.53623  -0.53541  -0.53261  -0.52951  -0.52842
 Alpha  occ. eigenvalues --   -0.52491  -0.52310  -0.52115  -0.51878  -0.51619
 Alpha  occ. eigenvalues --   -0.51183  -0.51104  -0.51059  -0.50968  -0.50648
 Alpha  occ. eigenvalues --   -0.50500  -0.50465  -0.50047  -0.49758  -0.49559
 Alpha  occ. eigenvalues --   -0.49383  -0.49266  -0.49193  -0.48917  -0.48497
 Alpha  occ. eigenvalues --   -0.48409  -0.48393  -0.48059  -0.47737  -0.47588
 Alpha  occ. eigenvalues --   -0.47537  -0.47242  -0.46896  -0.46561  -0.46534
 Alpha  occ. eigenvalues --   -0.46459  -0.46413  -0.46216  -0.45955  -0.45822
 Alpha  occ. eigenvalues --   -0.45710  -0.45646  -0.45217  -0.45084  -0.44814
 Alpha  occ. eigenvalues --   -0.44803  -0.44541  -0.44519  -0.44348  -0.44111
 Alpha  occ. eigenvalues --   -0.43986  -0.43810  -0.43659  -0.43390  -0.43240
 Alpha  occ. eigenvalues --   -0.43069  -0.42679  -0.42394  -0.42158  -0.41994
 Alpha  occ. eigenvalues --   -0.41800  -0.41527  -0.41408  -0.41262  -0.41058
 Alpha  occ. eigenvalues --   -0.40673  -0.40638  -0.40145  -0.40124  -0.40078
 Alpha  occ. eigenvalues --   -0.39829  -0.39335  -0.39319  -0.39106  -0.38945
 Alpha  occ. eigenvalues --   -0.38695  -0.38483  -0.37941  -0.37835  -0.37590
 Alpha  occ. eigenvalues --   -0.37477  -0.37360  -0.36729  -0.36574  -0.36371
 Alpha  occ. eigenvalues --   -0.35987  -0.35830  -0.34995  -0.34673  -0.34372
 Alpha  occ. eigenvalues --   -0.34330  -0.33478  -0.33323  -0.31565  -0.31175
 Alpha  occ. eigenvalues --   -0.30695  -0.30450  -0.30238  -0.30061  -0.24351
 Alpha  occ. eigenvalues --   -0.21038
 Alpha virt. eigenvalues --   -0.08479  -0.02311   0.00673   0.01686   0.02545
 Alpha virt. eigenvalues --    0.03900   0.05202   0.05487   0.06317   0.06707
 Alpha virt. eigenvalues --    0.07834   0.08012   0.08190   0.08865   0.08941

 Mulliken charges:
               1
     1  Mg   0.836771
     2  C    0.030899
     3  C   -0.101482
     4  C   -0.060982
     5  C   -0.111608
     6  N   -0.245457
     7  C   -0.087549
     8  C   -0.017079
     9  C   -0.045865
    10  C    0.007451
    11  C    0.091735
    12  C    0.102984
    13  C    0.071002
    14  C    0.152428
    15  O   -0.248773
    16  O   -0.316508
    17  N   -0.392273
    18  C    0.196220
    19  C   -0.140001
    20  C   -0.066053
    21  C    0.177218
    22  C    0.125419
    23  C    0.018962
    24  O   -0.184998
    25  C    0.025540
    26  N   -0.330097
    27  C    0.005742
    28  C    0.003430
    29  C   -0.033293
    30  C    0.052990
    31  C    0.046834
    32  C   -0.004078
    33  C    0.002646
    34  N   -0.291575
    35  C    0.150309
    36  C   -0.151534
    37  C    0.040975
    38  C    0.071323
    39  C    0.130758
    40  C   -0.015218
    41  O   -0.174839
    42  C    0.024374
    43  C    0.178544
    44  O   -0.192966
    45  O   -0.387933
    46  C    0.183819
    47  C    0.304138
    48  C   -0.138330
    49  C   -0.198401
    50  C    0.101446
    51  C    0.044968
    52  C    0.036133
    53  C    0.068795
    54  C   -0.130922
    55  C    0.065623
    56  C    0.049093
    57  C   -0.034675
    58  C    0.054703
    59  C   -0.174510
    60  C    0.056801
    61  C    0.063385
    62  C    0.026510
    63  C    0.042639
    64  C   -0.139878
    65  C    0.031197
    66  C    0.032460
    67  H   -0.030464
    68  H   -0.048501
    69  H   -0.035751
    70  H    0.003968
    71  H    0.007054
    72  H    0.019126
    73  H    0.011831
    74  H    0.018392
    75  H    0.012837
    76  H    0.006996
    77  H    0.021343
    78  H    0.017379
    79  H    0.045701
    80  H    0.019471
    81  H    0.030008
    82  H    0.055624
    83  H    0.030130
    84  H    0.019181
    85  H    0.029471
    86  H    0.016778
    87  H    0.013371
    88  H    0.022907
    89  H    0.009986
    90  H    0.009885
    91  H    0.001614
    92  H    0.028151
    93  H    0.009673
    94  H    0.016192
    95  H    0.005497
    96  H    0.034275
    97  H    0.021442
    98  H    0.035174
    99  H    0.033579
   100  H    0.035665
   101  H    0.051950
   102  H    0.022477
   103  H    0.039536
   104  H   -0.012313
   105  H    0.042174
   106  H    0.002497
   107  H    0.031138
   108  H    0.010088
   109  H   -0.011323
   110  H    0.003839
   111  H    0.004255
   112  H   -0.002241
   113  H    0.003016
   114  H    0.004288
   115  H    0.010271
   116  H   -0.007722
   117  H    0.009766
   118  H   -0.014794
   119  H   -0.011798
   120  H    0.005972
   121  H   -0.005344
   122  H   -0.003304
   123  H    0.000025
   124  H   -0.004232
   125  H    0.013414
   126  H    0.001148
   127  H   -0.002607
   128  H   -0.013903
   129  H   -0.020131
   130  H    0.013816
   131  H    0.001048
   132  H   -0.003341
   133  H    0.001452
   134  H    0.000653
   135  H    0.008917
   136  H    0.000248
   137  H    0.004909
   138  H   -0.003228
   139  H    0.000994
   140  H    0.011017
 Sum of Mulliken charges =  -0.00000

 Dipole moment (field-independent basis, Debye):
    X=              0.8535    Y=              5.4726    Z=              1.8720  Tot=              5.8466
 Quadrupole moment (field-independent basis, Debye-Ang):
   XX=           -351.0825   YY=           -442.7819   ZZ=           -406.2269
   XY=             18.8743   XZ=              7.0056   YZ=             29.5178

 Normal termination of Gaussian 16 at Wed May  4 22:27:22 2022.
