 Gaussian 16, Revision A.03,
 Gaussian 16:  ES64L-G16RevA.03 25-Dec-2016

 ---------------------------------
 #p PBE1PBE/Def2SVP td=(nstates=5)
 ---------------------------------

 ----------------------------------------------------
 step_451_chromophore_5 TDDFT with PBE1PBE functional
 ----------------------------------------------------
 Symbolic Z-matrix:
 Charge =  0 Multiplicity = 1

                         Standard orientation:
 ---------------------------------------------------------------------
 Center     Atomic      Atomic             Coordinates (Angstroms)
 Number     Number       Type             X           Y           Z
 ---------------------------------------------------------------------
      1         12           0        5.342168    0.480831   -0.283674
      2          6           0        3.872615   -2.688472    0.175612
      3          6           0        3.110468    1.008162   -2.805438
      4          6           0        5.997062    3.777974   -0.083869
      5          6           0        7.259142   -0.241265    2.567103
      6          7           0        3.635394   -0.763751   -1.151604
      7          6           0        3.242011   -1.976754   -0.832822
      8          6           0        2.002876   -2.374281   -1.732603
      9          6           0        2.140992   -1.384582   -2.964084
     10          6           0        3.040157   -0.291006   -2.300429
     11          6           0        2.624747   -1.778185   -4.339286
     12          6           0        0.559411   -2.441582   -0.980129
     13          6           0       -0.275896   -3.583682   -1.317071
     14          6           0       -1.562430   -3.338694   -2.196059
     15          8           0       -1.556207   -3.183823   -3.415932
     16          8           0       -2.559298   -3.028098   -1.349017
     17          7           0        4.801550    2.084699   -1.395434
     18          6           0        3.877479    2.069853   -2.423207
     19          6           0        3.837111    3.342110   -3.126579
     20          6           0        4.579437    4.174170   -2.292347
     21          6           0        5.198742    3.363024   -1.212649
     22          6           0        2.940251    3.682854   -4.363563
     23          6           0        4.739240    5.693437   -2.540720
     24          8           0        4.261019    6.176956   -3.544851
     25          6           0        5.411599    6.612978   -1.486328
     26          7           0        6.435224    1.617407    1.093077
     27          6           0        6.631652    2.999875    0.974282
     28          6           0        7.475739    3.532776    2.190015
     29          6           0        7.881369    2.221904    2.906744
     30          6           0        7.148252    1.076874    2.127411
     31          6           0        8.709738    4.431527    1.772575
     32          6           0        7.585689    2.268255    4.437605
     33          6           0        8.855693    2.231372    5.316207
     34          7           0        5.553867   -1.079537    1.184906
     35          6           0        6.483916   -1.303666    2.184824
     36          6           0        6.317793   -2.581920    2.819446
     37          6           0        5.331555   -3.180310    2.023369
     38          6           0        4.921501   -2.208345    1.040300
     39          6           0        6.989300   -2.964117    4.073214
     40          6           0        4.557926   -4.334226    1.803765
     41          8           0        4.624299   -5.436446    2.333224
     42          6           0        3.526790   -4.033629    0.724576
     43          6           0        3.551578   -5.136538   -0.311075
     44          8           0        2.616439   -5.816019   -0.657323
     45          8           0        4.800470   -5.142990   -1.004018
     46          6           0        4.800415   -5.994512   -2.214456
     47          6           0       -3.681596   -2.214239   -1.967217
     48          6           0       -3.749661   -0.971097   -1.139356
     49          6           0       -4.559493   -0.618474   -0.136246
     50          6           0       -5.608613   -1.420920    0.585027
     51          6           0       -4.386793    0.772887    0.500319
     52          6           0       -5.176553    2.010225   -0.133306
     53          6           0       -5.863195    2.969222    0.853468
     54          6           0       -7.336592    3.051036    0.491524
     55          6           0       -7.960417    4.336761    1.103881
     56          6           0       -8.100214    1.781944    0.965248
     57          6           0       -8.885926    1.032142   -0.157790
     58          6           0       -9.536880   -0.339974    0.224382
     59          6           0      -11.085187   -0.259153    0.029855
     60          6           0      -11.543508   -0.302869   -1.406816
     61          6           0      -11.815268   -1.241018    0.966015
     62          6           0      -12.546100   -0.561259    2.146672
     63          6           0      -14.145497   -0.463724    2.031716
     64          6           0      -14.653308    1.005188    1.793584
     65          6           0      -16.081411    1.263114    2.438093
     66          6           0      -14.512192    1.338772    0.302426
     67          1           0        2.420918    1.139816   -3.642596
     68          1           0        6.302420    4.819113    0.035794
     69          1           0        7.929701   -0.295682    3.427987
     70          1           0        2.263668   -3.402619   -1.981085
     71          1           0        1.154210   -0.959871   -3.146898
     72          1           0        2.041416   -1.353189   -5.155897
     73          1           0        2.398127   -2.836595   -4.471122
     74          1           0        3.693570   -1.636142   -4.498584
     75          1           0        0.001702   -1.510965   -1.088306
     76          1           0        0.838953   -2.511338    0.071858
     77          1           0       -0.546134   -4.183480   -0.446868
     78          1           0        0.344803   -4.297489   -1.858667
     79          1           0        2.673570    4.730090   -4.507838
     80          1           0        1.968979    3.203347   -4.239414
     81          1           0        3.456828    3.263224   -5.226264
     82          1           0        6.493170    6.632509   -1.350906
     83          1           0        4.929299    6.407360   -0.530107
     84          1           0        5.072114    7.629981   -1.680399
     85          1           0        6.790774    4.160088    2.760908
     86          1           0        8.926731    1.926133    2.824433
     87          1           0        8.756360    4.803962    0.749970
     88          1           0        9.657737    3.926073    1.954963
     89          1           0        8.603106    5.400550    2.261378
     90          1           0        6.976828    1.433767    4.784535
     91          1           0        7.036003    3.156104    4.751693
     92          1           0        8.893847    1.223930    5.732322
     93          1           0        8.723471    2.965958    6.109532
     94          1           0        9.657255    2.602674    4.678335
     95          1           0        8.074710   -2.955876    3.971082
     96          1           0        6.813837   -4.007541    4.334956
     97          1           0        6.888707   -2.268612    4.906078
     98          1           0        2.569497   -4.185139    1.223553
     99          1           0        5.734531   -5.630553   -2.641232
    100          1           0        4.010415   -5.732208   -2.918910
    101          1           0        4.788817   -7.017790   -1.840055
    102          1           0       -4.667796   -2.676471   -1.918126
    103          1           0       -3.472208   -1.861277   -2.976672
    104          1           0       -3.110264   -0.169975   -1.510231
    105          1           0       -5.266159   -1.593870    1.605280
    106          1           0       -5.778780   -2.384870    0.104850
    107          1           0       -6.496411   -0.799516    0.465850
    108          1           0       -3.316456    0.978129    0.519832
    109          1           0       -4.748290    0.646695    1.521343
    110          1           0       -5.872650    1.522890   -0.816196
    111          1           0       -4.469821    2.548684   -0.764325
    112          1           0       -5.374358    3.943745    0.848605
    113          1           0       -5.902717    2.662364    1.898615
    114          1           0       -7.470442    3.036994   -0.589167
    115          1           0       -8.411847    4.991149    0.358137
    116          1           0       -7.180305    4.989941    1.497436
    117          1           0       -8.630170    4.111705    1.932539
    118          1           0       -8.864475    2.068682    1.687996
    119          1           0       -7.587006    0.956709    1.459777
    120          1           0       -8.366347    0.836325   -1.095662
    121          1           0       -9.770967    1.647177   -0.320749
    122          1           0       -9.373951   -0.633931    1.261532
    123          1           0       -9.074354   -1.029252   -0.481648
    124          1           0      -11.421741    0.735736    0.323383
    125          1           0      -11.956287    0.671319   -1.671906
    126          1           0      -12.334542   -1.022465   -1.616758
    127          1           0      -10.783371   -0.630102   -2.116440
    128          1           0      -11.091041   -1.939615    1.387092
    129          1           0      -12.418110   -1.862251    0.303425
    130          1           0      -12.115658    0.438441    2.221196
    131          1           0      -12.433319   -1.260468    2.974550
    132          1           0      -14.530597   -0.917722    2.944558
    133          1           0      -14.503519   -1.072514    1.201262
    134          1           0      -14.115509    1.822297    2.274939
    135          1           0      -16.553022    0.332687    2.755749
    136          1           0      -16.773970    1.813000    1.799879
    137          1           0      -16.000756    1.909369    3.311414
    138          1           0      -15.457636    1.518968   -0.208832
    139          1           0      -14.114592    0.529664   -0.310570
    140          1           0      -13.925631    2.244030    0.139746
 ---------------------------------------------------------------------

 SCF Done:  E(RPBE1PBE) =  -3005.33280807     A.U. after   15 cycles

 Excitation energies and oscillator strengths:

 Excited State   1:      Singlet-A      1.8748 eV  661.32 nm  f=0.3486  <S**2>=0.000
     245 -> 248       -0.17943
     246 -> 247        0.69024
     246 <- 247       -0.10337
 This state for optimization and/or second-order correction.
 Total Energy, E(TD-HF/TD-DFT) =  -3005.26391084
 Copying the excited state density for this state as the 1-particle RhoCI density.

 Excited State   2:      Singlet-A      2.2834 eV  542.97 nm  f=0.0755  <S**2>=0.000
     245 -> 247        0.62734
     246 -> 248        0.31561

 Excited State   3:      Singlet-A      2.8659 eV  432.61 nm  f=0.0006  <S**2>=0.000
     244 -> 247        0.67686
     244 -> 249       -0.14971
     244 -> 250       -0.10555

 Excited State   4:      Singlet-A      3.1942 eV  388.15 nm  f=0.0493  <S**2>=0.000
     241 -> 247        0.31484
     241 -> 249        0.11842
     242 -> 247       -0.32409
     243 -> 247        0.45511
     246 -> 248        0.21175

 Excited State   5:      Singlet-A      3.2169 eV  385.42 nm  f=0.1038  <S**2>=0.000
     241 -> 247        0.53919
     242 -> 247        0.11321
     243 -> 247       -0.15953
     245 -> 247        0.14189
     246 -> 248       -0.33035

 The electronic state is 1-A.
 Alpha  occ. eigenvalues --  -46.92621 -19.25971 -19.24168 -19.20614 -19.19602
 Alpha  occ. eigenvalues --  -19.19525 -19.18012 -14.41854 -14.41533 -14.39809
 Alpha  occ. eigenvalues --  -14.38911 -10.36115 -10.35943 -10.32863 -10.30657
 Alpha  occ. eigenvalues --  -10.30133 -10.29404 -10.29154 -10.28731 -10.28590
 Alpha  occ. eigenvalues --  -10.28427 -10.28323 -10.27514 -10.27194 -10.26841
 Alpha  occ. eigenvalues --  -10.26665 -10.26283 -10.26094 -10.26044 -10.25816
 Alpha  occ. eigenvalues --  -10.25718 -10.25647 -10.25636 -10.25336 -10.24994
 Alpha  occ. eigenvalues --  -10.24913 -10.24713 -10.24408 -10.24268 -10.24173
 Alpha  occ. eigenvalues --  -10.24004 -10.23808 -10.23805 -10.23770 -10.23674
 Alpha  occ. eigenvalues --  -10.23633 -10.23578 -10.23439 -10.23389 -10.23266
 Alpha  occ. eigenvalues --  -10.23263 -10.23258 -10.22922 -10.22806 -10.22802
 Alpha  occ. eigenvalues --  -10.22798 -10.22759 -10.22724 -10.22684 -10.22575
 Alpha  occ. eigenvalues --  -10.22413 -10.22010 -10.21834 -10.21719 -10.21658
 Alpha  occ. eigenvalues --  -10.21547  -3.14746  -1.87575  -1.87089  -1.86997
 Alpha  occ. eigenvalues --   -1.10710  -1.09730  -1.05620  -1.03749  -1.01867
 Alpha  occ. eigenvalues --   -1.01864  -0.99755  -0.98748  -0.98158  -0.96734
 Alpha  occ. eigenvalues --   -0.87380  -0.84846  -0.83989  -0.83531  -0.83174
 Alpha  occ. eigenvalues --   -0.83044  -0.82781  -0.82122  -0.81771  -0.81187
 Alpha  occ. eigenvalues --   -0.80503  -0.79751  -0.78261  -0.78221  -0.77470
 Alpha  occ. eigenvalues --   -0.76874  -0.75910  -0.75324  -0.75021  -0.74331
 Alpha  occ. eigenvalues --   -0.74167  -0.72499  -0.71808  -0.71499  -0.70611
 Alpha  occ. eigenvalues --   -0.70120  -0.69934  -0.69686  -0.69253  -0.68458
 Alpha  occ. eigenvalues --   -0.67861  -0.67201  -0.66547  -0.64271  -0.63388
 Alpha  occ. eigenvalues --   -0.63020  -0.62390  -0.61636  -0.61167  -0.60206
 Alpha  occ. eigenvalues --   -0.59921  -0.59457  -0.59132  -0.59054  -0.58309
 Alpha  occ. eigenvalues --   -0.58010  -0.57852  -0.57359  -0.56520  -0.54742
 Alpha  occ. eigenvalues --   -0.54345  -0.54221  -0.53278  -0.52854  -0.52585
 Alpha  occ. eigenvalues --   -0.51539  -0.51289  -0.51126  -0.50356  -0.50141
 Alpha  occ. eigenvalues --   -0.49570  -0.49095  -0.49004  -0.48418  -0.48315
 Alpha  occ. eigenvalues --   -0.48180  -0.48017  -0.47908  -0.47582  -0.47294
 Alpha  occ. eigenvalues --   -0.47024  -0.46812  -0.46502  -0.46375  -0.46256
 Alpha  occ. eigenvalues --   -0.45717  -0.45631  -0.45550  -0.45514  -0.45189
 Alpha  occ. eigenvalues --   -0.45059  -0.45002  -0.44647  -0.44388  -0.44192
 Alpha  occ. eigenvalues --   -0.43905  -0.43888  -0.43813  -0.43579  -0.43145
 Alpha  occ. eigenvalues --   -0.43015  -0.42946  -0.42675  -0.42379  -0.42243
 Alpha  occ. eigenvalues --   -0.42169  -0.41934  -0.41594  -0.41257  -0.41211
 Alpha  occ. eigenvalues --   -0.41132  -0.41091  -0.40897  -0.40726  -0.40403
 Alpha  occ. eigenvalues --   -0.40372  -0.40304  -0.39912  -0.39827  -0.39637
 Alpha  occ. eigenvalues --   -0.39437  -0.39345  -0.39278  -0.39125  -0.38910
 Alpha  occ. eigenvalues --   -0.38754  -0.38587  -0.38399  -0.38090  -0.37947
 Alpha  occ. eigenvalues --   -0.37797  -0.37532  -0.37247  -0.36960  -0.36719
 Alpha  occ. eigenvalues --   -0.36589  -0.36326  -0.36161  -0.36057  -0.35802
 Alpha  occ. eigenvalues --   -0.35541  -0.35436  -0.35048  -0.34923  -0.34909
 Alpha  occ. eigenvalues --   -0.34757  -0.34312  -0.34128  -0.33943  -0.33763
 Alpha  occ. eigenvalues --   -0.33469  -0.33431  -0.32914  -0.32657  -0.32425
 Alpha  occ. eigenvalues --   -0.32364  -0.32283  -0.31551  -0.31433  -0.31425
 Alpha  occ. eigenvalues --   -0.30903  -0.30818  -0.29904  -0.29768  -0.29542
 Alpha  occ. eigenvalues --   -0.29325  -0.28865  -0.28237  -0.27070  -0.26323
 Alpha  occ. eigenvalues --   -0.25918  -0.25775  -0.25747  -0.25067  -0.21248
 Alpha  occ. eigenvalues --   -0.18725
 Alpha virt. eigenvalues --   -0.11007  -0.05747  -0.03546  -0.01921  -0.00960
 Alpha virt. eigenvalues --   -0.00615   0.00554   0.01178   0.02015   0.02696
 Alpha virt. eigenvalues --    0.04065   0.04473   0.04839   0.04924   0.05648

 Mulliken charges:
               1
     1  Mg   0.979727
     2  C    0.014589
     3  C   -0.083166
     4  C   -0.067244
     5  C   -0.105343
     6  N   -0.348186
     7  C   -0.000379
     8  C   -0.084632
     9  C   -0.118697
    10  C    0.041188
    11  C    0.034441
    12  C    0.048558
    13  C   -0.003341
    14  C    0.217459
    15  O   -0.281284
    16  O   -0.341529
    17  N   -0.511999
    18  C    0.199193
    19  C   -0.147476
    20  C   -0.121394
    21  C    0.207253
    22  C    0.063386
    23  C    0.073442
    24  O   -0.220615
    25  C   -0.050909
    26  N   -0.433982
    27  C    0.050222
    28  C   -0.079028
    29  C   -0.111564
    30  C    0.097020
    31  C   -0.006573
    32  C   -0.058605
    33  C   -0.071828
    34  N   -0.417766
    35  C    0.162511
    36  C   -0.153244
    37  C   -0.024308
    38  C    0.128399
    39  C    0.078971
    40  C    0.092526
    41  O   -0.222305
    42  C   -0.095565
    43  C    0.268258
    44  O   -0.230160
    45  O   -0.414036
    46  C    0.127850
    47  C    0.251308
    48  C   -0.145685
    49  C   -0.236245
    50  C    0.023971
    51  C   -0.015702
    52  C   -0.027564
    53  C    0.012954
    54  C   -0.225060
    55  C    0.008696
    56  C    0.001556
    57  C   -0.100989
    58  C    0.002624
    59  C   -0.261692
    60  C    0.001908
    61  C    0.012416
    62  C   -0.042211
    63  C   -0.014652
    64  C   -0.230927
    65  C   -0.027555
    66  C   -0.026074
    67  H    0.000470
    68  H   -0.012498
    69  H   -0.002534
    70  H    0.049799
    71  H    0.044396
    72  H    0.045644
    73  H    0.040058
    74  H    0.045826
    75  H    0.044436
    76  H    0.042019
    77  H    0.052525
    78  H    0.049759
    79  H    0.071958
    80  H    0.045466
    81  H    0.058299
    82  H    0.079937
    83  H    0.056728
    84  H    0.047448
    85  H    0.065000
    86  H    0.053465
    87  H    0.039864
    88  H    0.048903
    89  H    0.037106
    90  H    0.042865
    91  H    0.034328
    92  H    0.054649
    93  H    0.038493
    94  H    0.044290
    95  H    0.034152
    96  H    0.062232
    97  H    0.048607
    98  H    0.072260
    99  H    0.055782
   100  H    0.057094
   101  H    0.073907
   102  H    0.049215
   103  H    0.066701
   104  H    0.017273
   105  H    0.069401
   106  H    0.031215
   107  H    0.069413
   108  H    0.042546
   109  H    0.021739
   110  H    0.038511
   111  H    0.037131
   112  H    0.030359
   113  H    0.035101
   114  H    0.042731
   115  H    0.037825
   116  H    0.019685
   117  H    0.036025
   118  H    0.019056
   119  H    0.019486
   120  H    0.036427
   121  H    0.030185
   122  H    0.028379
   123  H    0.032573
   124  H    0.035335
   125  H    0.039558
   126  H    0.026626
   127  H    0.025102
   128  H    0.018772
   129  H    0.012040
   130  H    0.045438
   131  H    0.034391
   132  H    0.028736
   133  H    0.033455
   134  H    0.037519
   135  H    0.035725
   136  H    0.027284
   137  H    0.032214
   138  H    0.024261
   139  H    0.031994
   140  H    0.036931
 Sum of Mulliken charges =  -0.00000

 Dipole moment (field-independent basis, Debye):
    X=              0.8803    Y=              5.3875    Z=              2.0980  Tot=              5.8482
 Quadrupole moment (field-independent basis, Debye-Ang):
   XX=           -345.9596   YY=           -440.2731   ZZ=           -402.3625
   XY=             18.3911   XZ=              9.0589   YZ=             30.0866

 Normal termination of Gaussian 16 at Wed May  4 22:50:02 2022.
