 Gaussian 16, Revision A.03,
 Gaussian 16:  ES64L-G16RevA.03 25-Dec-2016

 --------------------------------
 #p wB97XD/Def2SVP td=(nstates=5)
 --------------------------------

 ---------------------------------------------------
 step_451_chromophore_5 TDDFT with wB97XD functional
 ---------------------------------------------------
 Symbolic Z-matrix:
 Charge =  0 Multiplicity = 1

                         Standard orientation:
 ---------------------------------------------------------------------
 Center     Atomic      Atomic             Coordinates (Angstroms)
 Number     Number       Type             X           Y           Z
 ---------------------------------------------------------------------
      1         12           0        5.342168    0.480831   -0.283674
      2          6           0        3.872615   -2.688472    0.175612
      3          6           0        3.110468    1.008162   -2.805438
      4          6           0        5.997062    3.777974   -0.083869
      5          6           0        7.259142   -0.241265    2.567103
      6          7           0        3.635394   -0.763751   -1.151604
      7          6           0        3.242011   -1.976754   -0.832822
      8          6           0        2.002876   -2.374281   -1.732603
      9          6           0        2.140992   -1.384582   -2.964084
     10          6           0        3.040157   -0.291006   -2.300429
     11          6           0        2.624747   -1.778185   -4.339286
     12          6           0        0.559411   -2.441582   -0.980129
     13          6           0       -0.275896   -3.583682   -1.317071
     14          6           0       -1.562430   -3.338694   -2.196059
     15          8           0       -1.556207   -3.183823   -3.415932
     16          8           0       -2.559298   -3.028098   -1.349017
     17          7           0        4.801550    2.084699   -1.395434
     18          6           0        3.877479    2.069853   -2.423207
     19          6           0        3.837111    3.342110   -3.126579
     20          6           0        4.579437    4.174170   -2.292347
     21          6           0        5.198742    3.363024   -1.212649
     22          6           0        2.940251    3.682854   -4.363563
     23          6           0        4.739240    5.693437   -2.540720
     24          8           0        4.261019    6.176956   -3.544851
     25          6           0        5.411599    6.612978   -1.486328
     26          7           0        6.435224    1.617407    1.093077
     27          6           0        6.631652    2.999875    0.974282
     28          6           0        7.475739    3.532776    2.190015
     29          6           0        7.881369    2.221904    2.906744
     30          6           0        7.148252    1.076874    2.127411
     31          6           0        8.709738    4.431527    1.772575
     32          6           0        7.585689    2.268255    4.437605
     33          6           0        8.855693    2.231372    5.316207
     34          7           0        5.553867   -1.079537    1.184906
     35          6           0        6.483916   -1.303666    2.184824
     36          6           0        6.317793   -2.581920    2.819446
     37          6           0        5.331555   -3.180310    2.023369
     38          6           0        4.921501   -2.208345    1.040300
     39          6           0        6.989300   -2.964117    4.073214
     40          6           0        4.557926   -4.334226    1.803765
     41          8           0        4.624299   -5.436446    2.333224
     42          6           0        3.526790   -4.033629    0.724576
     43          6           0        3.551578   -5.136538   -0.311075
     44          8           0        2.616439   -5.816019   -0.657323
     45          8           0        4.800470   -5.142990   -1.004018
     46          6           0        4.800415   -5.994512   -2.214456
     47          6           0       -3.681596   -2.214239   -1.967217
     48          6           0       -3.749661   -0.971097   -1.139356
     49          6           0       -4.559493   -0.618474   -0.136246
     50          6           0       -5.608613   -1.420920    0.585027
     51          6           0       -4.386793    0.772887    0.500319
     52          6           0       -5.176553    2.010225   -0.133306
     53          6           0       -5.863195    2.969222    0.853468
     54          6           0       -7.336592    3.051036    0.491524
     55          6           0       -7.960417    4.336761    1.103881
     56          6           0       -8.100214    1.781944    0.965248
     57          6           0       -8.885926    1.032142   -0.157790
     58          6           0       -9.536880   -0.339974    0.224382
     59          6           0      -11.085187   -0.259153    0.029855
     60          6           0      -11.543508   -0.302869   -1.406816
     61          6           0      -11.815268   -1.241018    0.966015
     62          6           0      -12.546100   -0.561259    2.146672
     63          6           0      -14.145497   -0.463724    2.031716
     64          6           0      -14.653308    1.005188    1.793584
     65          6           0      -16.081411    1.263114    2.438093
     66          6           0      -14.512192    1.338772    0.302426
     67          1           0        2.420918    1.139816   -3.642596
     68          1           0        6.302420    4.819113    0.035794
     69          1           0        7.929701   -0.295682    3.427987
     70          1           0        2.263668   -3.402619   -1.981085
     71          1           0        1.154210   -0.959871   -3.146898
     72          1           0        2.041416   -1.353189   -5.155897
     73          1           0        2.398127   -2.836595   -4.471122
     74          1           0        3.693570   -1.636142   -4.498584
     75          1           0        0.001702   -1.510965   -1.088306
     76          1           0        0.838953   -2.511338    0.071858
     77          1           0       -0.546134   -4.183480   -0.446868
     78          1           0        0.344803   -4.297489   -1.858667
     79          1           0        2.673570    4.730090   -4.507838
     80          1           0        1.968979    3.203347   -4.239414
     81          1           0        3.456828    3.263224   -5.226264
     82          1           0        6.493170    6.632509   -1.350906
     83          1           0        4.929299    6.407360   -0.530107
     84          1           0        5.072114    7.629981   -1.680399
     85          1           0        6.790774    4.160088    2.760908
     86          1           0        8.926731    1.926133    2.824433
     87          1           0        8.756360    4.803962    0.749970
     88          1           0        9.657737    3.926073    1.954963
     89          1           0        8.603106    5.400550    2.261378
     90          1           0        6.976828    1.433767    4.784535
     91          1           0        7.036003    3.156104    4.751693
     92          1           0        8.893847    1.223930    5.732322
     93          1           0        8.723471    2.965958    6.109532
     94          1           0        9.657255    2.602674    4.678335
     95          1           0        8.074710   -2.955876    3.971082
     96          1           0        6.813837   -4.007541    4.334956
     97          1           0        6.888707   -2.268612    4.906078
     98          1           0        2.569497   -4.185139    1.223553
     99          1           0        5.734531   -5.630553   -2.641232
    100          1           0        4.010415   -5.732208   -2.918910
    101          1           0        4.788817   -7.017790   -1.840055
    102          1           0       -4.667796   -2.676471   -1.918126
    103          1           0       -3.472208   -1.861277   -2.976672
    104          1           0       -3.110264   -0.169975   -1.510231
    105          1           0       -5.266159   -1.593870    1.605280
    106          1           0       -5.778780   -2.384870    0.104850
    107          1           0       -6.496411   -0.799516    0.465850
    108          1           0       -3.316456    0.978129    0.519832
    109          1           0       -4.748290    0.646695    1.521343
    110          1           0       -5.872650    1.522890   -0.816196
    111          1           0       -4.469821    2.548684   -0.764325
    112          1           0       -5.374358    3.943745    0.848605
    113          1           0       -5.902717    2.662364    1.898615
    114          1           0       -7.470442    3.036994   -0.589167
    115          1           0       -8.411847    4.991149    0.358137
    116          1           0       -7.180305    4.989941    1.497436
    117          1           0       -8.630170    4.111705    1.932539
    118          1           0       -8.864475    2.068682    1.687996
    119          1           0       -7.587006    0.956709    1.459777
    120          1           0       -8.366347    0.836325   -1.095662
    121          1           0       -9.770967    1.647177   -0.320749
    122          1           0       -9.373951   -0.633931    1.261532
    123          1           0       -9.074354   -1.029252   -0.481648
    124          1           0      -11.421741    0.735736    0.323383
    125          1           0      -11.956287    0.671319   -1.671906
    126          1           0      -12.334542   -1.022465   -1.616758
    127          1           0      -10.783371   -0.630102   -2.116440
    128          1           0      -11.091041   -1.939615    1.387092
    129          1           0      -12.418110   -1.862251    0.303425
    130          1           0      -12.115658    0.438441    2.221196
    131          1           0      -12.433319   -1.260468    2.974550
    132          1           0      -14.530597   -0.917722    2.944558
    133          1           0      -14.503519   -1.072514    1.201262
    134          1           0      -14.115509    1.822297    2.274939
    135          1           0      -16.553022    0.332687    2.755749
    136          1           0      -16.773970    1.813000    1.799879
    137          1           0      -16.000756    1.909369    3.311414
    138          1           0      -15.457636    1.518968   -0.208832
    139          1           0      -14.114592    0.529664   -0.310570
    140          1           0      -13.925631    2.244030    0.139746
 ---------------------------------------------------------------------

 SCF Done:  E(RwB97XD) =  -3007.84447332     A.U. after   17 cycles

 Excitation energies and oscillator strengths:

 Excited State   1:      Singlet-A      1.6646 eV  744.84 nm  f=0.3595  <S**2>=0.000
     245 -> 248       -0.19102
     246 -> 247        0.68159
     245 <- 248       -0.11745
 This state for optimization and/or second-order correction.
 Total Energy, E(TD-HF/TD-DFT) =  -3007.78330113
 Copying the excited state density for this state as the 1-particle RhoCI density.

 Excited State   2:      Singlet-A      2.2249 eV  557.27 nm  f=0.0669  <S**2>=0.000
     245 -> 247        0.60956
     246 -> 248        0.34823

 Excited State   3:      Singlet-A      3.4122 eV  363.36 nm  f=0.1742  <S**2>=0.000
     244 -> 247        0.50499
     244 -> 249       -0.23425
     244 -> 250        0.15930
     245 -> 247       -0.16562
     246 -> 248        0.30768

 Excited State   4:      Singlet-A      3.4730 eV  357.00 nm  f=0.5331  <S**2>=0.000
     243 -> 247       -0.26615
     243 -> 249        0.10574
     244 -> 247       -0.21993
     244 -> 249        0.11970
     245 -> 247       -0.28005
     246 -> 248        0.50151

 Excited State   5:      Singlet-A      3.6276 eV  341.78 nm  f=0.0674  <S**2>=0.000
     239 -> 247       -0.10018
     241 -> 247       -0.28797
     243 -> 247        0.54181
     244 -> 247       -0.23384
     246 -> 248        0.12838

 The electronic state is 1-A.
 Alpha  occ. eigenvalues --  -46.95590 -19.30509 -19.28717 -19.25320 -19.24430
 Alpha  occ. eigenvalues --  -19.24260 -19.22766 -14.46857 -14.46688 -14.44864
 Alpha  occ. eigenvalues --  -14.43812 -10.42928 -10.42722 -10.39769 -10.37479
 Alpha  occ. eigenvalues --  -10.36520 -10.35942 -10.35694 -10.35000 -10.34855
 Alpha  occ. eigenvalues --  -10.34826 -10.34670 -10.34030 -10.33427 -10.32981
 Alpha  occ. eigenvalues --  -10.32867 -10.32701 -10.32545 -10.32187 -10.32152
 Alpha  occ. eigenvalues --  -10.32113 -10.31975 -10.31951 -10.31766 -10.31495
 Alpha  occ. eigenvalues --  -10.31244 -10.31078 -10.30799 -10.30796 -10.30476
 Alpha  occ. eigenvalues --  -10.30403 -10.30384 -10.30243 -10.30084 -10.30039
 Alpha  occ. eigenvalues --  -10.30034 -10.29908 -10.29815 -10.29810 -10.29694
 Alpha  occ. eigenvalues --  -10.29632 -10.29599 -10.29267 -10.29174 -10.29164
 Alpha  occ. eigenvalues --  -10.29156 -10.29093 -10.29023 -10.28934 -10.28907
 Alpha  occ. eigenvalues --  -10.28784 -10.28424 -10.28250 -10.28107 -10.28065
 Alpha  occ. eigenvalues --  -10.27990  -3.21580  -1.95157  -1.94674  -1.94575
 Alpha  occ. eigenvalues --   -1.18085  -1.17126  -1.13183  -1.11183  -1.09220
 Alpha  occ. eigenvalues --   -1.09202  -1.07038  -1.06180  -1.05599  -1.04106
 Alpha  occ. eigenvalues --   -0.94976  -0.92522  -0.91652  -0.91139  -0.90817
 Alpha  occ. eigenvalues --   -0.90661  -0.90441  -0.89663  -0.89343  -0.88855
 Alpha  occ. eigenvalues --   -0.88226  -0.87433  -0.85929  -0.85792  -0.85144
 Alpha  occ. eigenvalues --   -0.84546  -0.83573  -0.83021  -0.82741  -0.81945
 Alpha  occ. eigenvalues --   -0.81837  -0.80099  -0.79440  -0.79208  -0.78251
 Alpha  occ. eigenvalues --   -0.77791  -0.77544  -0.77391  -0.76924  -0.76119
 Alpha  occ. eigenvalues --   -0.75396  -0.74802  -0.74087  -0.71905  -0.70876
 Alpha  occ. eigenvalues --   -0.70541  -0.70030  -0.69265  -0.68803  -0.67698
 Alpha  occ. eigenvalues --   -0.67404  -0.66965  -0.66683  -0.66532  -0.65962
 Alpha  occ. eigenvalues --   -0.65526  -0.65497  -0.64991  -0.63995  -0.62209
 Alpha  occ. eigenvalues --   -0.61719  -0.61639  -0.60832  -0.60217  -0.60002
 Alpha  occ. eigenvalues --   -0.59042  -0.58681  -0.58564  -0.57756  -0.57634
 Alpha  occ. eigenvalues --   -0.57015  -0.56542  -0.56460  -0.55860  -0.55637
 Alpha  occ. eigenvalues --   -0.55548  -0.55462  -0.55183  -0.54850  -0.54693
 Alpha  occ. eigenvalues --   -0.54422  -0.54217  -0.54048  -0.53779  -0.53546
 Alpha  occ. eigenvalues --   -0.53131  -0.53009  -0.52937  -0.52891  -0.52521
 Alpha  occ. eigenvalues --   -0.52471  -0.52339  -0.51952  -0.51702  -0.51477
 Alpha  occ. eigenvalues --   -0.51343  -0.51169  -0.51098  -0.50846  -0.50428
 Alpha  occ. eigenvalues --   -0.50321  -0.50263  -0.49942  -0.49674  -0.49494
 Alpha  occ. eigenvalues --   -0.49461  -0.49171  -0.48822  -0.48469  -0.48422
 Alpha  occ. eigenvalues --   -0.48367  -0.48311  -0.48109  -0.47875  -0.47654
 Alpha  occ. eigenvalues --   -0.47645  -0.47550  -0.47067  -0.47022  -0.46739
 Alpha  occ. eigenvalues --   -0.46671  -0.46466  -0.46436  -0.46255  -0.46045
 Alpha  occ. eigenvalues --   -0.45876  -0.45737  -0.45588  -0.45271  -0.45257
 Alpha  occ. eigenvalues --   -0.44954  -0.44626  -0.44335  -0.44137  -0.43865
 Alpha  occ. eigenvalues --   -0.43757  -0.43419  -0.43263  -0.43165  -0.42921
 Alpha  occ. eigenvalues --   -0.42562  -0.42514  -0.42073  -0.42001  -0.41985
 Alpha  occ. eigenvalues --   -0.41734  -0.41202  -0.41173  -0.40972  -0.40798
 Alpha  occ. eigenvalues --   -0.40536  -0.40428  -0.39864  -0.39703  -0.39508
 Alpha  occ. eigenvalues --   -0.39432  -0.39323  -0.38581  -0.38422  -0.38285
 Alpha  occ. eigenvalues --   -0.37989  -0.37766  -0.36838  -0.36694  -0.36370
 Alpha  occ. eigenvalues --   -0.36168  -0.35648  -0.35290  -0.33743  -0.33191
 Alpha  occ. eigenvalues --   -0.32879  -0.32463  -0.32255  -0.32163  -0.26277
 Alpha  occ. eigenvalues --   -0.22850
 Alpha virt. eigenvalues --   -0.06832  -0.00396   0.02729   0.04575   0.04964
 Alpha virt. eigenvalues --    0.06084   0.07415   0.07894   0.08856   0.09199
 Alpha virt. eigenvalues --    0.10560   0.11332   0.11449   0.11711   0.12326

 Mulliken charges:
               1
     1  Mg   0.971544
     2  C    0.017642
     3  C   -0.103573
     4  C   -0.076594
     5  C   -0.119711
     6  N   -0.312608
     7  C   -0.042049
     8  C   -0.052525
     9  C   -0.093901
    10  C    0.027331
    11  C    0.042261
    12  C    0.058822
    13  C    0.014404
    14  C    0.206292
    15  O   -0.279360
    16  O   -0.342972
    17  N   -0.478752
    18  C    0.200713
    19  C   -0.147023
    20  C   -0.112328
    21  C    0.202733
    22  C    0.078338
    23  C    0.066549
    24  O   -0.216079
    25  C   -0.036995
    26  N   -0.403786
    27  C    0.036486
    28  C   -0.051827
    29  C   -0.081737
    30  C    0.082708
    31  C    0.002212
    32  C   -0.048370
    33  C   -0.052751
    34  N   -0.378685
    35  C    0.155488
    36  C   -0.153722
    37  C   -0.015179
    38  C    0.106638
    39  C    0.085310
    40  C    0.069828
    41  O   -0.212825
    42  C   -0.052644
    43  C    0.245969
    44  O   -0.224156
    45  O   -0.415143
    46  C    0.142254
    47  C    0.268800
    48  C   -0.156650
    49  C   -0.223808
    50  C    0.053780
    51  C    0.002497
    52  C   -0.007878
    53  C    0.026391
    54  C   -0.189780
    55  C    0.020019
    56  C    0.017074
    57  C   -0.078714
    58  C    0.013442
    59  C   -0.219386
    60  C    0.008355
    61  C    0.024634
    62  C   -0.021950
    63  C    0.002190
    64  C   -0.204260
    65  C   -0.015514
    66  C   -0.011413
    67  H   -0.005575
    68  H   -0.025483
    69  H   -0.010695
    70  H    0.025838
    71  H    0.035176
    72  H    0.041250
    73  H    0.034353
    74  H    0.040392
    75  H    0.037180
    76  H    0.033116
    77  H    0.048726
    78  H    0.043201
    79  H    0.069645
    80  H    0.039899
    81  H    0.053780
    82  H    0.077071
    83  H    0.050341
    84  H    0.045877
    85  H    0.055739
    86  H    0.039660
    87  H    0.033664
    88  H    0.043980
    89  H    0.031812
    90  H    0.033928
    91  H    0.026145
    92  H    0.049155
    93  H    0.032953
    94  H    0.035596
    95  H    0.028121
    96  H    0.059397
    97  H    0.043848
    98  H    0.066282
    99  H    0.052612
   100  H    0.052675
   101  H    0.070463
   102  H    0.044413
   103  H    0.063235
   104  H    0.013172
   105  H    0.064513
   106  H    0.025446
   107  H    0.046976
   108  H    0.035807
   109  H    0.010296
   110  H    0.022425
   111  H    0.031042
   112  H    0.023335
   113  H    0.025345
   114  H    0.029364
   115  H    0.032864
   116  H    0.013059
   117  H    0.030093
   118  H    0.008432
   119  H    0.005343
   120  H    0.028437
   121  H    0.017068
   122  H    0.018435
   123  H    0.024257
   124  H    0.012297
   125  H    0.034233
   126  H    0.021011
   127  H    0.020037
   128  H    0.010757
   129  H    0.001826
   130  H    0.034158
   131  H    0.028045
   132  H    0.021484
   133  H    0.023554
   134  H    0.027154
   135  H    0.029513
   136  H    0.021449
   137  H    0.026584
   138  H    0.019148
   139  H    0.016899
   140  H    0.032313
 Sum of Mulliken charges =  -0.00000

 Dipole moment (field-independent basis, Debye):
    X=              0.8401    Y=              5.5863    Z=              1.8433  Tot=              5.9423
 Quadrupole moment (field-independent basis, Debye-Ang):
   XX=           -346.7471   YY=           -438.8011   ZZ=           -402.2178
   XY=             19.3199   XZ=              7.4141   YZ=             29.6229

 Normal termination of Gaussian 16 at Wed May  4 23:35:10 2022.
