 Gaussian 16, Revision A.03,
 Gaussian 16:  ES64L-G16RevA.03 25-Dec-2016

 --------------------
 #p ZINDO=(nstates=5)
 --------------------

 ----------------------------
 step_451_chromophore_5 ZINDO
 ----------------------------
 Symbolic Z-matrix:
 Charge =  0 Multiplicity = 1

                         Standard orientation:
 ---------------------------------------------------------------------
 Center     Atomic      Atomic             Coordinates (Angstroms)
 Number     Number       Type             X           Y           Z
 ---------------------------------------------------------------------
      1         12           0        5.342168    0.480831   -0.283674
      2          6           0        3.872615   -2.688472    0.175612
      3          6           0        3.110468    1.008162   -2.805438
      4          6           0        5.997062    3.777974   -0.083869
      5          6           0        7.259142   -0.241265    2.567103
      6          7           0        3.635394   -0.763751   -1.151604
      7          6           0        3.242011   -1.976754   -0.832822
      8          6           0        2.002876   -2.374281   -1.732603
      9          6           0        2.140992   -1.384582   -2.964084
     10          6           0        3.040157   -0.291006   -2.300429
     11          6           0        2.624747   -1.778185   -4.339286
     12          6           0        0.559411   -2.441582   -0.980129
     13          6           0       -0.275896   -3.583682   -1.317071
     14          6           0       -1.562430   -3.338694   -2.196059
     15          8           0       -1.556207   -3.183823   -3.415932
     16          8           0       -2.559298   -3.028098   -1.349017
     17          7           0        4.801550    2.084699   -1.395434
     18          6           0        3.877479    2.069853   -2.423207
     19          6           0        3.837111    3.342110   -3.126579
     20          6           0        4.579437    4.174170   -2.292347
     21          6           0        5.198742    3.363024   -1.212649
     22          6           0        2.940251    3.682854   -4.363563
     23          6           0        4.739240    5.693437   -2.540720
     24          8           0        4.261019    6.176956   -3.544851
     25          6           0        5.411599    6.612978   -1.486328
     26          7           0        6.435224    1.617407    1.093077
     27          6           0        6.631652    2.999875    0.974282
     28          6           0        7.475739    3.532776    2.190015
     29          6           0        7.881369    2.221904    2.906744
     30          6           0        7.148252    1.076874    2.127411
     31          6           0        8.709738    4.431527    1.772575
     32          6           0        7.585689    2.268255    4.437605
     33          6           0        8.855693    2.231372    5.316207
     34          7           0        5.553867   -1.079537    1.184906
     35          6           0        6.483916   -1.303666    2.184824
     36          6           0        6.317793   -2.581920    2.819446
     37          6           0        5.331555   -3.180310    2.023369
     38          6           0        4.921501   -2.208345    1.040300
     39          6           0        6.989300   -2.964117    4.073214
     40          6           0        4.557926   -4.334226    1.803765
     41          8           0        4.624299   -5.436446    2.333224
     42          6           0        3.526790   -4.033629    0.724576
     43          6           0        3.551578   -5.136538   -0.311075
     44          8           0        2.616439   -5.816019   -0.657323
     45          8           0        4.800470   -5.142990   -1.004018
     46          6           0        4.800415   -5.994512   -2.214456
     47          6           0       -3.681596   -2.214239   -1.967217
     48          6           0       -3.749661   -0.971097   -1.139356
     49          6           0       -4.559493   -0.618474   -0.136246
     50          6           0       -5.608613   -1.420920    0.585027
     51          6           0       -4.386793    0.772887    0.500319
     52          6           0       -5.176553    2.010225   -0.133306
     53          6           0       -5.863195    2.969222    0.853468
     54          6           0       -7.336592    3.051036    0.491524
     55          6           0       -7.960417    4.336761    1.103881
     56          6           0       -8.100214    1.781944    0.965248
     57          6           0       -8.885926    1.032142   -0.157790
     58          6           0       -9.536880   -0.339974    0.224382
     59          6           0      -11.085187   -0.259153    0.029855
     60          6           0      -11.543508   -0.302869   -1.406816
     61          6           0      -11.815268   -1.241018    0.966015
     62          6           0      -12.546100   -0.561259    2.146672
     63          6           0      -14.145497   -0.463724    2.031716
     64          6           0      -14.653308    1.005188    1.793584
     65          6           0      -16.081411    1.263114    2.438093
     66          6           0      -14.512192    1.338772    0.302426
     67          1           0        2.420918    1.139816   -3.642596
     68          1           0        6.302420    4.819113    0.035794
     69          1           0        7.929701   -0.295682    3.427987
     70          1           0        2.263668   -3.402619   -1.981085
     71          1           0        1.154210   -0.959871   -3.146898
     72          1           0        2.041416   -1.353189   -5.155897
     73          1           0        2.398127   -2.836595   -4.471122
     74          1           0        3.693570   -1.636142   -4.498584
     75          1           0        0.001702   -1.510965   -1.088306
     76          1           0        0.838953   -2.511338    0.071858
     77          1           0       -0.546134   -4.183480   -0.446868
     78          1           0        0.344803   -4.297489   -1.858667
     79          1           0        2.673570    4.730090   -4.507838
     80          1           0        1.968979    3.203347   -4.239414
     81          1           0        3.456828    3.263224   -5.226264
     82          1           0        6.493170    6.632509   -1.350906
     83          1           0        4.929299    6.407360   -0.530107
     84          1           0        5.072114    7.629981   -1.680399
     85          1           0        6.790774    4.160088    2.760908
     86          1           0        8.926731    1.926133    2.824433
     87          1           0        8.756360    4.803962    0.749970
     88          1           0        9.657737    3.926073    1.954963
     89          1           0        8.603106    5.400550    2.261378
     90          1           0        6.976828    1.433767    4.784535
     91          1           0        7.036003    3.156104    4.751693
     92          1           0        8.893847    1.223930    5.732322
     93          1           0        8.723471    2.965958    6.109532
     94          1           0        9.657255    2.602674    4.678335
     95          1           0        8.074710   -2.955876    3.971082
     96          1           0        6.813837   -4.007541    4.334956
     97          1           0        6.888707   -2.268612    4.906078
     98          1           0        2.569497   -4.185139    1.223553
     99          1           0        5.734531   -5.630553   -2.641232
    100          1           0        4.010415   -5.732208   -2.918910
    101          1           0        4.788817   -7.017790   -1.840055
    102          1           0       -4.667796   -2.676471   -1.918126
    103          1           0       -3.472208   -1.861277   -2.976672
    104          1           0       -3.110264   -0.169975   -1.510231
    105          1           0       -5.266159   -1.593870    1.605280
    106          1           0       -5.778780   -2.384870    0.104850
    107          1           0       -6.496411   -0.799516    0.465850
    108          1           0       -3.316456    0.978129    0.519832
    109          1           0       -4.748290    0.646695    1.521343
    110          1           0       -5.872650    1.522890   -0.816196
    111          1           0       -4.469821    2.548684   -0.764325
    112          1           0       -5.374358    3.943745    0.848605
    113          1           0       -5.902717    2.662364    1.898615
    114          1           0       -7.470442    3.036994   -0.589167
    115          1           0       -8.411847    4.991149    0.358137
    116          1           0       -7.180305    4.989941    1.497436
    117          1           0       -8.630170    4.111705    1.932539
    118          1           0       -8.864475    2.068682    1.687996
    119          1           0       -7.587006    0.956709    1.459777
    120          1           0       -8.366347    0.836325   -1.095662
    121          1           0       -9.770967    1.647177   -0.320749
    122          1           0       -9.373951   -0.633931    1.261532
    123          1           0       -9.074354   -1.029252   -0.481648
    124          1           0      -11.421741    0.735736    0.323383
    125          1           0      -11.956287    0.671319   -1.671906
    126          1           0      -12.334542   -1.022465   -1.616758
    127          1           0      -10.783371   -0.630102   -2.116440
    128          1           0      -11.091041   -1.939615    1.387092
    129          1           0      -12.418110   -1.862251    0.303425
    130          1           0      -12.115658    0.438441    2.221196
    131          1           0      -12.433319   -1.260468    2.974550
    132          1           0      -14.530597   -0.917722    2.944558
    133          1           0      -14.503519   -1.072514    1.201262
    134          1           0      -14.115509    1.822297    2.274939
    135          1           0      -16.553022    0.332687    2.755749
    136          1           0      -16.773970    1.813000    1.799879
    137          1           0      -16.000756    1.909369    3.311414
    138          1           0      -15.457636    1.518968   -0.208832
    139          1           0      -14.114592    0.529664   -0.310570
    140          1           0      -13.925631    2.244030    0.139746
 ---------------------------------------------------------------------

 SCF Done:  E(RZINDO/S) =  -474.157946107     A.U. after   20 cycles

 Excitation energies and oscillator strengths:

 Excited State   1:      Singlet-A      1.2693 eV  976.78 nm  f=0.5943  <S**2>=0.000
     175 ->178        -0.18915
     176 ->177         0.66331
 This state for optimization and/or second-order correction.
 Total Energy, E(CIS/TDA) =  -474.111299714
 Copying the excited state density for this state as the 1-particle RhoCI density.

 Excited State   2:      Singlet-A      1.9249 eV  644.09 nm  f=0.0050  <S**2>=0.000
     175 ->177         0.49411
     176 ->178         0.48372

 Excited State   3:      Singlet-A      2.9162 eV  425.15 nm  f=0.1224  <S**2>=0.000
     171 ->177         0.34432
     171 ->179         0.31272
     171 ->181        -0.23574
     171 ->182         0.21665
     171 ->185         0.14670
     171 ->188        -0.11707
     175 ->177        -0.14313
     176 ->178         0.15631

 Excited State   4:      Singlet-A      2.9735 eV  416.96 nm  f=0.7589  <S**2>=0.000
     171 ->177        -0.11675
     171 ->179        -0.10557
     175 ->177        -0.36061
     176 ->178         0.37947
     176 ->180         0.37455

 Excited State   5:      Singlet-A      3.0244 eV  409.95 nm  f=0.0341  <S**2>=0.000
     167 ->179        -0.10083
     168 ->177         0.22835
     168 ->178        -0.12641
     168 ->179        -0.33590
     168 ->181        -0.23474
     168 ->182         0.16102
     168 ->185        -0.21670
     176 ->179        -0.25744
     176 ->180        -0.11045

 The electronic state is 1-A.
 Alpha  occ. eigenvalues --   -1.85495  -1.81659  -1.78258  -1.72271  -1.71270
 Alpha  occ. eigenvalues --   -1.70104  -1.66146  -1.61232  -1.59571  -1.59163
 Alpha  occ. eigenvalues --   -1.53095  -1.51149  -1.48424  -1.47241  -1.46773
 Alpha  occ. eigenvalues --   -1.45656  -1.43540  -1.39711  -1.39176  -1.38193
 Alpha  occ. eigenvalues --   -1.36329  -1.34691  -1.31929  -1.31017  -1.28027
 Alpha  occ. eigenvalues --   -1.27978  -1.27049  -1.22692  -1.22281  -1.18866
 Alpha  occ. eigenvalues --   -1.16483  -1.16309  -1.14503  -1.13577  -1.12992
 Alpha  occ. eigenvalues --   -1.12052  -1.11202  -1.10207  -1.05756  -1.04602
 Alpha  occ. eigenvalues --   -1.01954  -1.01736  -0.98611  -0.98244  -0.96469
 Alpha  occ. eigenvalues --   -0.95408  -0.94934  -0.94424  -0.93221  -0.93217
 Alpha  occ. eigenvalues --   -0.90921  -0.90545  -0.89178  -0.88408  -0.87934
 Alpha  occ. eigenvalues --   -0.86383  -0.84283  -0.83951  -0.81737  -0.80708
 Alpha  occ. eigenvalues --   -0.79606  -0.78394  -0.77842  -0.77617  -0.77344
 Alpha  occ. eigenvalues --   -0.76001  -0.75558  -0.74452  -0.74095  -0.73657
 Alpha  occ. eigenvalues --   -0.73126  -0.72082  -0.71517  -0.70803  -0.70237
 Alpha  occ. eigenvalues --   -0.69972  -0.69485  -0.69195  -0.69039  -0.68428
 Alpha  occ. eigenvalues --   -0.67295  -0.66784  -0.65935  -0.65720  -0.65613
 Alpha  occ. eigenvalues --   -0.65261  -0.64893  -0.64212  -0.63834  -0.63741
 Alpha  occ. eigenvalues --   -0.63115  -0.62945  -0.62467  -0.62351  -0.62097
 Alpha  occ. eigenvalues --   -0.61871  -0.61087  -0.61051  -0.60781  -0.60602
 Alpha  occ. eigenvalues --   -0.59994  -0.59111  -0.58961  -0.58400  -0.57524
 Alpha  occ. eigenvalues --   -0.57312  -0.57015  -0.56932  -0.56618  -0.55918
 Alpha  occ. eigenvalues --   -0.55807  -0.55628  -0.55520  -0.55206  -0.54979
 Alpha  occ. eigenvalues --   -0.54479  -0.53943  -0.53636  -0.53288  -0.52921
 Alpha  occ. eigenvalues --   -0.52485  -0.52158  -0.52131  -0.51975  -0.51787
 Alpha  occ. eigenvalues --   -0.51691  -0.50711  -0.50571  -0.50400  -0.50215
 Alpha  occ. eigenvalues --   -0.49989  -0.49692  -0.49350  -0.49026  -0.48778
 Alpha  occ. eigenvalues --   -0.48768  -0.48512  -0.48171  -0.47925  -0.47602
 Alpha  occ. eigenvalues --   -0.47528  -0.47110  -0.46919  -0.46906  -0.46706
 Alpha  occ. eigenvalues --   -0.46306  -0.46227  -0.46113  -0.45714  -0.45601
 Alpha  occ. eigenvalues --   -0.45332  -0.44778  -0.44562  -0.44369  -0.44164
 Alpha  occ. eigenvalues --   -0.44017  -0.43864  -0.42980  -0.42823  -0.42299
 Alpha  occ. eigenvalues --   -0.42083  -0.41949  -0.41603  -0.39710  -0.38707
 Alpha  occ. eigenvalues --   -0.38321  -0.37366  -0.36031  -0.35366  -0.34532
 Alpha  occ. eigenvalues --   -0.34084  -0.32819  -0.32791  -0.32660  -0.27217
 Alpha  occ. eigenvalues --   -0.21784
 Alpha virt. eigenvalues --   -0.08442  -0.02738  -0.00432   0.00907   0.01302
 Alpha virt. eigenvalues --    0.01397   0.02665   0.02787   0.04316   0.05118
 Alpha virt. eigenvalues --    0.06022   0.06321   0.07008   0.07612   0.07742

 Mulliken charges:
               1
     1  Mg   0.433767
     2  C   -0.048892
     3  C   -0.065621
     4  C   -0.100735
     5  C   -0.054675
     6  N   -0.279362
     7  C    0.120062
     8  C   -0.003799
     9  C    0.009441
    10  C    0.133683
    11  C   -0.040850
    12  C   -0.002378
    13  C    0.012052
    14  C    0.465243
    15  O   -0.520672
    16  O   -0.252403
    17  N   -0.316686
    18  C    0.129958
    19  C    0.035590
    20  C   -0.037435
    21  C    0.139539
    22  C   -0.033976
    23  C    0.324081
    24  O   -0.503529
    25  C   -0.034800
    26  N   -0.274083
    27  C    0.120976
    28  C    0.016454
    29  C    0.002360
    30  C    0.095962
    31  C   -0.059636
    32  C   -0.038994
    33  C   -0.065903
    34  N   -0.311928
    35  C    0.078894
    36  C    0.034224
    37  C   -0.061833
    38  C    0.115002
    39  C   -0.034303
    40  C    0.332689
    41  O   -0.541351
    42  C    0.058741
    43  C    0.478829
    44  O   -0.509454
    45  O   -0.293177
    46  C    0.073543
    47  C    0.100832
    48  C   -0.089679
    49  C   -0.005014
    50  C   -0.042397
    51  C   -0.036394
    52  C   -0.032978
    53  C   -0.023899
    54  C   -0.003173
    55  C   -0.062972
    56  C   -0.039264
    57  C   -0.054044
    58  C   -0.040810
    59  C   -0.013000
    60  C   -0.054927
    61  C   -0.039593
    62  C   -0.044568
    63  C   -0.033950
    64  C   -0.011619
    65  C   -0.063119
    66  C   -0.057993
    67  H    0.027139
    68  H    0.025397
    69  H    0.021442
    70  H    0.033655
    71  H    0.027859
    72  H    0.027147
    73  H    0.017458
    74  H    0.026200
    75  H    0.029656
    76  H    0.021068
    77  H    0.035604
    78  H    0.035413
    79  H    0.048877
    80  H    0.022012
    81  H    0.036736
    82  H    0.048970
    83  H    0.027448
    84  H    0.029760
    85  H    0.040950
    86  H    0.035003
    87  H    0.020881
    88  H    0.029043
    89  H    0.017439
    90  H    0.019685
    91  H    0.016534
    92  H    0.031630
    93  H    0.015188
    94  H    0.026240
    95  H    0.020437
    96  H    0.032717
    97  H    0.034669
    98  H    0.060888
    99  H    0.028012
   100  H    0.045185
   101  H    0.058146
   102  H    0.047727
   103  H    0.058134
   104  H    0.019706
   105  H    0.036935
   106  H    0.017076
   107  H    0.035968
   108  H    0.021061
   109  H    0.015347
   110  H    0.022936
   111  H    0.019178
   112  H    0.018845
   113  H    0.022994
   114  H    0.023522
   115  H    0.018850
   116  H    0.010884
   117  H    0.025198
   118  H    0.014348
   119  H    0.021896
   120  H    0.024875
   121  H    0.015898
   122  H    0.022204
   123  H    0.021358
   124  H    0.017457
   125  H    0.017264
   126  H    0.013123
   127  H    0.016095
   128  H    0.010534
   129  H    0.019447
   130  H    0.035094
   131  H    0.020897
   132  H    0.016355
   133  H    0.024590
   134  H    0.022783
   135  H    0.019467
   136  H    0.018272
   137  H    0.014353
   138  H    0.012248
   139  H    0.020205
   140  H    0.016333
 Sum of Mulliken charges =  -0.00000

 Dipole moment (field-independent basis, Debye):
    X=              1.4164    Y=              7.5803    Z=              2.2765  Tot=              8.0405
 N-N= 4.344961891459D+03 E-N= 0.000000000000D+00  KE=-9.363729461198D+03
 Leave Link  601 at Wed May  4 23:51:34 2022, MaxMem=  6710886400 cpu:               1.1 elap:               0.1
 (Enter /sw/apps/gaussian-16.0/g16/l9999.exe)
 1\1\GINC-BP1-COMPUTE179\SP\RZINDO CIS\STO-3G\C55H74Mg1N4O6\OF15641\04-
 May-2022\0\\#p ZINDO=(nstates=5)\\step_451_chromophore_5 ZINDO\\0,1\Mg
 ,0,24.322,-6.148,46.115\C,0,26.649,-3.789,44.917\C,0,21.949,-4.563,44.
 251\C,0,22.371,-8.878,46.399\C,0,27.055,-7.739,47.639\N,0,24.381,-4.36
 2,44.693\C,0,25.389,-3.579,44.379\C,0,24.899,-2.494,43.337\C,0,23.329,
 -2.487,43.561\C,0,23.171,-3.889,44.235\C,0,22.564,-1.405,44.285\C,0,25
 .44,-2.667,41.81\C,0,25.881,-1.446,41.154\C,0,24.988,-0.851,39.998\O,0

 Normal termination of Gaussian 16 at Wed May  4 23:51:34 2022.
