 Gaussian 16, Revision A.03,
 Gaussian 16:  ES64L-G16RevA.03 25-Dec-2016

 ------------------------------
 #p blyp/Def2SVP td=(nstates=5)
 ------------------------------

 ---------------------------------------------------
 step_1151_chromophore_27 TDDFT with blyp functional
 ---------------------------------------------------
 Symbolic Z-matrix:
 Charge =  0 Multiplicity = 1

                         Standard orientation:
 ---------------------------------------------------------------------
 Center     Atomic      Atomic             Coordinates (Angstroms)
 Number     Number       Type             X           Y           Z
 ---------------------------------------------------------------------
      1         12           0       -4.687872    0.814429    0.112053
      2          6           0       -3.971875   -2.643657    0.161512
      3          6           0       -1.361290    1.491990    0.003578
      4          6           0       -5.533094    4.035569    0.081634
      5          6           0       -8.062238    0.046308    0.843607
      6          7           0       -2.849538   -0.509309   -0.045381
      7          6           0       -2.818286   -1.865666    0.037463
      8          6           0       -1.399350   -2.368278   -0.080043
      9          6           0       -0.515621   -1.013557    0.167616
     10          6           0       -1.643526    0.064303    0.048538
     11          6           0        0.205880   -0.888672    1.605484
     12          6           0       -1.064508   -3.095867   -1.500551
     13          6           0       -0.041220   -4.243439   -1.499305
     14          6           0        1.172925   -3.924870   -2.348074
     15          8           0        1.222439   -4.195320   -3.599950
     16          8           0        2.272188   -3.671097   -1.600487
     17          7           0       -3.610858    2.519367    0.190032
     18          6           0       -2.238837    2.561280    0.064439
     19          6           0       -1.838079    3.938500    0.160923
     20          6           0       -2.985545    4.756666    0.289337
     21          6           0       -4.123195    3.822392    0.209234
     22          6           0       -0.368910    4.287020   -0.004607
     23          6           0       -3.200400    6.257748    0.429363
     24          8           0       -4.286171    6.835376    0.484233
     25          6           0       -1.974884    7.156043    0.522392
     26          7           0       -6.535218    1.917483    0.507600
     27          6           0       -6.668180    3.218505    0.132206
     28          6           0       -8.158106    3.683520   -0.133898
     29          6           0       -8.874084    2.326814    0.086991
     30          6           0       -7.806906    1.375741    0.544464
     31          6           0       -8.580844    4.766453    0.927034
     32          6           0       -9.768351    1.835478   -1.080842
     33          6           0      -11.091663    2.535529   -1.232823
     34          7           0       -5.837769   -0.906113    0.508002
     35          6           0       -7.214462   -1.081207    0.776624
     36          6           0       -7.546988   -2.512032    0.956811
     37          6           0       -6.298463   -3.108545    0.758733
     38          6           0       -5.265445   -2.162987    0.415128
     39          6           0       -8.831590   -3.103403    1.212247
     40          6           0       -5.626008   -4.444458    0.643662
     41          8           0       -6.131864   -5.516970    0.776030
     42          6           0       -4.142099   -4.179480    0.200835
     43          6           0       -3.312940   -4.788526    1.206392
     44          8           0       -3.275868   -4.520984    2.407393
     45          8           0       -2.583381   -5.724282    0.650878
     46          6           0       -1.622503   -6.365287    1.535472
     47          6           0        3.627186   -3.809492   -2.281896
     48          6           0        4.348864   -2.396950   -2.334491
     49          6           0        5.566621   -2.021832   -1.868034
     50          6           0        6.612547   -2.908055   -1.128340
     51          6           0        6.000858   -0.603435   -2.139601
     52          6           0        6.420886   -0.309217   -3.600485
     53          6           0        7.886543    0.216367   -3.753296
     54          6           0        7.772668    1.783335   -3.858378
     55          6           0        7.469779    2.267868   -5.305092
     56          6           0        9.028790    2.485825   -3.200890
     57          6           0        8.997442    2.749478   -1.670538
     58          6           0       10.344345    2.317332   -0.963547
     59          6           0       10.001306    1.586201    0.354982
     60          6           0        9.808989    0.012698    0.006804
     61          6           0       11.032807    1.885958    1.460440
     62          6           0       10.435281    1.528144    2.864362
     63          6           0       11.102831    0.355094    3.651796
     64          6           0       11.115530    0.466797    5.219251
     65          6           0       12.429470   -0.063482    5.831034
     66          6           0        9.883941   -0.173699    5.917197
     67          1           0       -0.337935    1.854887   -0.102301
     68          1           0       -5.902015    5.058618   -0.018396
     69          1           0       -9.104251   -0.091993    1.138839
     70          1           0       -1.182427   -3.066163    0.728292
     71          1           0        0.082506   -0.738020   -0.699761
     72          1           0        0.069627    0.059980    2.126164
     73          1           0        1.290229   -0.836125    1.504571
     74          1           0       -0.122030   -1.682300    2.276274
     75          1           0       -0.556571   -2.319001   -2.071635
     76          1           0       -1.955751   -3.319621   -2.086562
     77          1           0       -0.489750   -5.172357   -1.849207
     78          1           0        0.260323   -4.503841   -0.484648
     79          1           0       -0.102209    4.316118   -1.061314
     80          1           0        0.239049    3.543931    0.511581
     81          1           0       -0.073462    5.305230    0.251096
     82          1           0       -2.185300    8.216273    0.381562
     83          1           0       -1.395281    6.920707   -0.370427
     84          1           0       -1.475717    7.022215    1.481945
     85          1           0       -8.356963    4.071741   -1.133587
     86          1           0       -9.547205    2.426591    0.937841
     87          1           0       -7.684894    5.198052    1.373219
     88          1           0       -9.136950    4.354097    1.768490
     89          1           0       -9.101973    5.561811    0.393458
     90          1           0       -9.848874    0.748834   -1.052964
     91          1           0       -9.274014    2.103300   -2.014838
     92          1           0      -11.079722    3.428995   -0.608676
     93          1           0      -11.940127    1.882054   -1.031161
     94          1           0      -11.303841    2.937787   -2.223651
     95          1           0       -8.682779   -4.179698    1.288619
     96          1           0       -9.509206   -2.732296    0.443785
     97          1           0       -9.110854   -2.716934    2.192905
     98          1           0       -4.105970   -4.625823   -0.793288
     99          1           0       -2.248050   -6.857293    2.280889
    100          1           0       -0.863716   -5.694423    1.936762
    101          1           0       -1.135111   -7.115315    0.912237
    102          1           0        3.598907   -4.290296   -3.259678
    103          1           0        4.240734   -4.468999   -1.668513
    104          1           0        3.615119   -1.661622   -2.663060
    105          1           0        6.203271   -3.914638   -1.041224
    106          1           0        7.047809   -2.519737   -0.207931
    107          1           0        7.465466   -3.017394   -1.797222
    108          1           0        6.825084   -0.290778   -1.499720
    109          1           0        5.159338    0.063650   -1.951001
    110          1           0        5.749156    0.413640   -4.063343
    111          1           0        6.337581   -1.249245   -4.145630
    112          1           0        8.251295   -0.195150   -4.694859
    113          1           0        8.480395    0.063045   -2.853003
    114          1           0        6.927173    2.101472   -3.248194
    115          1           0        8.376621    2.716808   -5.709591
    116          1           0        6.623350    2.952716   -5.350426
    117          1           0        7.294862    1.547413   -6.103791
    118          1           0        9.130836    3.407520   -3.775232
    119          1           0        9.881293    1.896064   -3.535550
    120          1           0        8.080334    2.252840   -1.352626
    121          1           0        8.872166    3.821613   -1.513068
    122          1           0       10.896328    3.235479   -0.758981
    123          1           0       10.947866    1.764173   -1.682668
    124          1           0        9.034145    2.027665    0.593296
    125          1           0        9.671681   -0.021933   -1.073850
    126          1           0        8.957180   -0.337913    0.590056
    127          1           0       10.728889   -0.536421    0.211210
    128          1           0       11.140331    2.961767    1.599347
    129          1           0       12.004940    1.392703    1.459391
    130          1           0        9.368495    1.433729    2.660621
    131          1           0       10.518767    2.411914    3.496765
    132          1           0       12.112292    0.236765    3.257337
    133          1           0       10.512722   -0.549165    3.498265
    134          1           0       11.174229    1.524122    5.477689
    135          1           0       12.195000   -0.995837    6.344952
    136          1           0       12.863712    0.604381    6.575641
    137          1           0       13.227292   -0.231690    5.107914
    138          1           0        8.931350    0.141222    5.490572
    139          1           0        9.924951    0.198977    6.940849
    140          1           0        9.953662   -1.258971    5.850848
 ---------------------------------------------------------------------

 SCF Done:  E(RB-LYP) =  -3007.37582583     A.U. after   21 cycles

 Excitation energies and oscillator strengths:

 Excited State   1:      Singlet-A      1.7938 eV  691.17 nm  f=0.2676  <S**2>=0.000
     245 -> 248       -0.21062
     246 -> 247        0.68209
     246 <- 247       -0.14097
 This state for optimization and/or second-order correction.
 Total Energy, E(TD-HF/TD-DFT) =  -3007.30990408
 Copying the excited state density for this state as the 1-particle RhoCI density.

 Excited State   2:      Singlet-A      1.9908 eV  622.77 nm  f=0.0365  <S**2>=0.000
     243 -> 247        0.10238
     244 -> 247        0.42596
     245 -> 247        0.50494
     246 -> 248        0.21633

 Excited State   3:      Singlet-A      2.0290 eV  611.06 nm  f=0.0166  <S**2>=0.000
     244 -> 247        0.56016
     245 -> 247       -0.36666
     246 -> 248       -0.18669

 Excited State   4:      Singlet-A      2.1607 eV  573.81 nm  f=0.0024  <S**2>=0.000
     243 -> 247        0.68932
     245 -> 247       -0.10460
     246 -> 248       -0.10853

 Excited State   5:      Singlet-A      2.5073 eV  494.49 nm  f=0.0009  <S**2>=0.000
     241 -> 247        0.67877
     242 -> 247        0.19243

 The electronic state is 1-A.
 Alpha  occ. eigenvalues --  -46.27097 -18.83141 -18.82729 -18.76206 -18.76097
 Alpha  occ. eigenvalues --  -18.75759 -18.75627 -14.03413 -14.02649 -14.00866
 Alpha  occ. eigenvalues --  -14.00730 -10.04322 -10.03221 -10.00045  -9.99685
 Alpha  occ. eigenvalues --   -9.98931  -9.98046  -9.97046  -9.96641  -9.96255
 Alpha  occ. eigenvalues --   -9.96181  -9.95825  -9.95672  -9.95155  -9.95101
 Alpha  occ. eigenvalues --   -9.95060  -9.94532  -9.94485  -9.94238  -9.94029
 Alpha  occ. eigenvalues --   -9.93973  -9.93962  -9.93771  -9.93744  -9.93467
 Alpha  occ. eigenvalues --   -9.93436  -9.93294  -9.93185  -9.93078  -9.93072
 Alpha  occ. eigenvalues --   -9.92922  -9.92867  -9.92712  -9.92552  -9.92350
 Alpha  occ. eigenvalues --   -9.92325  -9.92238  -9.92137  -9.92129  -9.92123
 Alpha  occ. eigenvalues --   -9.92022  -9.91913  -9.91835  -9.91819  -9.91675
 Alpha  occ. eigenvalues --   -9.91611  -9.91596  -9.91400  -9.91372  -9.91365
 Alpha  occ. eigenvalues --   -9.91342  -9.91199  -9.91047  -9.91014  -9.90975
 Alpha  occ. eigenvalues --   -9.90769  -2.91661  -1.72090  -1.71558  -1.71359
 Alpha  occ. eigenvalues --   -1.00081  -0.97028  -0.93178  -0.91063  -0.89331
 Alpha  occ. eigenvalues --   -0.87103  -0.86376  -0.85511  -0.84447  -0.83701
 Alpha  occ. eigenvalues --   -0.75265  -0.73657  -0.72796  -0.72766  -0.72036
 Alpha  occ. eigenvalues --   -0.71595  -0.71443  -0.70723  -0.70693  -0.70307
 Alpha  occ. eigenvalues --   -0.69846  -0.68679  -0.68121  -0.67767  -0.67396
 Alpha  occ. eigenvalues --   -0.66568  -0.66109  -0.65216  -0.64851  -0.64392
 Alpha  occ. eigenvalues --   -0.63832  -0.62506  -0.62177  -0.62061  -0.61119
 Alpha  occ. eigenvalues --   -0.60926  -0.60126  -0.60026  -0.59750  -0.59178
 Alpha  occ. eigenvalues --   -0.58242  -0.57374  -0.56874  -0.55892  -0.54570
 Alpha  occ. eigenvalues --   -0.54217  -0.53664  -0.52826  -0.52228  -0.51840
 Alpha  occ. eigenvalues --   -0.51165  -0.51129  -0.50308  -0.50165  -0.50103
 Alpha  occ. eigenvalues --   -0.49781  -0.49120  -0.48896  -0.48707  -0.46859
 Alpha  occ. eigenvalues --   -0.46659  -0.45807  -0.45538  -0.45155  -0.45082
 Alpha  occ. eigenvalues --   -0.44213  -0.43911  -0.43157  -0.42590  -0.42320
 Alpha  occ. eigenvalues --   -0.42004  -0.41812  -0.41668  -0.41308  -0.41138
 Alpha  occ. eigenvalues --   -0.40972  -0.40717  -0.40571  -0.40373  -0.40170
 Alpha  occ. eigenvalues --   -0.39857  -0.39674  -0.39609  -0.39346  -0.39038
 Alpha  occ. eigenvalues --   -0.38843  -0.38760  -0.38699  -0.38606  -0.38493
 Alpha  occ. eigenvalues --   -0.38026  -0.37687  -0.37428  -0.37303  -0.37130
 Alpha  occ. eigenvalues --   -0.36935  -0.36808  -0.36733  -0.36649  -0.36470
 Alpha  occ. eigenvalues --   -0.36346  -0.36187  -0.36107  -0.35871  -0.35482
 Alpha  occ. eigenvalues --   -0.35346  -0.35172  -0.34970  -0.34743  -0.34505
 Alpha  occ. eigenvalues --   -0.34392  -0.34221  -0.34182  -0.34008  -0.33837
 Alpha  occ. eigenvalues --   -0.33740  -0.33696  -0.33501  -0.33395  -0.33312
 Alpha  occ. eigenvalues --   -0.33060  -0.32835  -0.32689  -0.32657  -0.32460
 Alpha  occ. eigenvalues --   -0.32300  -0.32104  -0.32007  -0.31618  -0.31568
 Alpha  occ. eigenvalues --   -0.31317  -0.31178  -0.31049  -0.30754  -0.30719
 Alpha  occ. eigenvalues --   -0.30651  -0.30267  -0.30149  -0.30074  -0.29946
 Alpha  occ. eigenvalues --   -0.29821  -0.29722  -0.29447  -0.29141  -0.28898
 Alpha  occ. eigenvalues --   -0.28730  -0.28469  -0.28381  -0.28273  -0.28076
 Alpha  occ. eigenvalues --   -0.27961  -0.27880  -0.27380  -0.27210  -0.26778
 Alpha  occ. eigenvalues --   -0.26341  -0.26087  -0.25952  -0.25523  -0.25380
 Alpha  occ. eigenvalues --   -0.25314  -0.25085  -0.24376  -0.24203  -0.23634
 Alpha  occ. eigenvalues --   -0.23402  -0.21962  -0.21490  -0.21234  -0.20814
 Alpha  occ. eigenvalues --   -0.20332  -0.20017  -0.18922  -0.18420  -0.17099
 Alpha  occ. eigenvalues --   -0.15446
 Alpha virt. eigenvalues --   -0.11112  -0.07116  -0.06113  -0.04515  -0.04381
 Alpha virt. eigenvalues --   -0.03060  -0.02275  -0.01846  -0.01345   0.00543
 Alpha virt. eigenvalues --    0.01101   0.01448   0.01913   0.02593   0.02806

 Mulliken charges:
               1
     1  Mg   0.674391
     2  C    0.037847
     3  C   -0.052118
     4  C   -0.011676
     5  C   -0.100091
     6  N   -0.175137
     7  C   -0.090717
     8  C    0.003012
     9  C    0.010014
    10  C   -0.002516
    11  C    0.116566
    12  C    0.102062
    13  C    0.166297
    14  C    0.081956
    15  O   -0.255881
    16  O   -0.266187
    17  N   -0.347557
    18  C    0.137590
    19  C   -0.124179
    20  C    0.054791
    21  C    0.114763
    22  C    0.145705
    23  C   -0.077464
    24  O   -0.158106
    25  C    0.121662
    26  N   -0.203697
    27  C   -0.030866
    28  C    0.009149
    29  C    0.072013
    30  C    0.011427
    31  C    0.119775
    32  C    0.098764
    33  C    0.069778
    34  N   -0.294322
    35  C    0.119684
    36  C   -0.186347
    37  C    0.058765
    38  C    0.077898
    39  C    0.206879
    40  C   -0.080022
    41  O   -0.096405
    42  C    0.119081
    43  C    0.075161
    44  O   -0.208609
    45  O   -0.226505
    46  C    0.219217
    47  C    0.295000
    48  C   -0.094117
    49  C   -0.115770
    50  C    0.144397
    51  C    0.133981
    52  C    0.059594
    53  C    0.123937
    54  C   -0.124131
    55  C    0.107342
    56  C    0.079534
    57  C    0.068538
    58  C    0.104196
    59  C   -0.093919
    60  C    0.106930
    61  C    0.132754
    62  C    0.042220
    63  C    0.112555
    64  C   -0.087653
    65  C    0.086981
    66  C    0.099724
    67  H   -0.068968
    68  H   -0.048359
    69  H   -0.061865
    70  H   -0.010853
    71  H   -0.013750
    72  H   -0.008791
    73  H   -0.006709
    74  H    0.010240
    75  H   -0.015206
    76  H   -0.005324
    77  H    0.007261
    78  H   -0.019965
    79  H    0.001084
    80  H    0.010519
    81  H   -0.024267
    82  H   -0.017275
    83  H   -0.000763
    84  H    0.023093
    85  H   -0.012386
    86  H   -0.031288
    87  H    0.002445
    88  H   -0.007029
    89  H   -0.001125
    90  H   -0.021602
    91  H   -0.031608
    92  H   -0.013827
    93  H   -0.004745
    94  H   -0.016488
    95  H    0.012365
    96  H    0.007000
    97  H    0.002147
    98  H   -0.001743
    99  H    0.024714
   100  H    0.023301
   101  H    0.007134
   102  H    0.023744
   103  H   -0.018013
   104  H   -0.032417
   105  H   -0.022654
   106  H    0.012888
   107  H   -0.005637
   108  H   -0.036968
   109  H   -0.027174
   110  H   -0.023406
   111  H   -0.033464
   112  H   -0.026051
   113  H   -0.027207
   114  H   -0.040345
   115  H   -0.023501
   116  H   -0.010642
   117  H   -0.025350
   118  H   -0.047539
   119  H   -0.035364
   120  H   -0.015259
   121  H   -0.022631
   122  H   -0.042209
   123  H   -0.027827
   124  H   -0.030534
   125  H   -0.012683
   126  H    0.008924
   127  H   -0.010981
   128  H   -0.040626
   129  H   -0.030979
   130  H   -0.040906
   131  H   -0.043228
   132  H   -0.034007
   133  H   -0.035474
   134  H   -0.037459
   135  H   -0.024156
   136  H   -0.016898
   137  H   -0.020061
   138  H   -0.014906
   139  H   -0.009725
   140  H   -0.004579
 Sum of Mulliken charges =  -0.00000

 Dipole moment (field-independent basis, Debye):
    X=              4.1389    Y=              1.9424    Z=             -0.9541  Tot=              4.6706
 Quadrupole moment (field-independent basis, Debye-Ang):
   XX=           -365.8986   YY=           -430.9166   ZZ=           -421.1841
   XY=            -15.1831   XZ=             14.9797   YZ=             -6.2216

 Normal termination of Gaussian 16 at Wed Apr 27 13:03:36 2022.
