 Gaussian 16, Revision A.03,
 Gaussian 16:  ES64L-G16RevA.03 25-Dec-2016

 -----------------------------------
 #p cam-b3lyp/Def2SVP td=(nstates=5)
 -----------------------------------

 --------------------------------------------------------
 step_1151_chromophore_27 TDDFT with cam-b3lyp functional
 --------------------------------------------------------
 Symbolic Z-matrix:
 Charge =  0 Multiplicity = 1

                         Standard orientation:
 ---------------------------------------------------------------------
 Center     Atomic      Atomic             Coordinates (Angstroms)
 Number     Number       Type             X           Y           Z
 ---------------------------------------------------------------------
      1         12           0       -4.687872    0.814429    0.112053
      2          6           0       -3.971875   -2.643657    0.161512
      3          6           0       -1.361290    1.491990    0.003578
      4          6           0       -5.533094    4.035569    0.081634
      5          6           0       -8.062238    0.046308    0.843607
      6          7           0       -2.849538   -0.509309   -0.045381
      7          6           0       -2.818286   -1.865666    0.037463
      8          6           0       -1.399350   -2.368278   -0.080043
      9          6           0       -0.515621   -1.013557    0.167616
     10          6           0       -1.643526    0.064303    0.048538
     11          6           0        0.205880   -0.888672    1.605484
     12          6           0       -1.064508   -3.095867   -1.500551
     13          6           0       -0.041220   -4.243439   -1.499305
     14          6           0        1.172925   -3.924870   -2.348074
     15          8           0        1.222439   -4.195320   -3.599950
     16          8           0        2.272188   -3.671097   -1.600487
     17          7           0       -3.610858    2.519367    0.190032
     18          6           0       -2.238837    2.561280    0.064439
     19          6           0       -1.838079    3.938500    0.160923
     20          6           0       -2.985545    4.756666    0.289337
     21          6           0       -4.123195    3.822392    0.209234
     22          6           0       -0.368910    4.287020   -0.004607
     23          6           0       -3.200400    6.257748    0.429363
     24          8           0       -4.286171    6.835376    0.484233
     25          6           0       -1.974884    7.156043    0.522392
     26          7           0       -6.535218    1.917483    0.507600
     27          6           0       -6.668180    3.218505    0.132206
     28          6           0       -8.158106    3.683520   -0.133898
     29          6           0       -8.874084    2.326814    0.086991
     30          6           0       -7.806906    1.375741    0.544464
     31          6           0       -8.580844    4.766453    0.927034
     32          6           0       -9.768351    1.835478   -1.080842
     33          6           0      -11.091663    2.535529   -1.232823
     34          7           0       -5.837769   -0.906113    0.508002
     35          6           0       -7.214462   -1.081207    0.776624
     36          6           0       -7.546988   -2.512032    0.956811
     37          6           0       -6.298463   -3.108545    0.758733
     38          6           0       -5.265445   -2.162987    0.415128
     39          6           0       -8.831590   -3.103403    1.212247
     40          6           0       -5.626008   -4.444458    0.643662
     41          8           0       -6.131864   -5.516970    0.776030
     42          6           0       -4.142099   -4.179480    0.200835
     43          6           0       -3.312940   -4.788526    1.206392
     44          8           0       -3.275868   -4.520984    2.407393
     45          8           0       -2.583381   -5.724282    0.650878
     46          6           0       -1.622503   -6.365287    1.535472
     47          6           0        3.627186   -3.809492   -2.281896
     48          6           0        4.348864   -2.396950   -2.334491
     49          6           0        5.566621   -2.021832   -1.868034
     50          6           0        6.612547   -2.908055   -1.128340
     51          6           0        6.000858   -0.603435   -2.139601
     52          6           0        6.420886   -0.309217   -3.600485
     53          6           0        7.886543    0.216367   -3.753296
     54          6           0        7.772668    1.783335   -3.858378
     55          6           0        7.469779    2.267868   -5.305092
     56          6           0        9.028790    2.485825   -3.200890
     57          6           0        8.997442    2.749478   -1.670538
     58          6           0       10.344345    2.317332   -0.963547
     59          6           0       10.001306    1.586201    0.354982
     60          6           0        9.808989    0.012698    0.006804
     61          6           0       11.032807    1.885958    1.460440
     62          6           0       10.435281    1.528144    2.864362
     63          6           0       11.102831    0.355094    3.651796
     64          6           0       11.115530    0.466797    5.219251
     65          6           0       12.429470   -0.063482    5.831034
     66          6           0        9.883941   -0.173699    5.917197
     67          1           0       -0.337935    1.854887   -0.102301
     68          1           0       -5.902015    5.058618   -0.018396
     69          1           0       -9.104251   -0.091993    1.138839
     70          1           0       -1.182427   -3.066163    0.728292
     71          1           0        0.082506   -0.738020   -0.699761
     72          1           0        0.069627    0.059980    2.126164
     73          1           0        1.290229   -0.836125    1.504571
     74          1           0       -0.122030   -1.682300    2.276274
     75          1           0       -0.556571   -2.319001   -2.071635
     76          1           0       -1.955751   -3.319621   -2.086562
     77          1           0       -0.489750   -5.172357   -1.849207
     78          1           0        0.260323   -4.503841   -0.484648
     79          1           0       -0.102209    4.316118   -1.061314
     80          1           0        0.239049    3.543931    0.511581
     81          1           0       -0.073462    5.305230    0.251096
     82          1           0       -2.185300    8.216273    0.381562
     83          1           0       -1.395281    6.920707   -0.370427
     84          1           0       -1.475717    7.022215    1.481945
     85          1           0       -8.356963    4.071741   -1.133587
     86          1           0       -9.547205    2.426591    0.937841
     87          1           0       -7.684894    5.198052    1.373219
     88          1           0       -9.136950    4.354097    1.768490
     89          1           0       -9.101973    5.561811    0.393458
     90          1           0       -9.848874    0.748834   -1.052964
     91          1           0       -9.274014    2.103300   -2.014838
     92          1           0      -11.079722    3.428995   -0.608676
     93          1           0      -11.940127    1.882054   -1.031161
     94          1           0      -11.303841    2.937787   -2.223651
     95          1           0       -8.682779   -4.179698    1.288619
     96          1           0       -9.509206   -2.732296    0.443785
     97          1           0       -9.110854   -2.716934    2.192905
     98          1           0       -4.105970   -4.625823   -0.793288
     99          1           0       -2.248050   -6.857293    2.280889
    100          1           0       -0.863716   -5.694423    1.936762
    101          1           0       -1.135111   -7.115315    0.912237
    102          1           0        3.598907   -4.290296   -3.259678
    103          1           0        4.240734   -4.468999   -1.668513
    104          1           0        3.615119   -1.661622   -2.663060
    105          1           0        6.203271   -3.914638   -1.041224
    106          1           0        7.047809   -2.519737   -0.207931
    107          1           0        7.465466   -3.017394   -1.797222
    108          1           0        6.825084   -0.290778   -1.499720
    109          1           0        5.159338    0.063650   -1.951001
    110          1           0        5.749156    0.413640   -4.063343
    111          1           0        6.337581   -1.249245   -4.145630
    112          1           0        8.251295   -0.195150   -4.694859
    113          1           0        8.480395    0.063045   -2.853003
    114          1           0        6.927173    2.101472   -3.248194
    115          1           0        8.376621    2.716808   -5.709591
    116          1           0        6.623350    2.952716   -5.350426
    117          1           0        7.294862    1.547413   -6.103791
    118          1           0        9.130836    3.407520   -3.775232
    119          1           0        9.881293    1.896064   -3.535550
    120          1           0        8.080334    2.252840   -1.352626
    121          1           0        8.872166    3.821613   -1.513068
    122          1           0       10.896328    3.235479   -0.758981
    123          1           0       10.947866    1.764173   -1.682668
    124          1           0        9.034145    2.027665    0.593296
    125          1           0        9.671681   -0.021933   -1.073850
    126          1           0        8.957180   -0.337913    0.590056
    127          1           0       10.728889   -0.536421    0.211210
    128          1           0       11.140331    2.961767    1.599347
    129          1           0       12.004940    1.392703    1.459391
    130          1           0        9.368495    1.433729    2.660621
    131          1           0       10.518767    2.411914    3.496765
    132          1           0       12.112292    0.236765    3.257337
    133          1           0       10.512722   -0.549165    3.498265
    134          1           0       11.174229    1.524122    5.477689
    135          1           0       12.195000   -0.995837    6.344952
    136          1           0       12.863712    0.604381    6.575641
    137          1           0       13.227292   -0.231690    5.107914
    138          1           0        8.931350    0.141222    5.490572
    139          1           0        9.924951    0.198977    6.940849
    140          1           0        9.953662   -1.258971    5.850848
 ---------------------------------------------------------------------

 SCF Done:  E(RCAM-B3LYP) =  -3007.15609283     A.U. after   19 cycles

 Excitation energies and oscillator strengths:

 Excited State   1:      Singlet-A      1.6993 eV  729.63 nm  f=0.3438  <S**2>=0.000
     245 -> 248        0.20077
     246 -> 247        0.67972
     245 <- 248        0.11302
 This state for optimization and/or second-order correction.
 Total Energy, E(TD-HF/TD-DFT) =  -3007.09364595
 Copying the excited state density for this state as the 1-particle RhoCI density.

 Excited State   2:      Singlet-A      2.2362 eV  554.44 nm  f=0.0495  <S**2>=0.000
     245 -> 247        0.60291
     246 -> 248       -0.36031

 Excited State   3:      Singlet-A      3.3628 eV  368.70 nm  f=0.7013  <S**2>=0.000
     241 -> 247        0.10296
     243 -> 247        0.18008
     245 -> 247        0.33396
     246 -> 248        0.58470
     245 <- 247       -0.11137

 Excited State   4:      Singlet-A      3.4623 eV  358.10 nm  f=0.0038  <S**2>=0.000
     243 -> 247       -0.12453
     244 -> 247        0.68060

 Excited State   5:      Singlet-A      3.6111 eV  343.34 nm  f=0.0010  <S**2>=0.000
     240 -> 247        0.50815
     240 -> 248        0.12625
     240 -> 249       -0.36337
     240 -> 250        0.16746
     240 -> 251       -0.10714
     240 -> 259       -0.10644

 The electronic state is 1-A.
 Alpha  occ. eigenvalues --  -46.88606 -19.26074 -19.25794 -19.19351 -19.19016
 Alpha  occ. eigenvalues --  -19.18963 -19.18835 -14.42300 -14.41474 -14.39313
 Alpha  occ. eigenvalues --  -14.39102 -10.39694 -10.38590 -10.35376 -10.34921
 Alpha  occ. eigenvalues --  -10.33219 -10.32137 -10.31656 -10.31029 -10.30811
 Alpha  occ. eigenvalues --  -10.30679 -10.30081 -10.29822 -10.29552 -10.29247
 Alpha  occ. eigenvalues --  -10.29213 -10.28820 -10.28675 -10.28488 -10.28488
 Alpha  occ. eigenvalues --  -10.28252 -10.28066 -10.27953 -10.27731 -10.27726
 Alpha  occ. eigenvalues --  -10.27704 -10.27279 -10.27247 -10.27123 -10.27028
 Alpha  occ. eigenvalues --  -10.26945 -10.26673 -10.26538 -10.26297 -10.26158
 Alpha  occ. eigenvalues --  -10.26156 -10.25882 -10.25869 -10.25852 -10.25776
 Alpha  occ. eigenvalues --  -10.25774 -10.25765 -10.25729 -10.25651 -10.25408
 Alpha  occ. eigenvalues --  -10.25368 -10.25303 -10.25110 -10.25104 -10.25063
 Alpha  occ. eigenvalues --  -10.25032 -10.24984 -10.24851 -10.24795 -10.24733
 Alpha  occ. eigenvalues --  -10.24386  -3.17072  -1.91980  -1.91530  -1.91370
 Alpha  occ. eigenvalues --   -1.18764  -1.15401  -1.11618  -1.09561  -1.07350
 Alpha  occ. eigenvalues --   -1.04881  -1.04113  -1.03132  -1.02035  -1.01089
 Alpha  occ. eigenvalues --   -0.92355  -0.90565  -0.89582  -0.89437  -0.88762
 Alpha  occ. eigenvalues --   -0.88303  -0.88139  -0.87322  -0.87184  -0.86803
 Alpha  occ. eigenvalues --   -0.86518  -0.85024  -0.84322  -0.83976  -0.83504
 Alpha  occ. eigenvalues --   -0.82609  -0.82189  -0.81219  -0.80670  -0.80410
 Alpha  occ. eigenvalues --   -0.79604  -0.78220  -0.77808  -0.77646  -0.76543
 Alpha  occ. eigenvalues --   -0.76335  -0.75476  -0.75374  -0.74992  -0.74451
 Alpha  occ. eigenvalues --   -0.73291  -0.72335  -0.71760  -0.70723  -0.69138
 Alpha  occ. eigenvalues --   -0.68851  -0.68250  -0.67239  -0.66640  -0.66059
 Alpha  occ. eigenvalues --   -0.65367  -0.65219  -0.64324  -0.64209  -0.64044
 Alpha  occ. eigenvalues --   -0.63550  -0.63065  -0.62832  -0.62506  -0.60381
 Alpha  occ. eigenvalues --   -0.60348  -0.59550  -0.59096  -0.58708  -0.58455
 Alpha  occ. eigenvalues --   -0.57640  -0.57256  -0.56452  -0.55733  -0.55425
 Alpha  occ. eigenvalues --   -0.55275  -0.54776  -0.54604  -0.54107  -0.53889
 Alpha  occ. eigenvalues --   -0.53668  -0.53556  -0.53322  -0.52984  -0.52908
 Alpha  occ. eigenvalues --   -0.52829  -0.52394  -0.52288  -0.51994  -0.51898
 Alpha  occ. eigenvalues --   -0.51239  -0.51171  -0.51041  -0.51004  -0.50865
 Alpha  occ. eigenvalues --   -0.50380  -0.50214  -0.49997  -0.49710  -0.49525
 Alpha  occ. eigenvalues --   -0.49324  -0.49286  -0.49213  -0.48959  -0.48880
 Alpha  occ. eigenvalues --   -0.48542  -0.48517  -0.48293  -0.47955  -0.47555
 Alpha  occ. eigenvalues --   -0.47429  -0.47219  -0.47095  -0.46551  -0.46401
 Alpha  occ. eigenvalues --   -0.46313  -0.46154  -0.46029  -0.45952  -0.45675
 Alpha  occ. eigenvalues --   -0.45506  -0.45381  -0.45313  -0.45098  -0.45052
 Alpha  occ. eigenvalues --   -0.44697  -0.44515  -0.44466  -0.44249  -0.44122
 Alpha  occ. eigenvalues --   -0.43940  -0.43648  -0.43464  -0.43274  -0.43069
 Alpha  occ. eigenvalues --   -0.42924  -0.42696  -0.42617  -0.42356  -0.42293
 Alpha  occ. eigenvalues --   -0.42091  -0.42004  -0.41662  -0.41346  -0.41283
 Alpha  occ. eigenvalues --   -0.41113  -0.40947  -0.40850  -0.40487  -0.39971
 Alpha  occ. eigenvalues --   -0.39817  -0.39450  -0.39313  -0.39200  -0.38961
 Alpha  occ. eigenvalues --   -0.38860  -0.38709  -0.38206  -0.38025  -0.37548
 Alpha  occ. eigenvalues --   -0.37392  -0.37100  -0.37039  -0.36680  -0.36289
 Alpha  occ. eigenvalues --   -0.36167  -0.35922  -0.34977  -0.34602  -0.34398
 Alpha  occ. eigenvalues --   -0.34210  -0.33310  -0.33005  -0.31143  -0.30749
 Alpha  occ. eigenvalues --   -0.30617  -0.30306  -0.30086  -0.29203  -0.23879
 Alpha  occ. eigenvalues --   -0.20604
 Alpha virt. eigenvalues --   -0.08025  -0.02169   0.00440   0.02640   0.03011
 Alpha virt. eigenvalues --    0.03180   0.04358   0.05589   0.06069   0.06629
 Alpha virt. eigenvalues --    0.08000   0.08164   0.08362   0.08746   0.09207

 Mulliken charges:
               1
     1  Mg   0.805535
     2  C    0.004884
     3  C   -0.072212
     4  C   -0.034618
     5  C   -0.109813
     6  N   -0.245297
     7  C   -0.046642
     8  C   -0.039014
     9  C   -0.041269
    10  C    0.020544
    11  C    0.059349
    12  C    0.049393
    13  C    0.097634
    14  C    0.161927
    15  O   -0.299368
    16  O   -0.331186
    17  N   -0.436696
    18  C    0.150423
    19  C   -0.130870
    20  C   -0.015485
    21  C    0.140860
    22  C    0.086404
    23  C    0.003561
    24  O   -0.197687
    25  C    0.041447
    26  N   -0.270194
    27  C   -0.013613
    28  C   -0.039406
    29  C    0.008926
    30  C    0.032454
    31  C    0.061604
    32  C    0.042452
    33  C    0.008094
    34  N   -0.379235
    35  C    0.127033
    36  C   -0.180386
    37  C   -0.015813
    38  C    0.111466
    39  C    0.146889
    40  C    0.021763
    41  O   -0.135444
    42  C    0.039008
    43  C    0.161579
    44  O   -0.245987
    45  O   -0.286973
    46  C    0.176600
    47  C    0.264234
    48  C   -0.115550
    49  C   -0.141706
    50  C    0.089212
    51  C    0.079558
    52  C    0.005401
    53  C    0.074104
    54  C   -0.173363
    55  C    0.044449
    56  C    0.027589
    57  C    0.013657
    58  C    0.049947
    59  C   -0.149838
    60  C    0.056117
    61  C    0.074871
    62  C   -0.006776
    63  C    0.058764
    64  C   -0.148128
    65  C    0.029013
    66  C    0.041104
    67  H   -0.031799
    68  H   -0.010913
    69  H   -0.025903
    70  H    0.017630
    71  H    0.018352
    72  H    0.017150
    73  H    0.017967
    74  H    0.034030
    75  H    0.013960
    76  H    0.025591
    77  H    0.040679
    78  H    0.013360
    79  H    0.030231
    80  H    0.035367
    81  H    0.006287
    82  H    0.018665
    83  H    0.024415
    84  H    0.050163
    85  H    0.021693
    86  H    0.003538
    87  H    0.028004
    88  H    0.018270
    89  H    0.022614
    90  H    0.008866
    91  H   -0.002949
    92  H    0.007585
    93  H    0.019182
    94  H    0.008705
    95  H    0.040167
    96  H    0.031098
    97  H    0.027730
    98  H    0.042529
    99  H    0.051027
   100  H    0.044236
   101  H    0.031714
   102  H    0.056929
   103  H    0.010467
   104  H   -0.000703
   105  H    0.000798
   106  H    0.035800
   107  H    0.017507
   108  H   -0.011874
   109  H    0.003619
   110  H    0.004208
   111  H   -0.002206
   112  H    0.003467
   113  H   -0.007339
   114  H   -0.010005
   115  H    0.001373
   116  H    0.013856
   117  H    0.000365
   118  H   -0.015854
   119  H   -0.008003
   120  H    0.007866
   121  H    0.006830
   122  H   -0.010572
   123  H    0.000495
   124  H    0.001407
   125  H    0.005074
   126  H    0.027247
   127  H    0.013527
   128  H   -0.008848
   129  H   -0.003010
   130  H   -0.013853
   131  H   -0.013898
   132  H   -0.006950
   133  H   -0.008901
   134  H   -0.006298
   135  H   -0.000255
   136  H    0.007672
   137  H    0.004924
   138  H    0.008969
   139  H    0.014374
   140  H    0.017275
 Sum of Mulliken charges =  -0.00000

 Dipole moment (field-independent basis, Debye):
    X=              4.7406    Y=              2.4336    Z=             -1.0383  Tot=              5.4289
 Quadrupole moment (field-independent basis, Debye-Ang):
   XX=           -366.6756   YY=           -426.3421   ZZ=           -422.0680
   XY=            -16.1832   XZ=             16.0766   YZ=             -6.6859

 Normal termination of Gaussian 16 at Wed Apr 27 11:56:14 2022.
