 Gaussian 16, Revision A.03,
 Gaussian 16:  ES64L-G16RevA.03 25-Dec-2016

 ---------------------------------
 #p PBE1PBE/Def2SVP td=(nstates=5)
 ---------------------------------

 ------------------------------------------------------
 step_1151_chromophore_27 TDDFT with PBE1PBE functional
 ------------------------------------------------------
 Symbolic Z-matrix:
 Charge =  0 Multiplicity = 1

                         Standard orientation:
 ---------------------------------------------------------------------
 Center     Atomic      Atomic             Coordinates (Angstroms)
 Number     Number       Type             X           Y           Z
 ---------------------------------------------------------------------
      1         12           0       -4.687872    0.814429    0.112053
      2          6           0       -3.971875   -2.643657    0.161512
      3          6           0       -1.361290    1.491990    0.003578
      4          6           0       -5.533094    4.035569    0.081634
      5          6           0       -8.062238    0.046308    0.843607
      6          7           0       -2.849538   -0.509309   -0.045381
      7          6           0       -2.818286   -1.865666    0.037463
      8          6           0       -1.399350   -2.368278   -0.080043
      9          6           0       -0.515621   -1.013557    0.167616
     10          6           0       -1.643526    0.064303    0.048538
     11          6           0        0.205880   -0.888672    1.605484
     12          6           0       -1.064508   -3.095867   -1.500551
     13          6           0       -0.041220   -4.243439   -1.499305
     14          6           0        1.172925   -3.924870   -2.348074
     15          8           0        1.222439   -4.195320   -3.599950
     16          8           0        2.272188   -3.671097   -1.600487
     17          7           0       -3.610858    2.519367    0.190032
     18          6           0       -2.238837    2.561280    0.064439
     19          6           0       -1.838079    3.938500    0.160923
     20          6           0       -2.985545    4.756666    0.289337
     21          6           0       -4.123195    3.822392    0.209234
     22          6           0       -0.368910    4.287020   -0.004607
     23          6           0       -3.200400    6.257748    0.429363
     24          8           0       -4.286171    6.835376    0.484233
     25          6           0       -1.974884    7.156043    0.522392
     26          7           0       -6.535218    1.917483    0.507600
     27          6           0       -6.668180    3.218505    0.132206
     28          6           0       -8.158106    3.683520   -0.133898
     29          6           0       -8.874084    2.326814    0.086991
     30          6           0       -7.806906    1.375741    0.544464
     31          6           0       -8.580844    4.766453    0.927034
     32          6           0       -9.768351    1.835478   -1.080842
     33          6           0      -11.091663    2.535529   -1.232823
     34          7           0       -5.837769   -0.906113    0.508002
     35          6           0       -7.214462   -1.081207    0.776624
     36          6           0       -7.546988   -2.512032    0.956811
     37          6           0       -6.298463   -3.108545    0.758733
     38          6           0       -5.265445   -2.162987    0.415128
     39          6           0       -8.831590   -3.103403    1.212247
     40          6           0       -5.626008   -4.444458    0.643662
     41          8           0       -6.131864   -5.516970    0.776030
     42          6           0       -4.142099   -4.179480    0.200835
     43          6           0       -3.312940   -4.788526    1.206392
     44          8           0       -3.275868   -4.520984    2.407393
     45          8           0       -2.583381   -5.724282    0.650878
     46          6           0       -1.622503   -6.365287    1.535472
     47          6           0        3.627186   -3.809492   -2.281896
     48          6           0        4.348864   -2.396950   -2.334491
     49          6           0        5.566621   -2.021832   -1.868034
     50          6           0        6.612547   -2.908055   -1.128340
     51          6           0        6.000858   -0.603435   -2.139601
     52          6           0        6.420886   -0.309217   -3.600485
     53          6           0        7.886543    0.216367   -3.753296
     54          6           0        7.772668    1.783335   -3.858378
     55          6           0        7.469779    2.267868   -5.305092
     56          6           0        9.028790    2.485825   -3.200890
     57          6           0        8.997442    2.749478   -1.670538
     58          6           0       10.344345    2.317332   -0.963547
     59          6           0       10.001306    1.586201    0.354982
     60          6           0        9.808989    0.012698    0.006804
     61          6           0       11.032807    1.885958    1.460440
     62          6           0       10.435281    1.528144    2.864362
     63          6           0       11.102831    0.355094    3.651796
     64          6           0       11.115530    0.466797    5.219251
     65          6           0       12.429470   -0.063482    5.831034
     66          6           0        9.883941   -0.173699    5.917197
     67          1           0       -0.337935    1.854887   -0.102301
     68          1           0       -5.902015    5.058618   -0.018396
     69          1           0       -9.104251   -0.091993    1.138839
     70          1           0       -1.182427   -3.066163    0.728292
     71          1           0        0.082506   -0.738020   -0.699761
     72          1           0        0.069627    0.059980    2.126164
     73          1           0        1.290229   -0.836125    1.504571
     74          1           0       -0.122030   -1.682300    2.276274
     75          1           0       -0.556571   -2.319001   -2.071635
     76          1           0       -1.955751   -3.319621   -2.086562
     77          1           0       -0.489750   -5.172357   -1.849207
     78          1           0        0.260323   -4.503841   -0.484648
     79          1           0       -0.102209    4.316118   -1.061314
     80          1           0        0.239049    3.543931    0.511581
     81          1           0       -0.073462    5.305230    0.251096
     82          1           0       -2.185300    8.216273    0.381562
     83          1           0       -1.395281    6.920707   -0.370427
     84          1           0       -1.475717    7.022215    1.481945
     85          1           0       -8.356963    4.071741   -1.133587
     86          1           0       -9.547205    2.426591    0.937841
     87          1           0       -7.684894    5.198052    1.373219
     88          1           0       -9.136950    4.354097    1.768490
     89          1           0       -9.101973    5.561811    0.393458
     90          1           0       -9.848874    0.748834   -1.052964
     91          1           0       -9.274014    2.103300   -2.014838
     92          1           0      -11.079722    3.428995   -0.608676
     93          1           0      -11.940127    1.882054   -1.031161
     94          1           0      -11.303841    2.937787   -2.223651
     95          1           0       -8.682779   -4.179698    1.288619
     96          1           0       -9.509206   -2.732296    0.443785
     97          1           0       -9.110854   -2.716934    2.192905
     98          1           0       -4.105970   -4.625823   -0.793288
     99          1           0       -2.248050   -6.857293    2.280889
    100          1           0       -0.863716   -5.694423    1.936762
    101          1           0       -1.135111   -7.115315    0.912237
    102          1           0        3.598907   -4.290296   -3.259678
    103          1           0        4.240734   -4.468999   -1.668513
    104          1           0        3.615119   -1.661622   -2.663060
    105          1           0        6.203271   -3.914638   -1.041224
    106          1           0        7.047809   -2.519737   -0.207931
    107          1           0        7.465466   -3.017394   -1.797222
    108          1           0        6.825084   -0.290778   -1.499720
    109          1           0        5.159338    0.063650   -1.951001
    110          1           0        5.749156    0.413640   -4.063343
    111          1           0        6.337581   -1.249245   -4.145630
    112          1           0        8.251295   -0.195150   -4.694859
    113          1           0        8.480395    0.063045   -2.853003
    114          1           0        6.927173    2.101472   -3.248194
    115          1           0        8.376621    2.716808   -5.709591
    116          1           0        6.623350    2.952716   -5.350426
    117          1           0        7.294862    1.547413   -6.103791
    118          1           0        9.130836    3.407520   -3.775232
    119          1           0        9.881293    1.896064   -3.535550
    120          1           0        8.080334    2.252840   -1.352626
    121          1           0        8.872166    3.821613   -1.513068
    122          1           0       10.896328    3.235479   -0.758981
    123          1           0       10.947866    1.764173   -1.682668
    124          1           0        9.034145    2.027665    0.593296
    125          1           0        9.671681   -0.021933   -1.073850
    126          1           0        8.957180   -0.337913    0.590056
    127          1           0       10.728889   -0.536421    0.211210
    128          1           0       11.140331    2.961767    1.599347
    129          1           0       12.004940    1.392703    1.459391
    130          1           0        9.368495    1.433729    2.660621
    131          1           0       10.518767    2.411914    3.496765
    132          1           0       12.112292    0.236765    3.257337
    133          1           0       10.512722   -0.549165    3.498265
    134          1           0       11.174229    1.524122    5.477689
    135          1           0       12.195000   -0.995837    6.344952
    136          1           0       12.863712    0.604381    6.575641
    137          1           0       13.227292   -0.231690    5.107914
    138          1           0        8.931350    0.141222    5.490572
    139          1           0        9.924951    0.198977    6.940849
    140          1           0        9.953662   -1.258971    5.850848
 ---------------------------------------------------------------------

 SCF Done:  E(RPBE1PBE) =  -3005.34445664     A.U. after   15 cycles

 Excitation energies and oscillator strengths:

 Excited State   1:      Singlet-A      1.8535 eV  668.93 nm  f=0.3348  <S**2>=0.000
     245 -> 248        0.19264
     246 -> 247        0.68704
 This state for optimization and/or second-order correction.
 Total Energy, E(TD-HF/TD-DFT) =  -3005.27634261
 Copying the excited state density for this state as the 1-particle RhoCI density.

 Excited State   2:      Singlet-A      2.2445 eV  552.40 nm  f=0.0576  <S**2>=0.000
     245 -> 247        0.62240
     246 -> 248       -0.32730

 Excited State   3:      Singlet-A      3.1027 eV  399.60 nm  f=0.0013  <S**2>=0.000
     244 -> 247        0.68973

 Excited State   4:      Singlet-A      3.1206 eV  397.31 nm  f=0.0198  <S**2>=0.000
     242 -> 247       -0.10363
     243 -> 247        0.62490
     243 -> 249       -0.18317
     244 -> 247       -0.10785
     246 -> 248        0.11806

 Excited State   5:      Singlet-A      3.1730 eV  390.74 nm  f=0.1230  <S**2>=0.000
     240 -> 247        0.28559
     242 -> 247        0.51645
     242 -> 249        0.10437
     245 -> 247        0.14049
     246 -> 248        0.30155

 The electronic state is 1-A.
 Alpha  occ. eigenvalues --  -46.92012 -19.26786 -19.26378 -19.19597 -19.19398
 Alpha  occ. eigenvalues --  -19.19096 -19.19077 -14.41770 -14.41010 -14.38987
 Alpha  occ. eigenvalues --  -14.38833 -10.36788 -10.35548 -10.32437 -10.32147
 Alpha  occ. eigenvalues --  -10.30650 -10.29337 -10.29333 -10.28803 -10.28459
 Alpha  occ. eigenvalues --  -10.28393 -10.27896 -10.27683 -10.27134 -10.27068
 Alpha  occ. eigenvalues --  -10.27056 -10.26493 -10.26358 -10.26328 -10.26148
 Alpha  occ. eigenvalues --  -10.26066 -10.25701 -10.25598 -10.25473 -10.25340
 Alpha  occ. eigenvalues --  -10.25222 -10.25126 -10.24904 -10.24516 -10.24488
 Alpha  occ. eigenvalues --  -10.24404 -10.24272 -10.24135 -10.23991 -10.23898
 Alpha  occ. eigenvalues --  -10.23820 -10.23547 -10.23544 -10.23417 -10.23300
 Alpha  occ. eigenvalues --  -10.23258 -10.23232 -10.23141 -10.23002 -10.22982
 Alpha  occ. eigenvalues --  -10.22875 -10.22862 -10.22808 -10.22701 -10.22672
 Alpha  occ. eigenvalues --  -10.22610 -10.22391 -10.22359 -10.22276 -10.22267
 Alpha  occ. eigenvalues --  -10.21773  -3.14061  -1.86909  -1.86436  -1.86281
 Alpha  occ. eigenvalues --   -1.13544  -1.10242  -1.06429  -1.04209  -1.02131
 Alpha  occ. eigenvalues --   -0.99755  -0.98701  -0.97752  -0.96645  -0.95804
 Alpha  occ. eigenvalues --   -0.86714  -0.84666  -0.83751  -0.83669  -0.82938
 Alpha  occ. eigenvalues --   -0.82437  -0.82391  -0.81564  -0.81423  -0.81139
 Alpha  occ. eigenvalues --   -0.80763  -0.79263  -0.78588  -0.78174  -0.77790
 Alpha  occ. eigenvalues --   -0.76843  -0.76414  -0.75489  -0.74882  -0.74656
 Alpha  occ. eigenvalues --   -0.73746  -0.72522  -0.72065  -0.71953  -0.70832
 Alpha  occ. eigenvalues --   -0.70548  -0.69561  -0.69469  -0.69361  -0.68632
 Alpha  occ. eigenvalues --   -0.67602  -0.66801  -0.66191  -0.65043  -0.63494
 Alpha  occ. eigenvalues --   -0.63090  -0.62678  -0.61707  -0.60860  -0.60501
 Alpha  occ. eigenvalues --   -0.59643  -0.59551  -0.58907  -0.58634  -0.58390
 Alpha  occ. eigenvalues --   -0.58064  -0.57235  -0.57081  -0.57023  -0.54853
 Alpha  occ. eigenvalues --   -0.54702  -0.53982  -0.53639  -0.53225  -0.53036
 Alpha  occ. eigenvalues --   -0.52174  -0.51791  -0.50958  -0.50338  -0.49957
 Alpha  occ. eigenvalues --   -0.49839  -0.49370  -0.48962  -0.48630  -0.48494
 Alpha  occ. eigenvalues --   -0.48230  -0.48061  -0.47944  -0.47433  -0.47348
 Alpha  occ. eigenvalues --   -0.47296  -0.47000  -0.46783  -0.46552  -0.46364
 Alpha  occ. eigenvalues --   -0.45835  -0.45707  -0.45630  -0.45538  -0.45498
 Alpha  occ. eigenvalues --   -0.44925  -0.44689  -0.44603  -0.44331  -0.44131
 Alpha  occ. eigenvalues --   -0.43903  -0.43871  -0.43770  -0.43576  -0.43441
 Alpha  occ. eigenvalues --   -0.43195  -0.43097  -0.42886  -0.42541  -0.42178
 Alpha  occ. eigenvalues --   -0.42099  -0.41826  -0.41747  -0.41215  -0.41128
 Alpha  occ. eigenvalues --   -0.40975  -0.40834  -0.40784  -0.40619  -0.40423
 Alpha  occ. eigenvalues --   -0.40152  -0.40006  -0.39949  -0.39846  -0.39824
 Alpha  occ. eigenvalues --   -0.39454  -0.39256  -0.39222  -0.38976  -0.38866
 Alpha  occ. eigenvalues --   -0.38748  -0.38509  -0.38153  -0.38115  -0.37916
 Alpha  occ. eigenvalues --   -0.37611  -0.37453  -0.37399  -0.37183  -0.37068
 Alpha  occ. eigenvalues --   -0.36900  -0.36766  -0.36561  -0.36257  -0.36127
 Alpha  occ. eigenvalues --   -0.36031  -0.35854  -0.35655  -0.35360  -0.34795
 Alpha  occ. eigenvalues --   -0.34635  -0.34378  -0.34155  -0.34031  -0.33963
 Alpha  occ. eigenvalues --   -0.33657  -0.33588  -0.33062  -0.32835  -0.32414
 Alpha  occ. eigenvalues --   -0.32348  -0.32024  -0.31872  -0.31708  -0.31365
 Alpha  occ. eigenvalues --   -0.31196  -0.30725  -0.29935  -0.29626  -0.29591
 Alpha  occ. eigenvalues --   -0.28975  -0.28558  -0.28103  -0.26755  -0.25854
 Alpha  occ. eigenvalues --   -0.25585  -0.25492  -0.25424  -0.24890  -0.20798
 Alpha  occ. eigenvalues --   -0.18301
 Alpha virt. eigenvalues --   -0.10586  -0.05572  -0.03791  -0.01748  -0.01402
 Alpha virt. eigenvalues --   -0.00137   0.00158   0.01077   0.01478   0.03448
 Alpha virt. eigenvalues --    0.04075   0.04244   0.04776   0.05434   0.05765

 Mulliken charges:
               1
     1  Mg   0.954689
     2  C   -0.017860
     3  C   -0.065792
     4  C   -0.038399
     5  C   -0.101923
     6  N   -0.348957
     7  C    0.025223
     8  C   -0.103129
     9  C   -0.117399
    10  C    0.061071
    11  C    0.003357
    12  C   -0.000349
    13  C    0.024540
    14  C    0.223207
    15  O   -0.328704
    16  O   -0.358107
    17  N   -0.550388
    18  C    0.174675
    19  C   -0.163086
    20  C   -0.064295
    21  C    0.174640
    22  C    0.029066
    23  C    0.055239
    24  O   -0.236325
    25  C   -0.032326
    26  N   -0.364468
    27  C    0.016378
    28  C   -0.115481
    29  C   -0.066326
    30  C    0.070660
    31  C    0.006916
    32  C   -0.019021
    33  C   -0.062595
    34  N   -0.497193
    35  C    0.149897
    36  C   -0.204702
    37  C   -0.066030
    38  C    0.171500
    39  C    0.084626
    40  C    0.127641
    41  O   -0.182433
    42  C   -0.073083
    43  C    0.259030
    44  O   -0.281554
    45  O   -0.322649
    46  C    0.120462
    47  C    0.218638
    48  C   -0.124972
    49  C   -0.188060
    50  C    0.023803
    51  C    0.014327
    52  C   -0.053863
    53  C   -0.001592
    54  C   -0.255769
    55  C   -0.012807
    56  C   -0.025854
    57  C   -0.052279
    58  C   -0.005203
    59  C   -0.238302
    60  C   -0.009855
    61  C    0.017226
    62  C   -0.063902
    63  C    0.001569
    64  C   -0.238717
    65  C   -0.028690
    66  C   -0.024882
    67  H   -0.000291
    68  H    0.022115
    69  H    0.006226
    70  H    0.058210
    71  H    0.053229
    72  H    0.044478
    73  H    0.045172
    74  H    0.059983
    75  H    0.048722
    76  H    0.056426
    77  H    0.072426
    78  H    0.046752
    79  H    0.058523
    80  H    0.060403
    81  H    0.034291
    82  H    0.046396
    83  H    0.051023
    84  H    0.076118
    85  H    0.056487
    86  H    0.042039
    87  H    0.055606
    88  H    0.044769
    89  H    0.049600
    90  H    0.041430
    91  H    0.031519
    92  H    0.036434
    93  H    0.046745
    94  H    0.036516
    95  H    0.068730
    96  H    0.058878
    97  H    0.056971
    98  H    0.078627
    99  H    0.073041
   100  H    0.064726
   101  H    0.053306
   102  H    0.082486
   103  H    0.038937
   104  H    0.028590
   105  H    0.028999
   106  H    0.062500
   107  H    0.046323
   108  H    0.024171
   109  H    0.036371
   110  H    0.036950
   111  H    0.031600
   112  H    0.036439
   113  H    0.040438
   114  H    0.029664
   115  H    0.028606
   116  H    0.041083
   117  H    0.027033
   118  H    0.018116
   119  H    0.024443
   120  H    0.040263
   121  H    0.040512
   122  H    0.022759
   123  H    0.032060
   124  H    0.039393
   125  H    0.039211
   126  H    0.053397
   127  H    0.041592
   128  H    0.025260
   129  H    0.028610
   130  H    0.018873
   131  H    0.018847
   132  H    0.024113
   133  H    0.025189
   134  H    0.031795
   135  H    0.027315
   136  H    0.034994
   137  H    0.031645
   138  H    0.037740
   139  H    0.042907
   140  H    0.044092
 Sum of Mulliken charges =  -0.00000

 Dipole moment (field-independent basis, Debye):
    X=              4.5234    Y=              2.3405    Z=             -1.0798  Tot=              5.2062
 Quadrupole moment (field-independent basis, Debye-Ang):
   XX=           -358.9438   YY=           -424.1154   ZZ=           -419.4081
   XY=            -16.1410   XZ=             16.0216   YZ=             -6.9757

 Normal termination of Gaussian 16 at Wed Apr 27 12:17:25 2022.
