 Gaussian 16, Revision A.03,
 Gaussian 16:  ES64L-G16RevA.03 25-Dec-2016

 --------------------------------
 #p wB97XD/Def2SVP td=(nstates=5)
 --------------------------------

 -----------------------------------------------------
 step_1151_chromophore_27 TDDFT with wB97XD functional
 -----------------------------------------------------
 Symbolic Z-matrix:
 Charge =  0 Multiplicity = 1

                         Standard orientation:
 ---------------------------------------------------------------------
 Center     Atomic      Atomic             Coordinates (Angstroms)
 Number     Number       Type             X           Y           Z
 ---------------------------------------------------------------------
      1         12           0       -4.687872    0.814429    0.112053
      2          6           0       -3.971875   -2.643657    0.161512
      3          6           0       -1.361290    1.491990    0.003578
      4          6           0       -5.533094    4.035569    0.081634
      5          6           0       -8.062238    0.046308    0.843607
      6          7           0       -2.849538   -0.509309   -0.045381
      7          6           0       -2.818286   -1.865666    0.037463
      8          6           0       -1.399350   -2.368278   -0.080043
      9          6           0       -0.515621   -1.013557    0.167616
     10          6           0       -1.643526    0.064303    0.048538
     11          6           0        0.205880   -0.888672    1.605484
     12          6           0       -1.064508   -3.095867   -1.500551
     13          6           0       -0.041220   -4.243439   -1.499305
     14          6           0        1.172925   -3.924870   -2.348074
     15          8           0        1.222439   -4.195320   -3.599950
     16          8           0        2.272188   -3.671097   -1.600487
     17          7           0       -3.610858    2.519367    0.190032
     18          6           0       -2.238837    2.561280    0.064439
     19          6           0       -1.838079    3.938500    0.160923
     20          6           0       -2.985545    4.756666    0.289337
     21          6           0       -4.123195    3.822392    0.209234
     22          6           0       -0.368910    4.287020   -0.004607
     23          6           0       -3.200400    6.257748    0.429363
     24          8           0       -4.286171    6.835376    0.484233
     25          6           0       -1.974884    7.156043    0.522392
     26          7           0       -6.535218    1.917483    0.507600
     27          6           0       -6.668180    3.218505    0.132206
     28          6           0       -8.158106    3.683520   -0.133898
     29          6           0       -8.874084    2.326814    0.086991
     30          6           0       -7.806906    1.375741    0.544464
     31          6           0       -8.580844    4.766453    0.927034
     32          6           0       -9.768351    1.835478   -1.080842
     33          6           0      -11.091663    2.535529   -1.232823
     34          7           0       -5.837769   -0.906113    0.508002
     35          6           0       -7.214462   -1.081207    0.776624
     36          6           0       -7.546988   -2.512032    0.956811
     37          6           0       -6.298463   -3.108545    0.758733
     38          6           0       -5.265445   -2.162987    0.415128
     39          6           0       -8.831590   -3.103403    1.212247
     40          6           0       -5.626008   -4.444458    0.643662
     41          8           0       -6.131864   -5.516970    0.776030
     42          6           0       -4.142099   -4.179480    0.200835
     43          6           0       -3.312940   -4.788526    1.206392
     44          8           0       -3.275868   -4.520984    2.407393
     45          8           0       -2.583381   -5.724282    0.650878
     46          6           0       -1.622503   -6.365287    1.535472
     47          6           0        3.627186   -3.809492   -2.281896
     48          6           0        4.348864   -2.396950   -2.334491
     49          6           0        5.566621   -2.021832   -1.868034
     50          6           0        6.612547   -2.908055   -1.128340
     51          6           0        6.000858   -0.603435   -2.139601
     52          6           0        6.420886   -0.309217   -3.600485
     53          6           0        7.886543    0.216367   -3.753296
     54          6           0        7.772668    1.783335   -3.858378
     55          6           0        7.469779    2.267868   -5.305092
     56          6           0        9.028790    2.485825   -3.200890
     57          6           0        8.997442    2.749478   -1.670538
     58          6           0       10.344345    2.317332   -0.963547
     59          6           0       10.001306    1.586201    0.354982
     60          6           0        9.808989    0.012698    0.006804
     61          6           0       11.032807    1.885958    1.460440
     62          6           0       10.435281    1.528144    2.864362
     63          6           0       11.102831    0.355094    3.651796
     64          6           0       11.115530    0.466797    5.219251
     65          6           0       12.429470   -0.063482    5.831034
     66          6           0        9.883941   -0.173699    5.917197
     67          1           0       -0.337935    1.854887   -0.102301
     68          1           0       -5.902015    5.058618   -0.018396
     69          1           0       -9.104251   -0.091993    1.138839
     70          1           0       -1.182427   -3.066163    0.728292
     71          1           0        0.082506   -0.738020   -0.699761
     72          1           0        0.069627    0.059980    2.126164
     73          1           0        1.290229   -0.836125    1.504571
     74          1           0       -0.122030   -1.682300    2.276274
     75          1           0       -0.556571   -2.319001   -2.071635
     76          1           0       -1.955751   -3.319621   -2.086562
     77          1           0       -0.489750   -5.172357   -1.849207
     78          1           0        0.260323   -4.503841   -0.484648
     79          1           0       -0.102209    4.316118   -1.061314
     80          1           0        0.239049    3.543931    0.511581
     81          1           0       -0.073462    5.305230    0.251096
     82          1           0       -2.185300    8.216273    0.381562
     83          1           0       -1.395281    6.920707   -0.370427
     84          1           0       -1.475717    7.022215    1.481945
     85          1           0       -8.356963    4.071741   -1.133587
     86          1           0       -9.547205    2.426591    0.937841
     87          1           0       -7.684894    5.198052    1.373219
     88          1           0       -9.136950    4.354097    1.768490
     89          1           0       -9.101973    5.561811    0.393458
     90          1           0       -9.848874    0.748834   -1.052964
     91          1           0       -9.274014    2.103300   -2.014838
     92          1           0      -11.079722    3.428995   -0.608676
     93          1           0      -11.940127    1.882054   -1.031161
     94          1           0      -11.303841    2.937787   -2.223651
     95          1           0       -8.682779   -4.179698    1.288619
     96          1           0       -9.509206   -2.732296    0.443785
     97          1           0       -9.110854   -2.716934    2.192905
     98          1           0       -4.105970   -4.625823   -0.793288
     99          1           0       -2.248050   -6.857293    2.280889
    100          1           0       -0.863716   -5.694423    1.936762
    101          1           0       -1.135111   -7.115315    0.912237
    102          1           0        3.598907   -4.290296   -3.259678
    103          1           0        4.240734   -4.468999   -1.668513
    104          1           0        3.615119   -1.661622   -2.663060
    105          1           0        6.203271   -3.914638   -1.041224
    106          1           0        7.047809   -2.519737   -0.207931
    107          1           0        7.465466   -3.017394   -1.797222
    108          1           0        6.825084   -0.290778   -1.499720
    109          1           0        5.159338    0.063650   -1.951001
    110          1           0        5.749156    0.413640   -4.063343
    111          1           0        6.337581   -1.249245   -4.145630
    112          1           0        8.251295   -0.195150   -4.694859
    113          1           0        8.480395    0.063045   -2.853003
    114          1           0        6.927173    2.101472   -3.248194
    115          1           0        8.376621    2.716808   -5.709591
    116          1           0        6.623350    2.952716   -5.350426
    117          1           0        7.294862    1.547413   -6.103791
    118          1           0        9.130836    3.407520   -3.775232
    119          1           0        9.881293    1.896064   -3.535550
    120          1           0        8.080334    2.252840   -1.352626
    121          1           0        8.872166    3.821613   -1.513068
    122          1           0       10.896328    3.235479   -0.758981
    123          1           0       10.947866    1.764173   -1.682668
    124          1           0        9.034145    2.027665    0.593296
    125          1           0        9.671681   -0.021933   -1.073850
    126          1           0        8.957180   -0.337913    0.590056
    127          1           0       10.728889   -0.536421    0.211210
    128          1           0       11.140331    2.961767    1.599347
    129          1           0       12.004940    1.392703    1.459391
    130          1           0        9.368495    1.433729    2.660621
    131          1           0       10.518767    2.411914    3.496765
    132          1           0       12.112292    0.236765    3.257337
    133          1           0       10.512722   -0.549165    3.498265
    134          1           0       11.174229    1.524122    5.477689
    135          1           0       12.195000   -0.995837    6.344952
    136          1           0       12.863712    0.604381    6.575641
    137          1           0       13.227292   -0.231690    5.107914
    138          1           0        8.931350    0.141222    5.490572
    139          1           0        9.924951    0.198977    6.940849
    140          1           0        9.953662   -1.258971    5.850848
 ---------------------------------------------------------------------

 SCF Done:  E(RwB97XD) =  -3007.85480630     A.U. after   20 cycles

 Excitation energies and oscillator strengths:

 Excited State   1:      Singlet-A      1.6405 eV  755.75 nm  f=0.3419  <S**2>=0.000
     245 -> 248        0.20660
     246 -> 247        0.67775
     245 <- 248        0.12299
 This state for optimization and/or second-order correction.
 Total Energy, E(TD-HF/TD-DFT) =  -3007.79451726
 Copying the excited state density for this state as the 1-particle RhoCI density.

 Excited State   2:      Singlet-A      2.1782 eV  569.19 nm  f=0.0489  <S**2>=0.000
     245 -> 247        0.60269
     246 -> 248       -0.35986

 Excited State   3:      Singlet-A      3.3703 eV  367.88 nm  f=0.7016  <S**2>=0.000
     241 -> 247        0.12212
     243 -> 247        0.17207
     245 -> 247        0.32828
     246 -> 248        0.58344
     245 <- 247       -0.11599

 Excited State   4:      Singlet-A      3.4815 eV  356.12 nm  f=0.0045  <S**2>=0.000
     243 -> 247       -0.15124
     244 -> 247        0.66671

 Excited State   5:      Singlet-A      3.6198 eV  342.51 nm  f=0.0007  <S**2>=0.000
     240 -> 247        0.47486
     240 -> 248        0.12260
     240 -> 249       -0.37128
     240 -> 250       -0.19700
     241 -> 247       -0.16082
     241 -> 249        0.11826

 The electronic state is 1-A.
 Alpha  occ. eigenvalues --  -46.94944 -19.31327 -19.30980 -19.24367 -19.24039
 Alpha  occ. eigenvalues --  -19.24005 -19.23788 -14.46871 -14.46082 -14.43944
 Alpha  occ. eigenvalues --  -14.43707 -10.43551 -10.42402 -10.39366 -10.38925
 Alpha  occ. eigenvalues --  -10.37156 -10.35874 -10.35701 -10.35038 -10.34909
 Alpha  occ. eigenvalues --  -10.34733 -10.34060 -10.33846 -10.33611 -10.33320
 Alpha  occ. eigenvalues --  -10.33301 -10.32997 -10.32674 -10.32542 -10.32512
 Alpha  occ. eigenvalues --  -10.32378 -10.32091 -10.31931 -10.31851 -10.31782
 Alpha  occ. eigenvalues --  -10.31633 -10.31359 -10.31277 -10.31092 -10.30911
 Alpha  occ. eigenvalues --  -10.30873 -10.30554 -10.30538 -10.30313 -10.30172
 Alpha  occ. eigenvalues --  -10.30083 -10.29933 -10.29834 -10.29813 -10.29652
 Alpha  occ. eigenvalues --  -10.29647 -10.29607 -10.29603 -10.29592 -10.29372
 Alpha  occ. eigenvalues --  -10.29251 -10.29172 -10.29080 -10.29059 -10.29041
 Alpha  occ. eigenvalues --  -10.28987 -10.28805 -10.28753 -10.28704 -10.28646
 Alpha  occ. eigenvalues --  -10.28199  -3.20858  -1.94454  -1.93981  -1.93823
 Alpha  occ. eigenvalues --   -1.20943  -1.17619  -1.13842  -1.11790  -1.09522
 Alpha  occ. eigenvalues --   -1.07106  -1.06103  -1.05133  -1.04093  -1.03105
 Alpha  occ. eigenvalues --   -0.94313  -0.92366  -0.91357  -0.91296  -0.90598
 Alpha  occ. eigenvalues --   -0.90108  -0.90062  -0.89116  -0.89104  -0.88734
 Alpha  occ. eigenvalues --   -0.88480  -0.86914  -0.86225  -0.85830  -0.85387
 Alpha  occ. eigenvalues --   -0.84491  -0.84084  -0.83167  -0.82571  -0.82352
 Alpha  occ. eigenvalues --   -0.81435  -0.80187  -0.79724  -0.79572  -0.78445
 Alpha  occ. eigenvalues --   -0.78218  -0.77270  -0.77186  -0.76936  -0.76303
 Alpha  occ. eigenvalues --   -0.75220  -0.74329  -0.73727  -0.72654  -0.71053
 Alpha  occ. eigenvalues --   -0.70736  -0.70229  -0.69251  -0.68519  -0.68022
 Alpha  occ. eigenvalues --   -0.67217  -0.67143  -0.66338  -0.66054  -0.66041
 Alpha  occ. eigenvalues --   -0.65547  -0.64900  -0.64670  -0.64483  -0.62343
 Alpha  occ. eigenvalues --   -0.62257  -0.61509  -0.61074  -0.60685  -0.60429
 Alpha  occ. eigenvalues --   -0.59573  -0.59208  -0.58378  -0.57713  -0.57375
 Alpha  occ. eigenvalues --   -0.57233  -0.56746  -0.56464  -0.56037  -0.55826
 Alpha  occ. eigenvalues --   -0.55601  -0.55467  -0.55274  -0.54864  -0.54780
 Alpha  occ. eigenvalues --   -0.54765  -0.54319  -0.54222  -0.53919  -0.53846
 Alpha  occ. eigenvalues --   -0.53152  -0.53080  -0.52916  -0.52910  -0.52790
 Alpha  occ. eigenvalues --   -0.52280  -0.52187  -0.51946  -0.51648  -0.51432
 Alpha  occ. eigenvalues --   -0.51237  -0.51191  -0.51108  -0.50879  -0.50762
 Alpha  occ. eigenvalues --   -0.50435  -0.50421  -0.50213  -0.49833  -0.49447
 Alpha  occ. eigenvalues --   -0.49379  -0.49100  -0.49011  -0.48454  -0.48308
 Alpha  occ. eigenvalues --   -0.48214  -0.48129  -0.47990  -0.47864  -0.47614
 Alpha  occ. eigenvalues --   -0.47389  -0.47232  -0.47199  -0.46997  -0.46980
 Alpha  occ. eigenvalues --   -0.46613  -0.46415  -0.46364  -0.46143  -0.46034
 Alpha  occ. eigenvalues --   -0.45845  -0.45602  -0.45327  -0.45228  -0.45018
 Alpha  occ. eigenvalues --   -0.44849  -0.44581  -0.44535  -0.44350  -0.44280
 Alpha  occ. eigenvalues --   -0.44050  -0.43889  -0.43593  -0.43240  -0.43172
 Alpha  occ. eigenvalues --   -0.43067  -0.42849  -0.42720  -0.42366  -0.41836
 Alpha  occ. eigenvalues --   -0.41703  -0.41342  -0.41176  -0.41077  -0.40873
 Alpha  occ. eigenvalues --   -0.40718  -0.40610  -0.40061  -0.39880  -0.39404
 Alpha  occ. eigenvalues --   -0.39324  -0.39124  -0.38891  -0.38621  -0.38397
 Alpha  occ. eigenvalues --   -0.38216  -0.37766  -0.36864  -0.36446  -0.36388
 Alpha  occ. eigenvalues --   -0.36126  -0.35283  -0.35231  -0.33347  -0.32702
 Alpha  occ. eigenvalues --   -0.32626  -0.32329  -0.32249  -0.31365  -0.25807
 Alpha  occ. eigenvalues --   -0.22407
 Alpha virt. eigenvalues --   -0.06377  -0.00271   0.02492   0.04813   0.05458
 Alpha virt. eigenvalues --    0.06027   0.06571   0.07802   0.08240   0.09644
 Alpha virt. eigenvalues --    0.10758   0.11060   0.11425   0.12149   0.12516

 Mulliken charges:
               1
     1  Mg   0.944739
     2  C   -0.017081
     3  C   -0.082105
     4  C   -0.050933
     5  C   -0.118686
     6  N   -0.314381
     7  C   -0.006973
     8  C   -0.076372
     9  C   -0.091489
    10  C    0.046355
    11  C    0.013791
    12  C    0.011007
    13  C    0.038505
    14  C    0.213759
    15  O   -0.326927
    16  O   -0.358593
    17  N   -0.520853
    18  C    0.165815
    19  C   -0.149675
    20  C   -0.059307
    21  C    0.166549
    22  C    0.041170
    23  C    0.052376
    24  O   -0.229376
    25  C   -0.021632
    26  N   -0.336655
    27  C    0.008649
    28  C   -0.094380
    29  C   -0.038019
    30  C    0.057784
    31  C    0.016425
    32  C   -0.003642
    33  C   -0.047112
    34  N   -0.463166
    35  C    0.139414
    36  C   -0.194486
    37  C   -0.060541
    38  C    0.150437
    39  C    0.095941
    40  C    0.103833
    41  O   -0.173156
    42  C   -0.032485
    43  C    0.230522
    44  O   -0.274988
    45  O   -0.318753
    46  C    0.134448
    47  C    0.235270
    48  C   -0.137639
    49  C   -0.172426
    50  C    0.040722
    51  C    0.038257
    52  C   -0.038177
    53  C    0.031082
    54  C   -0.224081
    55  C   -0.005192
    56  C   -0.008648
    57  C   -0.033513
    58  C    0.010366
    59  C   -0.204455
    60  C    0.006776
    61  C    0.029548
    62  C   -0.047612
    63  C    0.018761
    64  C   -0.210709
    65  C   -0.017412
    66  C   -0.010552
    67  H   -0.006819
    68  H    0.014801
    69  H    0.001448
    70  H    0.038971
    71  H    0.043527
    72  H    0.037725
    73  H    0.039965
    74  H    0.055588
    75  H    0.037239
    76  H    0.050594
    77  H    0.068620
    78  H    0.039447
    79  H    0.054240
    80  H    0.055904
    81  H    0.029187
    82  H    0.045415
    83  H    0.044304
    84  H    0.072444
    85  H    0.048497
    86  H    0.027886
    87  H    0.048842
    88  H    0.039815
    89  H    0.044841
    90  H    0.033127
    91  H    0.021915
    92  H    0.027467
    93  H    0.041663
    94  H    0.031118
    95  H    0.065170
    96  H    0.053352
    97  H    0.050937
    98  H    0.073611
    99  H    0.069513
   100  H    0.061126
   101  H    0.050441
   102  H    0.079307
   103  H    0.032785
   104  H    0.025373
   105  H    0.021984
   106  H    0.058296
   107  H    0.038959
   108  H    0.007642
   109  H    0.029203
   110  H    0.027311
   111  H    0.022308
   112  H    0.029410
   113  H    0.010925
   114  H    0.013398
   115  H    0.021954
   116  H    0.036598
   117  H    0.021735
   118  H    0.009372
   119  H    0.013125
   120  H    0.025766
   121  H    0.033939
   122  H    0.015152
   123  H    0.022281
   124  H    0.024920
   125  H    0.026505
   126  H    0.047543
   127  H    0.036369
   128  H    0.017317
   129  H    0.020354
   130  H    0.008304
   131  H    0.009878
   132  H    0.013471
   133  H    0.014962
   134  H    0.019766
   135  H    0.020277
   136  H    0.029858
   137  H    0.026031
   138  H    0.031675
   139  H    0.036821
   140  H    0.037087
 Sum of Mulliken charges =  -0.00000

 Dipole moment (field-independent basis, Debye):
    X=              4.8157    Y=              2.5331    Z=             -1.0701  Tot=              5.5455
 Quadrupole moment (field-independent basis, Debye-Ang):
   XX=           -361.5718   YY=           -422.0083   ZZ=           -419.3065
   XY=            -16.4683   XZ=             16.4673   YZ=             -7.0173

 Normal termination of Gaussian 16 at Wed Apr 27 12:50:46 2022.
