 Gaussian 16, Revision A.03,
 Gaussian 16:  ES64L-G16RevA.03 25-Dec-2016

 --------------------
 #p ZINDO=(nstates=5)
 --------------------

 ------------------------------
 step_1151_chromophore_27 ZINDO
 ------------------------------
 Symbolic Z-matrix:
 Charge =  0 Multiplicity = 1

                         Standard orientation:
 ---------------------------------------------------------------------
 Center     Atomic      Atomic             Coordinates (Angstroms)
 Number     Number       Type             X           Y           Z
 ---------------------------------------------------------------------
      1         12           0       -4.687872    0.814429    0.112053
      2          6           0       -3.971875   -2.643657    0.161512
      3          6           0       -1.361290    1.491990    0.003578
      4          6           0       -5.533094    4.035569    0.081634
      5          6           0       -8.062238    0.046308    0.843607
      6          7           0       -2.849538   -0.509309   -0.045381
      7          6           0       -2.818286   -1.865666    0.037463
      8          6           0       -1.399350   -2.368278   -0.080043
      9          6           0       -0.515621   -1.013557    0.167616
     10          6           0       -1.643526    0.064303    0.048538
     11          6           0        0.205880   -0.888672    1.605484
     12          6           0       -1.064508   -3.095867   -1.500551
     13          6           0       -0.041220   -4.243439   -1.499305
     14          6           0        1.172925   -3.924870   -2.348074
     15          8           0        1.222439   -4.195320   -3.599950
     16          8           0        2.272188   -3.671097   -1.600487
     17          7           0       -3.610858    2.519367    0.190032
     18          6           0       -2.238837    2.561280    0.064439
     19          6           0       -1.838079    3.938500    0.160923
     20          6           0       -2.985545    4.756666    0.289337
     21          6           0       -4.123195    3.822392    0.209234
     22          6           0       -0.368910    4.287020   -0.004607
     23          6           0       -3.200400    6.257748    0.429363
     24          8           0       -4.286171    6.835376    0.484233
     25          6           0       -1.974884    7.156043    0.522392
     26          7           0       -6.535218    1.917483    0.507600
     27          6           0       -6.668180    3.218505    0.132206
     28          6           0       -8.158106    3.683520   -0.133898
     29          6           0       -8.874084    2.326814    0.086991
     30          6           0       -7.806906    1.375741    0.544464
     31          6           0       -8.580844    4.766453    0.927034
     32          6           0       -9.768351    1.835478   -1.080842
     33          6           0      -11.091663    2.535529   -1.232823
     34          7           0       -5.837769   -0.906113    0.508002
     35          6           0       -7.214462   -1.081207    0.776624
     36          6           0       -7.546988   -2.512032    0.956811
     37          6           0       -6.298463   -3.108545    0.758733
     38          6           0       -5.265445   -2.162987    0.415128
     39          6           0       -8.831590   -3.103403    1.212247
     40          6           0       -5.626008   -4.444458    0.643662
     41          8           0       -6.131864   -5.516970    0.776030
     42          6           0       -4.142099   -4.179480    0.200835
     43          6           0       -3.312940   -4.788526    1.206392
     44          8           0       -3.275868   -4.520984    2.407393
     45          8           0       -2.583381   -5.724282    0.650878
     46          6           0       -1.622503   -6.365287    1.535472
     47          6           0        3.627186   -3.809492   -2.281896
     48          6           0        4.348864   -2.396950   -2.334491
     49          6           0        5.566621   -2.021832   -1.868034
     50          6           0        6.612547   -2.908055   -1.128340
     51          6           0        6.000858   -0.603435   -2.139601
     52          6           0        6.420886   -0.309217   -3.600485
     53          6           0        7.886543    0.216367   -3.753296
     54          6           0        7.772668    1.783335   -3.858378
     55          6           0        7.469779    2.267868   -5.305092
     56          6           0        9.028790    2.485825   -3.200890
     57          6           0        8.997442    2.749478   -1.670538
     58          6           0       10.344345    2.317332   -0.963547
     59          6           0       10.001306    1.586201    0.354982
     60          6           0        9.808989    0.012698    0.006804
     61          6           0       11.032807    1.885958    1.460440
     62          6           0       10.435281    1.528144    2.864362
     63          6           0       11.102831    0.355094    3.651796
     64          6           0       11.115530    0.466797    5.219251
     65          6           0       12.429470   -0.063482    5.831034
     66          6           0        9.883941   -0.173699    5.917197
     67          1           0       -0.337935    1.854887   -0.102301
     68          1           0       -5.902015    5.058618   -0.018396
     69          1           0       -9.104251   -0.091993    1.138839
     70          1           0       -1.182427   -3.066163    0.728292
     71          1           0        0.082506   -0.738020   -0.699761
     72          1           0        0.069627    0.059980    2.126164
     73          1           0        1.290229   -0.836125    1.504571
     74          1           0       -0.122030   -1.682300    2.276274
     75          1           0       -0.556571   -2.319001   -2.071635
     76          1           0       -1.955751   -3.319621   -2.086562
     77          1           0       -0.489750   -5.172357   -1.849207
     78          1           0        0.260323   -4.503841   -0.484648
     79          1           0       -0.102209    4.316118   -1.061314
     80          1           0        0.239049    3.543931    0.511581
     81          1           0       -0.073462    5.305230    0.251096
     82          1           0       -2.185300    8.216273    0.381562
     83          1           0       -1.395281    6.920707   -0.370427
     84          1           0       -1.475717    7.022215    1.481945
     85          1           0       -8.356963    4.071741   -1.133587
     86          1           0       -9.547205    2.426591    0.937841
     87          1           0       -7.684894    5.198052    1.373219
     88          1           0       -9.136950    4.354097    1.768490
     89          1           0       -9.101973    5.561811    0.393458
     90          1           0       -9.848874    0.748834   -1.052964
     91          1           0       -9.274014    2.103300   -2.014838
     92          1           0      -11.079722    3.428995   -0.608676
     93          1           0      -11.940127    1.882054   -1.031161
     94          1           0      -11.303841    2.937787   -2.223651
     95          1           0       -8.682779   -4.179698    1.288619
     96          1           0       -9.509206   -2.732296    0.443785
     97          1           0       -9.110854   -2.716934    2.192905
     98          1           0       -4.105970   -4.625823   -0.793288
     99          1           0       -2.248050   -6.857293    2.280889
    100          1           0       -0.863716   -5.694423    1.936762
    101          1           0       -1.135111   -7.115315    0.912237
    102          1           0        3.598907   -4.290296   -3.259678
    103          1           0        4.240734   -4.468999   -1.668513
    104          1           0        3.615119   -1.661622   -2.663060
    105          1           0        6.203271   -3.914638   -1.041224
    106          1           0        7.047809   -2.519737   -0.207931
    107          1           0        7.465466   -3.017394   -1.797222
    108          1           0        6.825084   -0.290778   -1.499720
    109          1           0        5.159338    0.063650   -1.951001
    110          1           0        5.749156    0.413640   -4.063343
    111          1           0        6.337581   -1.249245   -4.145630
    112          1           0        8.251295   -0.195150   -4.694859
    113          1           0        8.480395    0.063045   -2.853003
    114          1           0        6.927173    2.101472   -3.248194
    115          1           0        8.376621    2.716808   -5.709591
    116          1           0        6.623350    2.952716   -5.350426
    117          1           0        7.294862    1.547413   -6.103791
    118          1           0        9.130836    3.407520   -3.775232
    119          1           0        9.881293    1.896064   -3.535550
    120          1           0        8.080334    2.252840   -1.352626
    121          1           0        8.872166    3.821613   -1.513068
    122          1           0       10.896328    3.235479   -0.758981
    123          1           0       10.947866    1.764173   -1.682668
    124          1           0        9.034145    2.027665    0.593296
    125          1           0        9.671681   -0.021933   -1.073850
    126          1           0        8.957180   -0.337913    0.590056
    127          1           0       10.728889   -0.536421    0.211210
    128          1           0       11.140331    2.961767    1.599347
    129          1           0       12.004940    1.392703    1.459391
    130          1           0        9.368495    1.433729    2.660621
    131          1           0       10.518767    2.411914    3.496765
    132          1           0       12.112292    0.236765    3.257337
    133          1           0       10.512722   -0.549165    3.498265
    134          1           0       11.174229    1.524122    5.477689
    135          1           0       12.195000   -0.995837    6.344952
    136          1           0       12.863712    0.604381    6.575641
    137          1           0       13.227292   -0.231690    5.107914
    138          1           0        8.931350    0.141222    5.490572
    139          1           0        9.924951    0.198977    6.940849
    140          1           0        9.953662   -1.258971    5.850848
 ---------------------------------------------------------------------

 SCF Done:  E(RZINDO/S) =  -473.930798877     A.U. after   20 cycles

 Excitation energies and oscillator strengths:

 Excited State   1:      Singlet-A      1.2428 eV  997.65 nm  f=0.5516  <S**2>=0.000
     175 ->178         0.20672
     176 ->177         0.65816
 This state for optimization and/or second-order correction.
 Total Energy, E(CIS/TDA) =  -473.885128226
 Copying the excited state density for this state as the 1-particle RhoCI density.

 Excited State   2:      Singlet-A      1.8876 eV  656.83 nm  f=0.0010  <S**2>=0.000
     175 ->177        -0.48134
     176 ->178         0.49772

 Excited State   3:      Singlet-A      2.9470 eV  420.71 nm  f=0.3737  <S**2>=0.000
     175 ->177         0.24613
     176 ->178         0.27883
     176 ->179         0.53034
     176 ->180         0.13072

 Excited State   4:      Singlet-A      2.9726 eV  417.08 nm  f=0.2201  <S**2>=0.000
     168 ->177         0.25884
     168 ->179        -0.36202
     168 ->180        -0.10934
     168 ->181         0.26151
     168 ->186        -0.21685
     168 ->187         0.10240
     175 ->177         0.19018
     176 ->178         0.18391

 Excited State   5:      Singlet-A      3.0131 eV  411.49 nm  f=0.7643  <S**2>=0.000
     168 ->177        -0.11803
     168 ->179         0.16346
     168 ->181        -0.13256
     175 ->177         0.34819
     176 ->178         0.32728
     176 ->179        -0.34074

 The electronic state is 1-A.
 Alpha  occ. eigenvalues --   -1.82071  -1.80008  -1.78814  -1.76205  -1.70645
 Alpha  occ. eigenvalues --   -1.69080  -1.64726  -1.59851  -1.59661  -1.57875
 Alpha  occ. eigenvalues --   -1.54254  -1.49907  -1.48890  -1.48792  -1.46210
 Alpha  occ. eigenvalues --   -1.42916  -1.40957  -1.40348  -1.39115  -1.38278
 Alpha  occ. eigenvalues --   -1.35377  -1.33826  -1.31905  -1.30996  -1.28596
 Alpha  occ. eigenvalues --   -1.25006  -1.24480  -1.22268  -1.20193  -1.18617
 Alpha  occ. eigenvalues --   -1.17750  -1.16137  -1.15000  -1.14716  -1.14262
 Alpha  occ. eigenvalues --   -1.12941  -1.11122  -1.10108  -1.04104  -1.03791
 Alpha  occ. eigenvalues --   -1.01699  -1.00642  -0.98896  -0.97787  -0.96502
 Alpha  occ. eigenvalues --   -0.95090  -0.94715  -0.94385  -0.93430  -0.92897
 Alpha  occ. eigenvalues --   -0.90685  -0.90069  -0.88141  -0.87810  -0.87733
 Alpha  occ. eigenvalues --   -0.85930  -0.83923  -0.83317  -0.82163  -0.80806
 Alpha  occ. eigenvalues --   -0.80572  -0.78908  -0.77558  -0.77203  -0.76661
 Alpha  occ. eigenvalues --   -0.75728  -0.75177  -0.74819  -0.74450  -0.74028
 Alpha  occ. eigenvalues --   -0.72874  -0.72751  -0.72353  -0.71116  -0.70947
 Alpha  occ. eigenvalues --   -0.70327  -0.70062  -0.69170  -0.68797  -0.68126
 Alpha  occ. eigenvalues --   -0.68007  -0.67188  -0.66495  -0.66389  -0.66208
 Alpha  occ. eigenvalues --   -0.65100  -0.64887  -0.64442  -0.64255  -0.63730
 Alpha  occ. eigenvalues --   -0.63442  -0.63034  -0.62819  -0.62359  -0.61762
 Alpha  occ. eigenvalues --   -0.61472  -0.61326  -0.60689  -0.60494  -0.60304
 Alpha  occ. eigenvalues --   -0.59580  -0.59409  -0.58631  -0.58037  -0.57839
 Alpha  occ. eigenvalues --   -0.57712  -0.57485  -0.57022  -0.56669  -0.56505
 Alpha  occ. eigenvalues --   -0.55907  -0.55469  -0.55182  -0.54826  -0.54521
 Alpha  occ. eigenvalues --   -0.54404  -0.53892  -0.53600  -0.53324  -0.53162
 Alpha  occ. eigenvalues --   -0.52970  -0.52672  -0.52246  -0.52151  -0.51619
 Alpha  occ. eigenvalues --   -0.51127  -0.50929  -0.50833  -0.50744  -0.50688
 Alpha  occ. eigenvalues --   -0.50369  -0.50145  -0.49766  -0.49259  -0.49050
 Alpha  occ. eigenvalues --   -0.48975  -0.48614  -0.48520  -0.48120  -0.47924
 Alpha  occ. eigenvalues --   -0.47771  -0.47134  -0.47093  -0.46985  -0.46782
 Alpha  occ. eigenvalues --   -0.46610  -0.46178  -0.45866  -0.45819  -0.45508
 Alpha  occ. eigenvalues --   -0.45450  -0.45334  -0.45230  -0.45133  -0.44797
 Alpha  occ. eigenvalues --   -0.44261  -0.43872  -0.43092  -0.42962  -0.42536
 Alpha  occ. eigenvalues --   -0.42091  -0.41547  -0.41427  -0.39041  -0.38448
 Alpha  occ. eigenvalues --   -0.37922  -0.37264  -0.35343  -0.34607  -0.34401
 Alpha  occ. eigenvalues --   -0.33379  -0.32888  -0.32243  -0.31966  -0.26498
 Alpha  occ. eigenvalues --   -0.21142
 Alpha virt. eigenvalues --   -0.07803  -0.02453  -0.00283   0.00029   0.01568
 Alpha virt. eigenvalues --    0.02740   0.02845   0.03214   0.03785   0.05120
 Alpha virt. eigenvalues --    0.06347   0.06850   0.07168   0.07229   0.08064

 Mulliken charges:
               1
     1  Mg   0.426437
     2  C   -0.035408
     3  C   -0.089125
     4  C   -0.068703
     5  C   -0.063408
     6  N   -0.265959
     7  C    0.117195
     8  C    0.003083
     9  C   -0.010145
    10  C    0.133762
    11  C   -0.050710
    12  C   -0.025921
    13  C    0.014107
    14  C    0.470168
    15  O   -0.544551
    16  O   -0.259007
    17  N   -0.338012
    18  C    0.111953
    19  C    0.021062
    20  C   -0.039984
    21  C    0.136677
    22  C   -0.048585
    23  C    0.330347
    24  O   -0.519806
    25  C   -0.032700
    26  N   -0.274538
    27  C    0.142310
    28  C    0.005792
    29  C    0.010242
    30  C    0.119307
    31  C   -0.054893
    32  C   -0.024730
    33  C   -0.055626
    34  N   -0.336782
    35  C    0.085100
    36  C    0.042404
    37  C   -0.061264
    38  C    0.094074
    39  C   -0.029643
    40  C    0.332457
    41  O   -0.506828
    42  C    0.058259
    43  C    0.506354
    44  O   -0.552514
    45  O   -0.260727
    46  C    0.075173
    47  C    0.095232
    48  C   -0.092852
    49  C    0.007808
    50  C   -0.044822
    51  C   -0.020254
    52  C   -0.035357
    53  C   -0.042395
    54  C   -0.018758
    55  C   -0.061112
    56  C   -0.046895
    57  C   -0.039295
    58  C   -0.038586
    59  C   -0.013704
    60  C   -0.064345
    61  C   -0.039875
    62  C   -0.051810
    63  C   -0.034905
    64  C   -0.013797
    65  C   -0.059196
    66  C   -0.051610
    67  H    0.031153
    68  H    0.030977
    69  H    0.017896
    70  H    0.035249
    71  H    0.042728
    72  H    0.024908
    73  H    0.018823
    74  H    0.033661
    75  H    0.022696
    76  H    0.037196
    77  H    0.044190
    78  H    0.031384
    79  H    0.029483
    80  H    0.032988
    81  H    0.021135
    82  H    0.033431
    83  H    0.029824
    84  H    0.043762
    85  H    0.042375
    86  H    0.026294
    87  H    0.027259
    88  H    0.027319
    89  H    0.023149
    90  H    0.025679
    91  H    0.015024
    92  H    0.017981
    93  H    0.020360
    94  H    0.015183
    95  H    0.041978
    96  H    0.038602
    97  H    0.033722
    98  H    0.056542
    99  H    0.054469
   100  H    0.047455
   101  H    0.023579
   102  H    0.066862
   103  H    0.032940
   104  H    0.035103
   105  H    0.023204
   106  H    0.038707
   107  H    0.023093
   108  H    0.018860
   109  H    0.018983
   110  H    0.025708
   111  H    0.013794
   112  H    0.029082
   113  H    0.030840
   114  H    0.015152
   115  H    0.014183
   116  H    0.019837
   117  H    0.018037
   118  H    0.010429
   119  H    0.016283
   120  H    0.025768
   121  H    0.019252
   122  H    0.012766
   123  H    0.024794
   124  H    0.027923
   125  H    0.024733
   126  H    0.025042
   127  H    0.024507
   128  H    0.017861
   129  H    0.033181
   130  H    0.018796
   131  H    0.011365
   132  H    0.024332
   133  H    0.016198
   134  H    0.015522
   135  H    0.015395
   136  H    0.015703
   137  H    0.018297
   138  H    0.015991
   139  H    0.018184
   140  H    0.024674
 Sum of Mulliken charges =  -0.00000

 Dipole moment (field-independent basis, Debye):
    X=              6.2949    Y=              3.3592    Z=             -2.0541  Tot=              7.4249
 N-N= 4.352509245465D+03 E-N= 0.000000000000D+00  KE=-9.378660745001D+03
 Leave Link  601 at Wed Apr 27 13:03:43 2022, MaxMem=  6710886400 cpu:               0.8 elap:               0.0
 (Enter /sw/apps/gaussian-16.0/g16/l9999.exe)
 1\1\GINC-BP1-COMPUTE175\SP\RZINDO CIS\STO-3G\C55H74Mg1N4O6\OF15641\27-
 Apr-2022\0\\#p ZINDO=(nstates=5)\\step_1151_chromophore_27 ZINDO\\0,1\
 Mg,0,-5.989,25.172,26.457\C,0,-4.141,26.906,28.917\C,0,-7.207,23.093,2
 8.851\C,0,-7.658,23.64,24.016\C,0,-4.216,26.963,23.975\N,0,-5.772,25.1
 29,28.717\C,0,-4.941,25.901,29.466\C,0,-5.066,25.545,30.928\C,0,-5.84,
 24.104,30.883\C,0,-6.295,24.094,29.386\C,0,-4.936,22.802,31.185\C,0,-5
 .85,26.661,31.822\C,0,-5.425,26.838,33.289\C,0,-6.55,26.514,34.251\O,0

 Normal termination of Gaussian 16 at Wed Apr 27 13:03:43 2022.
