 Gaussian 16, Revision A.03,
 Gaussian 16:  ES64L-G16RevA.03 25-Dec-2016

 ------------------------------
 #p blyp/Def2SVP td=(nstates=5)
 ------------------------------

 --------------------------------------------------
 step_551_chromophore_22 TDDFT with blyp functional
 --------------------------------------------------
 Symbolic Z-matrix:
 Charge =  0 Multiplicity = 1

                         Standard orientation:
 ---------------------------------------------------------------------
 Center     Atomic      Atomic             Coordinates (Angstroms)
 Number     Number       Type             X           Y           Z
 ---------------------------------------------------------------------
      1         12           0       -6.116344    0.452726    0.063062
      2          6           0       -3.856880   -2.020319    0.786027
      3          6           0       -3.826443    2.788258    1.171868
      4          6           0       -8.529384    2.889375   -0.253504
      5          6           0       -8.604514   -2.011357   -0.393288
      6          7           0       -4.045062    0.345988    0.957658
      7          6           0       -3.321864   -0.763803    1.038918
      8          6           0       -1.841507   -0.379307    1.342564
      9          6           0       -2.025672    1.027564    1.893519
     10          6           0       -3.339913    1.453969    1.285843
     11          6           0       -1.993764    1.144686    3.482334
     12          6           0       -0.826174   -0.520600    0.186543
     13          6           0        0.412477   -1.375203    0.461109
     14          6           0        1.411884   -1.779574   -0.673909
     15          8           0        1.183085   -2.672419   -1.485557
     16          8           0        2.393072   -0.889538   -0.756426
     17          7           0       -6.086149    2.630946    0.244710
     18          6           0       -5.065941    3.318180    0.693373
     19          6           0       -5.431581    4.777650    0.518933
     20          6           0       -6.765508    4.831856    0.028937
     21          6           0       -7.219917    3.432159   -0.029874
     22          6           0       -4.491296    5.957307    0.998978
     23          6           0       -7.661605    6.011793   -0.230624
     24          8           0       -8.823352    6.011206   -0.603030
     25          6           0       -7.051857    7.341486   -0.068115
     26          7           0       -8.261465    0.452565   -0.047997
     27          6           0       -9.054630    1.598897   -0.196736
     28          6           0      -10.452497    1.258933   -0.750480
     29          6           0      -10.361877   -0.325588   -0.959852
     30          6           0       -8.974171   -0.679602   -0.338526
     31          6           0      -11.541175    1.775947    0.269807
     32          6           0      -10.567235   -0.896260   -2.424441
     33          6           0      -11.659836   -2.008597   -2.473815
     34          7           0       -6.252787   -1.515114    0.257966
     35          6           0       -7.276846   -2.427935   -0.023261
     36          6           0       -6.807102   -3.730234    0.225324
     37          6           0       -5.420713   -3.631901    0.463557
     38          6           0       -5.158428   -2.321248    0.495881
     39          6           0       -7.712927   -4.977587    0.133778
     40          6           0       -4.231733   -4.398567    0.646489
     41          8           0       -4.061591   -5.615122    0.525349
     42          6           0       -3.106472   -3.346585    1.001344
     43          6           0       -1.963760   -3.731565    0.184736
     44          8           0       -1.765998   -3.468627   -0.996448
     45          8           0       -1.211762   -4.518172    0.927572
     46          6           0       -0.168056   -5.383581    0.393481
     47          6           0        3.393541   -1.033408   -1.884261
     48          6           0        4.734920   -0.922564   -1.370944
     49          6           0        5.448870   -1.606578   -0.471749
     50          6           0        4.977476   -2.876668    0.347352
     51          6           0        6.888380   -1.232506   -0.097961
     52          6           0        7.852835   -0.868480   -1.231328
     53          6           0        8.238937    0.601335   -1.165621
     54          6           0        9.747836    0.664770   -0.591561
     55          6           0        9.645822    0.515340    0.960532
     56          6           0       10.463725    1.892442   -0.987307
     57          6           0       11.164824    1.786913   -2.367029
     58          6           0       12.568058    2.327691   -2.321379
     59          6           0       13.617054    1.297574   -2.034600
     60          6           0       14.541595    0.884574   -3.295719
     61          6           0       14.577925    1.833660   -0.880225
     62          6           0       15.223568    0.620800   -0.185853
     63          6           0       14.551299    0.186419    1.136341
     64          6           0       15.185773    0.655303    2.419784
     65          6           0       16.529596   -0.091696    2.678661
     66          6           0       14.248666    0.680069    3.684709
     67          1           0       -3.066110    3.515416    1.462993
     68          1           0       -9.339472    3.598809   -0.437047
     69          1           0       -9.342547   -2.795104   -0.573623
     70          1           0       -1.409294   -0.975845    2.146332
     71          1           0       -1.229417    1.720752    1.623184
     72          1           0       -2.769960    1.653246    4.052459
     73          1           0       -1.096136    1.672190    3.806037
     74          1           0       -1.985034    0.133868    3.889885
     75          1           0       -0.539125    0.525327    0.074732
     76          1           0       -1.366161   -0.899372   -0.681573
     77          1           0        0.079572   -2.314612    0.903168
     78          1           0        0.950569   -0.857407    1.255612
     79          1           0       -3.574370    5.573409    1.446192
     80          1           0       -4.990116    6.615358    1.709523
     81          1           0       -4.218728    6.528245    0.111999
     82          1           0       -6.169987    7.321995   -0.708110
     83          1           0       -6.921915    7.578222    0.988023
     84          1           0       -7.761579    8.101815   -0.394496
     85          1           0      -10.506215    1.707735   -1.742346
     86          1           0      -10.942924   -0.874881   -0.220145
     87          1           0      -12.248072    1.009022    0.587409
     88          1           0      -12.129713    2.509369   -0.281268
     89          1           0      -11.164227    2.385056    1.092161
     90          1           0       -9.631917   -1.228142   -2.876030
     91          1           0      -10.874063   -0.067010   -3.061599
     92          1           0      -11.262700   -2.900080   -2.960279
     93          1           0      -12.630489   -1.769860   -2.907294
     94          1           0      -11.904475   -2.293778   -1.449850
     95          1           0       -8.415324   -4.772683   -0.673647
     96          1           0       -8.113755   -4.941727    1.146172
     97          1           0       -7.111331   -5.846891   -0.132336
     98          1           0       -2.836435   -3.365968    2.056640
     99          1           0        0.187322   -5.090458   -0.594768
    100          1           0       -0.619095   -6.358168    0.206483
    101          1           0        0.594030   -5.467565    1.168336
    102          1           0        3.302267   -0.251203   -2.638505
    103          1           0        3.252307   -1.926867   -2.493314
    104          1           0        5.312009   -0.062762   -1.711189
    105          1           0        5.596500   -3.713400    0.020994
    106          1           0        3.949760   -3.128696    0.088913
    107          1           0        5.078384   -2.729283    1.423503
    108          1           0        7.340013   -2.044396    0.473499
    109          1           0        6.807174   -0.441174    0.646239
    110          1           0        7.378012   -1.018793   -2.200680
    111          1           0        8.729655   -1.514700   -1.198754
    112          1           0        7.541173    1.153706   -0.536851
    113          1           0        8.112189    1.056810   -2.148099
    114          1           0       10.307297   -0.179654   -0.994352
    115          1           0        9.302567    1.404603    1.488624
    116          1           0       10.682305    0.337368    1.246387
    117          1           0        9.053300   -0.318041    1.337489
    118          1           0       11.233644    2.028830   -0.226551
    119          1           0        9.812937    2.763678   -1.063161
    120          1           0       10.550597    2.422704   -3.005512
    121          1           0       11.029591    0.786328   -2.777534
    122          1           0       12.435065    3.120288   -1.585750
    123          1           0       12.755329    2.852174   -3.258233
    124          1           0       13.135820    0.459076   -1.529981
    125          1           0       14.025212    1.347975   -4.136297
    126          1           0       14.498694   -0.203932   -3.274754
    127          1           0       15.534744    1.306530   -3.139241
    128          1           0       14.054473    2.409195   -0.116564
    129          1           0       15.404590    2.474163   -1.186317
    130          1           0       16.250547    0.907523    0.040387
    131          1           0       15.207088   -0.186616   -0.917975
    132          1           0       14.637691   -0.899383    1.172667
    133          1           0       13.487937    0.423874    1.111045
    134          1           0       15.489415    1.672010    2.170854
    135          1           0       16.734744   -0.350699    3.717658
    136          1           0       17.327880    0.573527    2.349822
    137          1           0       16.575747   -0.957259    2.018639
    138          1           0       14.515948    0.127650    4.585693
    139          1           0       13.272552    0.344632    3.337854
    140          1           0       14.168050    1.730071    3.969073
 ---------------------------------------------------------------------

 SCF Done:  E(RB-LYP) =  -3007.35529170     A.U. after   21 cycles

 Excitation energies and oscillator strengths:

 Excited State   1:      Singlet-A      1.8442 eV  672.30 nm  f=0.3074  <S**2>=0.000
     245 -> 248       -0.19857
     246 -> 247        0.68455
     246 <- 247       -0.14732
 This state for optimization and/or second-order correction.
 Total Energy, E(TD-HF/TD-DFT) =  -3007.28751924
 Copying the excited state density for this state as the 1-particle RhoCI density.

 Excited State   2:      Singlet-A      1.9048 eV  650.89 nm  f=0.0028  <S**2>=0.000
     244 -> 247        0.69614
     245 -> 247        0.10707

 Excited State   3:      Singlet-A      2.0120 eV  616.24 nm  f=0.0546  <S**2>=0.000
     243 -> 247        0.33625
     245 -> 247        0.56413
     246 -> 248        0.20250

 Excited State   4:      Singlet-A      2.0443 eV  606.49 nm  f=0.0201  <S**2>=0.000
     243 -> 247        0.62103
     245 -> 247       -0.30073
     246 -> 248       -0.12034

 Excited State   5:      Singlet-A      2.2617 eV  548.18 nm  f=0.0009  <S**2>=0.000
     242 -> 247        0.69641

 The electronic state is 1-A.
 Alpha  occ. eigenvalues --  -46.27018 -18.82372 -18.81339 -18.75789 -18.75778
 Alpha  occ. eigenvalues --  -18.75489 -18.74705 -14.02989 -14.02786 -14.01212
 Alpha  occ. eigenvalues --  -14.00428 -10.03627 -10.02559  -9.99555  -9.99438
 Alpha  occ. eigenvalues --   -9.97857  -9.96757  -9.96623  -9.96459  -9.96251
 Alpha  occ. eigenvalues --   -9.96202  -9.96195  -9.95978  -9.94953  -9.94911
 Alpha  occ. eigenvalues --   -9.94240  -9.94179  -9.93879  -9.93644  -9.93527
 Alpha  occ. eigenvalues --   -9.93501  -9.93440  -9.93393  -9.93237  -9.93082
 Alpha  occ. eigenvalues --   -9.93055  -9.92962  -9.92921  -9.92878  -9.92753
 Alpha  occ. eigenvalues --   -9.92623  -9.92623  -9.92451  -9.92380  -9.92283
 Alpha  occ. eigenvalues --   -9.92279  -9.92150  -9.92132  -9.91917  -9.91909
 Alpha  occ. eigenvalues --   -9.91905  -9.91829  -9.91269  -9.91249  -9.91209
 Alpha  occ. eigenvalues --   -9.91190  -9.91172  -9.91040  -9.90903  -9.90812
 Alpha  occ. eigenvalues --   -9.90805  -9.90651  -9.90631  -9.90590  -9.90500
 Alpha  occ. eigenvalues --   -9.90292  -2.91652  -1.72057  -1.71534  -1.71378
 Alpha  occ. eigenvalues --   -0.98077  -0.97857  -0.91735  -0.90722  -0.88902
 Alpha  occ. eigenvalues --   -0.88428  -0.87282  -0.85713  -0.85317  -0.83994
 Alpha  occ. eigenvalues --   -0.76007  -0.74065  -0.73325  -0.72813  -0.72319
 Alpha  occ. eigenvalues --   -0.71513  -0.71032  -0.70848  -0.70652  -0.69935
 Alpha  occ. eigenvalues --   -0.69476  -0.69207  -0.68295  -0.67794  -0.67093
 Alpha  occ. eigenvalues --   -0.66509  -0.65724  -0.65305  -0.65232  -0.64580
 Alpha  occ. eigenvalues --   -0.63839  -0.62519  -0.62207  -0.61540  -0.60557
 Alpha  occ. eigenvalues --   -0.60190  -0.60141  -0.59742  -0.59679  -0.59077
 Alpha  occ. eigenvalues --   -0.58382  -0.57710  -0.56805  -0.55548  -0.54557
 Alpha  occ. eigenvalues --   -0.54478  -0.53871  -0.52803  -0.52334  -0.51631
 Alpha  occ. eigenvalues --   -0.51179  -0.51119  -0.50736  -0.50650  -0.50429
 Alpha  occ. eigenvalues --   -0.49892  -0.49735  -0.48097  -0.47989  -0.46582
 Alpha  occ. eigenvalues --   -0.45818  -0.45746  -0.45403  -0.44856  -0.44165
 Alpha  occ. eigenvalues --   -0.43557  -0.43446  -0.42671  -0.42525  -0.42433
 Alpha  occ. eigenvalues --   -0.41911  -0.41520  -0.41416  -0.41050  -0.41033
 Alpha  occ. eigenvalues --   -0.40822  -0.40421  -0.40350  -0.40100  -0.39866
 Alpha  occ. eigenvalues --   -0.39682  -0.39573  -0.39311  -0.38966  -0.38826
 Alpha  occ. eigenvalues --   -0.38759  -0.38543  -0.38515  -0.37918  -0.37799
 Alpha  occ. eigenvalues --   -0.37696  -0.37600  -0.37475  -0.37464  -0.36942
 Alpha  occ. eigenvalues --   -0.36925  -0.36679  -0.36465  -0.36298  -0.36159
 Alpha  occ. eigenvalues --   -0.35966  -0.35813  -0.35772  -0.35408  -0.35377
 Alpha  occ. eigenvalues --   -0.35190  -0.35122  -0.35022  -0.34903  -0.34853
 Alpha  occ. eigenvalues --   -0.34675  -0.34538  -0.34329  -0.34167  -0.33831
 Alpha  occ. eigenvalues --   -0.33589  -0.33464  -0.33329  -0.33319  -0.33249
 Alpha  occ. eigenvalues --   -0.33031  -0.32671  -0.32551  -0.32475  -0.32059
 Alpha  occ. eigenvalues --   -0.31991  -0.31926  -0.31825  -0.31387  -0.31223
 Alpha  occ. eigenvalues --   -0.31092  -0.30812  -0.30721  -0.30557  -0.30404
 Alpha  occ. eigenvalues --   -0.30232  -0.30178  -0.29848  -0.29734  -0.29559
 Alpha  occ. eigenvalues --   -0.29503  -0.29391  -0.29264  -0.29054  -0.28933
 Alpha  occ. eigenvalues --   -0.28792  -0.28230  -0.28125  -0.28097  -0.28029
 Alpha  occ. eigenvalues --   -0.27561  -0.27456  -0.26975  -0.26589  -0.26254
 Alpha  occ. eigenvalues --   -0.26017  -0.25998  -0.25557  -0.25169  -0.24953
 Alpha  occ. eigenvalues --   -0.24900  -0.24163  -0.23871  -0.23845  -0.23825
 Alpha  occ. eigenvalues --   -0.22984  -0.22063  -0.21832  -0.20917  -0.20531
 Alpha  occ. eigenvalues --   -0.20314  -0.19776  -0.18883  -0.18446  -0.17186
 Alpha  occ. eigenvalues --   -0.15876
 Alpha virt. eigenvalues --   -0.11499  -0.06891  -0.06197  -0.04500  -0.02987
 Alpha virt. eigenvalues --   -0.02913  -0.02396  -0.01067  -0.01067   0.00470
 Alpha virt. eigenvalues --    0.01385   0.01908   0.01987   0.02889   0.03280

 Mulliken charges:
               1
     1  Mg   0.696808
     2  C    0.009095
     3  C   -0.041487
     4  C   -0.017327
     5  C   -0.097107
     6  N   -0.168974
     7  C   -0.111269
     8  C    0.008995
     9  C   -0.001305
    10  C    0.006466
    11  C    0.110084
    12  C    0.181273
    13  C    0.098203
    14  C    0.090125
    15  O   -0.191984
    16  O   -0.246844
    17  N   -0.247998
    18  C    0.124726
    19  C   -0.163048
    20  C    0.048271
    21  C    0.088818
    22  C    0.168252
    23  C   -0.099920
    24  O   -0.152356
    25  C    0.149770
    26  N   -0.239881
    27  C    0.009051
    28  C    0.012220
    29  C    0.009248
    30  C    0.039936
    31  C    0.122822
    32  C    0.116656
    33  C    0.046850
    34  N   -0.324382
    35  C    0.136915
    36  C   -0.234795
    37  C    0.136066
    38  C    0.147248
    39  C    0.176368
    40  C   -0.077958
    41  O   -0.142526
    42  C    0.052128
    43  C    0.082792
    44  O   -0.178914
    45  O   -0.251939
    46  C    0.210034
    47  C    0.367216
    48  C   -0.118042
    49  C   -0.150913
    50  C    0.119020
    51  C    0.112077
    52  C    0.098341
    53  C    0.073506
    54  C   -0.079743
    55  C    0.081959
    56  C    0.124082
    57  C    0.047020
    58  C    0.150486
    59  C   -0.080599
    60  C    0.133778
    61  C    0.060129
    62  C    0.070835
    63  C    0.095363
    64  C   -0.101067
    65  C    0.105283
    66  C    0.113154
    67  H   -0.073203
    68  H   -0.043093
    69  H   -0.058125
    70  H   -0.043137
    71  H   -0.034790
    72  H   -0.006626
    73  H   -0.009832
    74  H   -0.011314
    75  H   -0.034370
    76  H    0.004722
    77  H   -0.007906
    78  H   -0.031979
    79  H   -0.014842
    80  H    0.008753
    81  H    0.000870
    82  H    0.007410
    83  H    0.006768
    84  H   -0.019923
    85  H   -0.008810
    86  H   -0.026075
    87  H   -0.004234
    88  H   -0.011814
    89  H    0.006504
    90  H   -0.009270
    91  H   -0.023969
    92  H   -0.005035
    93  H   -0.001973
    94  H   -0.012983
    95  H    0.004233
    96  H    0.016242
    97  H    0.013259
    98  H    0.004640
    99  H    0.040019
   100  H    0.013497
   101  H    0.015331
   102  H   -0.017439
   103  H    0.009939
   104  H   -0.043287
   105  H    0.001299
   106  H   -0.011644
   107  H    0.005980
   108  H   -0.041020
   109  H   -0.004045
   110  H   -0.028522
   111  H   -0.027507
   112  H   -0.027748
   113  H   -0.043261
   114  H   -0.033518
   115  H   -0.013572
   116  H   -0.016578
   117  H   -0.015954
   118  H   -0.037683
   119  H   -0.030774
   120  H   -0.049117
   121  H   -0.036729
   122  H   -0.039814
   123  H   -0.051843
   124  H   -0.032045
   125  H   -0.010463
   126  H    0.004175
   127  H    0.000983
   128  H   -0.038659
   129  H   -0.036761
   130  H   -0.044882
   131  H   -0.038995
   132  H   -0.043469
   133  H   -0.031379
   134  H   -0.039651
   135  H   -0.013024
   136  H   -0.019123
   137  H   -0.019144
   138  H   -0.007959
   139  H   -0.021892
   140  H   -0.014915
 Sum of Mulliken charges =  -0.00000

 Dipole moment (field-independent basis, Debye):
    X=              3.2130    Y=              2.9465    Z=              1.9512  Tot=              4.7762
 Quadrupole moment (field-independent basis, Debye-Ang):
   XX=           -378.5415   YY=           -424.1077   ZZ=           -401.5274
   XY=              9.9732   XZ=             -0.1625   YZ=              0.1918

 Normal termination of Gaussian 16 at Thu May  5 04:30:33 2022.
