 Gaussian 16, Revision A.03,
 Gaussian 16:  ES64L-G16RevA.03 25-Dec-2016

 -----------------------------------
 #p cam-b3lyp/Def2SVP td=(nstates=5)
 -----------------------------------

 -------------------------------------------------------
 step_551_chromophore_22 TDDFT with cam-b3lyp functional
 -------------------------------------------------------
 Symbolic Z-matrix:
 Charge =  0 Multiplicity = 1

                         Standard orientation:
 ---------------------------------------------------------------------
 Center     Atomic      Atomic             Coordinates (Angstroms)
 Number     Number       Type             X           Y           Z
 ---------------------------------------------------------------------
      1         12           0       -6.116344    0.452726    0.063062
      2          6           0       -3.856880   -2.020319    0.786027
      3          6           0       -3.826443    2.788258    1.171868
      4          6           0       -8.529384    2.889375   -0.253504
      5          6           0       -8.604514   -2.011357   -0.393288
      6          7           0       -4.045062    0.345988    0.957658
      7          6           0       -3.321864   -0.763803    1.038918
      8          6           0       -1.841507   -0.379307    1.342564
      9          6           0       -2.025672    1.027564    1.893519
     10          6           0       -3.339913    1.453969    1.285843
     11          6           0       -1.993764    1.144686    3.482334
     12          6           0       -0.826174   -0.520600    0.186543
     13          6           0        0.412477   -1.375203    0.461109
     14          6           0        1.411884   -1.779574   -0.673909
     15          8           0        1.183085   -2.672419   -1.485557
     16          8           0        2.393072   -0.889538   -0.756426
     17          7           0       -6.086149    2.630946    0.244710
     18          6           0       -5.065941    3.318180    0.693373
     19          6           0       -5.431581    4.777650    0.518933
     20          6           0       -6.765508    4.831856    0.028937
     21          6           0       -7.219917    3.432159   -0.029874
     22          6           0       -4.491296    5.957307    0.998978
     23          6           0       -7.661605    6.011793   -0.230624
     24          8           0       -8.823352    6.011206   -0.603030
     25          6           0       -7.051857    7.341486   -0.068115
     26          7           0       -8.261465    0.452565   -0.047997
     27          6           0       -9.054630    1.598897   -0.196736
     28          6           0      -10.452497    1.258933   -0.750480
     29          6           0      -10.361877   -0.325588   -0.959852
     30          6           0       -8.974171   -0.679602   -0.338526
     31          6           0      -11.541175    1.775947    0.269807
     32          6           0      -10.567235   -0.896260   -2.424441
     33          6           0      -11.659836   -2.008597   -2.473815
     34          7           0       -6.252787   -1.515114    0.257966
     35          6           0       -7.276846   -2.427935   -0.023261
     36          6           0       -6.807102   -3.730234    0.225324
     37          6           0       -5.420713   -3.631901    0.463557
     38          6           0       -5.158428   -2.321248    0.495881
     39          6           0       -7.712927   -4.977587    0.133778
     40          6           0       -4.231733   -4.398567    0.646489
     41          8           0       -4.061591   -5.615122    0.525349
     42          6           0       -3.106472   -3.346585    1.001344
     43          6           0       -1.963760   -3.731565    0.184736
     44          8           0       -1.765998   -3.468627   -0.996448
     45          8           0       -1.211762   -4.518172    0.927572
     46          6           0       -0.168056   -5.383581    0.393481
     47          6           0        3.393541   -1.033408   -1.884261
     48          6           0        4.734920   -0.922564   -1.370944
     49          6           0        5.448870   -1.606578   -0.471749
     50          6           0        4.977476   -2.876668    0.347352
     51          6           0        6.888380   -1.232506   -0.097961
     52          6           0        7.852835   -0.868480   -1.231328
     53          6           0        8.238937    0.601335   -1.165621
     54          6           0        9.747836    0.664770   -0.591561
     55          6           0        9.645822    0.515340    0.960532
     56          6           0       10.463725    1.892442   -0.987307
     57          6           0       11.164824    1.786913   -2.367029
     58          6           0       12.568058    2.327691   -2.321379
     59          6           0       13.617054    1.297574   -2.034600
     60          6           0       14.541595    0.884574   -3.295719
     61          6           0       14.577925    1.833660   -0.880225
     62          6           0       15.223568    0.620800   -0.185853
     63          6           0       14.551299    0.186419    1.136341
     64          6           0       15.185773    0.655303    2.419784
     65          6           0       16.529596   -0.091696    2.678661
     66          6           0       14.248666    0.680069    3.684709
     67          1           0       -3.066110    3.515416    1.462993
     68          1           0       -9.339472    3.598809   -0.437047
     69          1           0       -9.342547   -2.795104   -0.573623
     70          1           0       -1.409294   -0.975845    2.146332
     71          1           0       -1.229417    1.720752    1.623184
     72          1           0       -2.769960    1.653246    4.052459
     73          1           0       -1.096136    1.672190    3.806037
     74          1           0       -1.985034    0.133868    3.889885
     75          1           0       -0.539125    0.525327    0.074732
     76          1           0       -1.366161   -0.899372   -0.681573
     77          1           0        0.079572   -2.314612    0.903168
     78          1           0        0.950569   -0.857407    1.255612
     79          1           0       -3.574370    5.573409    1.446192
     80          1           0       -4.990116    6.615358    1.709523
     81          1           0       -4.218728    6.528245    0.111999
     82          1           0       -6.169987    7.321995   -0.708110
     83          1           0       -6.921915    7.578222    0.988023
     84          1           0       -7.761579    8.101815   -0.394496
     85          1           0      -10.506215    1.707735   -1.742346
     86          1           0      -10.942924   -0.874881   -0.220145
     87          1           0      -12.248072    1.009022    0.587409
     88          1           0      -12.129713    2.509369   -0.281268
     89          1           0      -11.164227    2.385056    1.092161
     90          1           0       -9.631917   -1.228142   -2.876030
     91          1           0      -10.874063   -0.067010   -3.061599
     92          1           0      -11.262700   -2.900080   -2.960279
     93          1           0      -12.630489   -1.769860   -2.907294
     94          1           0      -11.904475   -2.293778   -1.449850
     95          1           0       -8.415324   -4.772683   -0.673647
     96          1           0       -8.113755   -4.941727    1.146172
     97          1           0       -7.111331   -5.846891   -0.132336
     98          1           0       -2.836435   -3.365968    2.056640
     99          1           0        0.187322   -5.090458   -0.594768
    100          1           0       -0.619095   -6.358168    0.206483
    101          1           0        0.594030   -5.467565    1.168336
    102          1           0        3.302267   -0.251203   -2.638505
    103          1           0        3.252307   -1.926867   -2.493314
    104          1           0        5.312009   -0.062762   -1.711189
    105          1           0        5.596500   -3.713400    0.020994
    106          1           0        3.949760   -3.128696    0.088913
    107          1           0        5.078384   -2.729283    1.423503
    108          1           0        7.340013   -2.044396    0.473499
    109          1           0        6.807174   -0.441174    0.646239
    110          1           0        7.378012   -1.018793   -2.200680
    111          1           0        8.729655   -1.514700   -1.198754
    112          1           0        7.541173    1.153706   -0.536851
    113          1           0        8.112189    1.056810   -2.148099
    114          1           0       10.307297   -0.179654   -0.994352
    115          1           0        9.302567    1.404603    1.488624
    116          1           0       10.682305    0.337368    1.246387
    117          1           0        9.053300   -0.318041    1.337489
    118          1           0       11.233644    2.028830   -0.226551
    119          1           0        9.812937    2.763678   -1.063161
    120          1           0       10.550597    2.422704   -3.005512
    121          1           0       11.029591    0.786328   -2.777534
    122          1           0       12.435065    3.120288   -1.585750
    123          1           0       12.755329    2.852174   -3.258233
    124          1           0       13.135820    0.459076   -1.529981
    125          1           0       14.025212    1.347975   -4.136297
    126          1           0       14.498694   -0.203932   -3.274754
    127          1           0       15.534744    1.306530   -3.139241
    128          1           0       14.054473    2.409195   -0.116564
    129          1           0       15.404590    2.474163   -1.186317
    130          1           0       16.250547    0.907523    0.040387
    131          1           0       15.207088   -0.186616   -0.917975
    132          1           0       14.637691   -0.899383    1.172667
    133          1           0       13.487937    0.423874    1.111045
    134          1           0       15.489415    1.672010    2.170854
    135          1           0       16.734744   -0.350699    3.717658
    136          1           0       17.327880    0.573527    2.349822
    137          1           0       16.575747   -0.957259    2.018639
    138          1           0       14.515948    0.127650    4.585693
    139          1           0       13.272552    0.344632    3.337854
    140          1           0       14.168050    1.730071    3.969073
 ---------------------------------------------------------------------

 SCF Done:  E(RCAM-B3LYP) =  -3007.15214258     A.U. after   17 cycles

 Excitation energies and oscillator strengths:

 Excited State   1:      Singlet-A      1.7345 eV  714.80 nm  f=0.3891  <S**2>=0.000
     245 -> 248        0.18938
     246 -> 247        0.68299
     245 <- 248        0.10896
 This state for optimization and/or second-order correction.
 Total Energy, E(TD-HF/TD-DFT) =  -3007.08839958
 Copying the excited state density for this state as the 1-particle RhoCI density.

 Excited State   2:      Singlet-A      2.2247 eV  557.32 nm  f=0.1195  <S**2>=0.000
     245 -> 247        0.64281
     246 -> 248       -0.28309

 Excited State   3:      Singlet-A      3.3868 eV  366.08 nm  f=0.0047  <S**2>=0.000
     244 -> 247        0.68694

 Excited State   4:      Singlet-A      3.5020 eV  354.04 nm  f=0.3123  <S**2>=0.000
     242 -> 247        0.36375
     243 -> 247        0.19251
     245 -> 247        0.18703
     246 -> 248        0.51354

 Excited State   5:      Singlet-A      3.5987 eV  344.52 nm  f=0.0389  <S**2>=0.000
     241 -> 247        0.54745
     241 -> 249       -0.26782
     241 -> 251        0.22889
     246 -> 248       -0.13272

 The electronic state is 1-A.
 Alpha  occ. eigenvalues --  -46.88547 -19.25244 -19.24232 -19.18841 -19.18839
 Alpha  occ. eigenvalues --  -19.18607 -19.17707 -14.41879 -14.41572 -14.39771
 Alpha  occ. eigenvalues --  -14.38669 -10.38818 -10.37874 -10.34810 -10.34715
 Alpha  occ. eigenvalues --  -10.32031 -10.31189 -10.31153 -10.30865 -10.30726
 Alpha  occ. eigenvalues --  -10.30697 -10.30545 -10.30232 -10.29893 -10.28960
 Alpha  occ. eigenvalues --  -10.28241 -10.28162 -10.27912 -10.27758 -10.27718
 Alpha  occ. eigenvalues --  -10.27687 -10.27650 -10.27636 -10.27529 -10.27341
 Alpha  occ. eigenvalues --  -10.27159 -10.27081 -10.26841 -10.26744 -10.26549
 Alpha  occ. eigenvalues --  -10.26532 -10.26514 -10.26444 -10.26114 -10.26065
 Alpha  occ. eigenvalues --  -10.25922 -10.25834 -10.25830 -10.25639 -10.25634
 Alpha  occ. eigenvalues --  -10.25486 -10.25469 -10.25303 -10.25099 -10.24943
 Alpha  occ. eigenvalues --  -10.24918 -10.24883 -10.24666 -10.24595 -10.24516
 Alpha  occ. eigenvalues --  -10.24483 -10.24295 -10.24243 -10.24239 -10.24115
 Alpha  occ. eigenvalues --  -10.24111  -3.17083  -1.91963  -1.91525  -1.91401
 Alpha  occ. eigenvalues --   -1.16597  -1.16243  -1.10296  -1.08975  -1.06669
 Alpha  occ. eigenvalues --   -1.06340  -1.05076  -1.03186  -1.03030  -1.01481
 Alpha  occ. eigenvalues --   -0.93066  -0.90987  -0.90170  -0.89586  -0.89067
 Alpha  occ. eigenvalues --   -0.88171  -0.87623  -0.87448  -0.87169  -0.86772
 Alpha  occ. eigenvalues --   -0.85824  -0.85539  -0.84581  -0.83946  -0.83232
 Alpha  occ. eigenvalues --   -0.82571  -0.81706  -0.81486  -0.81117  -0.80478
 Alpha  occ. eigenvalues --   -0.79626  -0.78253  -0.77874  -0.76991  -0.75919
 Alpha  occ. eigenvalues --   -0.75574  -0.75501  -0.75023  -0.74959  -0.74338
 Alpha  occ. eigenvalues --   -0.73430  -0.72681  -0.71720  -0.70325  -0.69172
 Alpha  occ. eigenvalues --   -0.69060  -0.68489  -0.67439  -0.66720  -0.65824
 Alpha  occ. eigenvalues --   -0.65445  -0.65155  -0.64823  -0.64513  -0.64183
 Alpha  occ. eigenvalues --   -0.63930  -0.63762  -0.61813  -0.61725  -0.60241
 Alpha  occ. eigenvalues --   -0.59394  -0.59310  -0.58912  -0.58211  -0.57646
 Alpha  occ. eigenvalues --   -0.56943  -0.56692  -0.55995  -0.55779  -0.55480
 Alpha  occ. eigenvalues --   -0.54752  -0.54702  -0.54349  -0.54041  -0.53911
 Alpha  occ. eigenvalues --   -0.53594  -0.53378  -0.53063  -0.52836  -0.52637
 Alpha  occ. eigenvalues --   -0.52433  -0.52250  -0.52148  -0.51684  -0.51525
 Alpha  occ. eigenvalues --   -0.51285  -0.51165  -0.50977  -0.50328  -0.50198
 Alpha  occ. eigenvalues --   -0.49992  -0.49860  -0.49840  -0.49821  -0.49293
 Alpha  occ. eigenvalues --   -0.49091  -0.49065  -0.48903  -0.48693  -0.48464
 Alpha  occ. eigenvalues --   -0.48364  -0.48239  -0.48119  -0.47788  -0.47464
 Alpha  occ. eigenvalues --   -0.47195  -0.47062  -0.46964  -0.46820  -0.46765
 Alpha  occ. eigenvalues --   -0.46670  -0.46513  -0.46172  -0.46049  -0.45480
 Alpha  occ. eigenvalues --   -0.45328  -0.45125  -0.45115  -0.44997  -0.44918
 Alpha  occ. eigenvalues --   -0.44705  -0.44394  -0.44217  -0.44172  -0.43957
 Alpha  occ. eigenvalues --   -0.43690  -0.43515  -0.43374  -0.43131  -0.42824
 Alpha  occ. eigenvalues --   -0.42515  -0.42092  -0.42075  -0.41993  -0.41874
 Alpha  occ. eigenvalues --   -0.41836  -0.41404  -0.41196  -0.41050  -0.40903
 Alpha  occ. eigenvalues --   -0.40668  -0.40595  -0.40514  -0.40436  -0.40121
 Alpha  occ. eigenvalues --   -0.39951  -0.39767  -0.39148  -0.39049  -0.38978
 Alpha  occ. eigenvalues --   -0.38452  -0.38339  -0.37787  -0.37393  -0.37317
 Alpha  occ. eigenvalues --   -0.36807  -0.36628  -0.36506  -0.36106  -0.35929
 Alpha  occ. eigenvalues --   -0.35608  -0.35280  -0.34622  -0.34254  -0.33818
 Alpha  occ. eigenvalues --   -0.33596  -0.33275  -0.32498  -0.31267  -0.30902
 Alpha  occ. eigenvalues --   -0.30773  -0.30340  -0.30238  -0.29511  -0.23879
 Alpha  occ. eigenvalues --   -0.21223
 Alpha virt. eigenvalues --   -0.08631  -0.01716   0.00313   0.02072   0.02682
 Alpha virt. eigenvalues --    0.04495   0.05236   0.06420   0.06637   0.07296
 Alpha virt. eigenvalues --    0.07884   0.08031   0.08466   0.09408   0.09537

 Mulliken charges:
               1
     1  Mg   0.827321
     2  C   -0.017999
     3  C   -0.057771
     4  C   -0.041217
     5  C   -0.102868
     6  N   -0.238950
     7  C   -0.063752
     8  C   -0.039619
     9  C   -0.057769
    10  C    0.026903
    11  C    0.054763
    12  C    0.124218
    13  C    0.033659
    14  C    0.167388
    15  O   -0.234645
    16  O   -0.310738
    17  N   -0.334501
    18  C    0.136837
    19  C   -0.163623
    20  C   -0.025106
    21  C    0.114145
    22  C    0.115804
    23  C   -0.012354
    24  O   -0.192270
    25  C    0.059424
    26  N   -0.311964
    27  C    0.036661
    28  C   -0.046413
    29  C   -0.047474
    30  C    0.065545
    31  C    0.064812
    32  C    0.055474
    33  C   -0.013931
    34  N   -0.414153
    35  C    0.136674
    36  C   -0.226780
    37  C    0.047890
    38  C    0.179648
    39  C    0.126995
    40  C    0.024080
    41  O   -0.181945
    42  C   -0.022135
    43  C    0.163768
    44  O   -0.214453
    45  O   -0.315015
    46  C    0.171595
    47  C    0.334935
    48  C   -0.151749
    49  C   -0.161598
    50  C    0.065437
    51  C    0.055025
    52  C    0.032869
    53  C    0.020450
    54  C   -0.133155
    55  C    0.030266
    56  C    0.070406
    57  C   -0.005279
    58  C    0.088730
    59  C   -0.135701
    60  C    0.076587
    61  C    0.014118
    62  C    0.012632
    63  C    0.045493
    64  C   -0.157927
    65  C    0.045057
    66  C    0.054865
    67  H   -0.038724
    68  H   -0.004262
    69  H   -0.022855
    70  H   -0.006857
    71  H    0.001436
    72  H    0.020532
    73  H    0.014243
    74  H    0.012831
    75  H   -0.003141
    76  H    0.038321
    77  H    0.016791
    78  H    0.001683
    79  H    0.013139
    80  H    0.034067
    81  H    0.027488
    82  H    0.033135
    83  H    0.035394
    84  H    0.017998
    85  H    0.025684
    86  H    0.007909
    87  H    0.020833
    88  H    0.012593
    89  H    0.031924
    90  H    0.021705
    91  H    0.004631
    92  H    0.018270
    93  H    0.022103
    94  H    0.008328
    95  H    0.025248
    96  H    0.041155
    97  H    0.040022
    98  H    0.047462
    99  H    0.066145
   100  H    0.037325
   101  H    0.036543
   102  H    0.012959
   103  H    0.044511
   104  H   -0.013093
   105  H    0.025411
   106  H    0.009917
   107  H    0.029308
   108  H   -0.009354
   109  H    0.023328
   110  H    0.003604
   111  H    0.002626
   112  H   -0.000610
   113  H   -0.013510
   114  H   -0.003746
   115  H    0.011092
   116  H    0.003869
   117  H    0.007170
   118  H   -0.012253
   119  H   -0.001785
   120  H   -0.017396
   121  H   -0.008554
   122  H   -0.008716
   123  H   -0.020190
   124  H   -0.004292
   125  H    0.013339
   126  H    0.025880
   127  H    0.023879
   128  H   -0.011905
   129  H   -0.007821
   130  H   -0.014861
   131  H   -0.009316
   132  H   -0.013784
   133  H   -0.009751
   134  H   -0.008628
   135  H    0.011843
   136  H    0.004103
   137  H    0.004313
   138  H    0.016004
   139  H    0.000667
   140  H    0.009017
 Sum of Mulliken charges =  -0.00000

 Dipole moment (field-independent basis, Debye):
    X=              3.4125    Y=              3.8305    Z=              2.1515  Tot=              5.5630
 Quadrupole moment (field-independent basis, Debye-Ang):
   XX=           -378.5461   YY=           -419.3540   ZZ=           -401.2836
   XY=              5.2139   XZ=              0.3347   YZ=              0.3179

 Normal termination of Gaussian 16 at Thu May  5 02:54:53 2022.
