 Gaussian 16, Revision A.03,
 Gaussian 16:  ES64L-G16RevA.03 25-Dec-2016

 ---------------------------------
 #p PBE1PBE/Def2SVP td=(nstates=5)
 ---------------------------------

 -----------------------------------------------------
 step_551_chromophore_22 TDDFT with PBE1PBE functional
 -----------------------------------------------------
 Symbolic Z-matrix:
 Charge =  0 Multiplicity = 1

                         Standard orientation:
 ---------------------------------------------------------------------
 Center     Atomic      Atomic             Coordinates (Angstroms)
 Number     Number       Type             X           Y           Z
 ---------------------------------------------------------------------
      1         12           0       -6.116344    0.452726    0.063062
      2          6           0       -3.856880   -2.020319    0.786027
      3          6           0       -3.826443    2.788258    1.171868
      4          6           0       -8.529384    2.889375   -0.253504
      5          6           0       -8.604514   -2.011357   -0.393288
      6          7           0       -4.045062    0.345988    0.957658
      7          6           0       -3.321864   -0.763803    1.038918
      8          6           0       -1.841507   -0.379307    1.342564
      9          6           0       -2.025672    1.027564    1.893519
     10          6           0       -3.339913    1.453969    1.285843
     11          6           0       -1.993764    1.144686    3.482334
     12          6           0       -0.826174   -0.520600    0.186543
     13          6           0        0.412477   -1.375203    0.461109
     14          6           0        1.411884   -1.779574   -0.673909
     15          8           0        1.183085   -2.672419   -1.485557
     16          8           0        2.393072   -0.889538   -0.756426
     17          7           0       -6.086149    2.630946    0.244710
     18          6           0       -5.065941    3.318180    0.693373
     19          6           0       -5.431581    4.777650    0.518933
     20          6           0       -6.765508    4.831856    0.028937
     21          6           0       -7.219917    3.432159   -0.029874
     22          6           0       -4.491296    5.957307    0.998978
     23          6           0       -7.661605    6.011793   -0.230624
     24          8           0       -8.823352    6.011206   -0.603030
     25          6           0       -7.051857    7.341486   -0.068115
     26          7           0       -8.261465    0.452565   -0.047997
     27          6           0       -9.054630    1.598897   -0.196736
     28          6           0      -10.452497    1.258933   -0.750480
     29          6           0      -10.361877   -0.325588   -0.959852
     30          6           0       -8.974171   -0.679602   -0.338526
     31          6           0      -11.541175    1.775947    0.269807
     32          6           0      -10.567235   -0.896260   -2.424441
     33          6           0      -11.659836   -2.008597   -2.473815
     34          7           0       -6.252787   -1.515114    0.257966
     35          6           0       -7.276846   -2.427935   -0.023261
     36          6           0       -6.807102   -3.730234    0.225324
     37          6           0       -5.420713   -3.631901    0.463557
     38          6           0       -5.158428   -2.321248    0.495881
     39          6           0       -7.712927   -4.977587    0.133778
     40          6           0       -4.231733   -4.398567    0.646489
     41          8           0       -4.061591   -5.615122    0.525349
     42          6           0       -3.106472   -3.346585    1.001344
     43          6           0       -1.963760   -3.731565    0.184736
     44          8           0       -1.765998   -3.468627   -0.996448
     45          8           0       -1.211762   -4.518172    0.927572
     46          6           0       -0.168056   -5.383581    0.393481
     47          6           0        3.393541   -1.033408   -1.884261
     48          6           0        4.734920   -0.922564   -1.370944
     49          6           0        5.448870   -1.606578   -0.471749
     50          6           0        4.977476   -2.876668    0.347352
     51          6           0        6.888380   -1.232506   -0.097961
     52          6           0        7.852835   -0.868480   -1.231328
     53          6           0        8.238937    0.601335   -1.165621
     54          6           0        9.747836    0.664770   -0.591561
     55          6           0        9.645822    0.515340    0.960532
     56          6           0       10.463725    1.892442   -0.987307
     57          6           0       11.164824    1.786913   -2.367029
     58          6           0       12.568058    2.327691   -2.321379
     59          6           0       13.617054    1.297574   -2.034600
     60          6           0       14.541595    0.884574   -3.295719
     61          6           0       14.577925    1.833660   -0.880225
     62          6           0       15.223568    0.620800   -0.185853
     63          6           0       14.551299    0.186419    1.136341
     64          6           0       15.185773    0.655303    2.419784
     65          6           0       16.529596   -0.091696    2.678661
     66          6           0       14.248666    0.680069    3.684709
     67          1           0       -3.066110    3.515416    1.462993
     68          1           0       -9.339472    3.598809   -0.437047
     69          1           0       -9.342547   -2.795104   -0.573623
     70          1           0       -1.409294   -0.975845    2.146332
     71          1           0       -1.229417    1.720752    1.623184
     72          1           0       -2.769960    1.653246    4.052459
     73          1           0       -1.096136    1.672190    3.806037
     74          1           0       -1.985034    0.133868    3.889885
     75          1           0       -0.539125    0.525327    0.074732
     76          1           0       -1.366161   -0.899372   -0.681573
     77          1           0        0.079572   -2.314612    0.903168
     78          1           0        0.950569   -0.857407    1.255612
     79          1           0       -3.574370    5.573409    1.446192
     80          1           0       -4.990116    6.615358    1.709523
     81          1           0       -4.218728    6.528245    0.111999
     82          1           0       -6.169987    7.321995   -0.708110
     83          1           0       -6.921915    7.578222    0.988023
     84          1           0       -7.761579    8.101815   -0.394496
     85          1           0      -10.506215    1.707735   -1.742346
     86          1           0      -10.942924   -0.874881   -0.220145
     87          1           0      -12.248072    1.009022    0.587409
     88          1           0      -12.129713    2.509369   -0.281268
     89          1           0      -11.164227    2.385056    1.092161
     90          1           0       -9.631917   -1.228142   -2.876030
     91          1           0      -10.874063   -0.067010   -3.061599
     92          1           0      -11.262700   -2.900080   -2.960279
     93          1           0      -12.630489   -1.769860   -2.907294
     94          1           0      -11.904475   -2.293778   -1.449850
     95          1           0       -8.415324   -4.772683   -0.673647
     96          1           0       -8.113755   -4.941727    1.146172
     97          1           0       -7.111331   -5.846891   -0.132336
     98          1           0       -2.836435   -3.365968    2.056640
     99          1           0        0.187322   -5.090458   -0.594768
    100          1           0       -0.619095   -6.358168    0.206483
    101          1           0        0.594030   -5.467565    1.168336
    102          1           0        3.302267   -0.251203   -2.638505
    103          1           0        3.252307   -1.926867   -2.493314
    104          1           0        5.312009   -0.062762   -1.711189
    105          1           0        5.596500   -3.713400    0.020994
    106          1           0        3.949760   -3.128696    0.088913
    107          1           0        5.078384   -2.729283    1.423503
    108          1           0        7.340013   -2.044396    0.473499
    109          1           0        6.807174   -0.441174    0.646239
    110          1           0        7.378012   -1.018793   -2.200680
    111          1           0        8.729655   -1.514700   -1.198754
    112          1           0        7.541173    1.153706   -0.536851
    113          1           0        8.112189    1.056810   -2.148099
    114          1           0       10.307297   -0.179654   -0.994352
    115          1           0        9.302567    1.404603    1.488624
    116          1           0       10.682305    0.337368    1.246387
    117          1           0        9.053300   -0.318041    1.337489
    118          1           0       11.233644    2.028830   -0.226551
    119          1           0        9.812937    2.763678   -1.063161
    120          1           0       10.550597    2.422704   -3.005512
    121          1           0       11.029591    0.786328   -2.777534
    122          1           0       12.435065    3.120288   -1.585750
    123          1           0       12.755329    2.852174   -3.258233
    124          1           0       13.135820    0.459076   -1.529981
    125          1           0       14.025212    1.347975   -4.136297
    126          1           0       14.498694   -0.203932   -3.274754
    127          1           0       15.534744    1.306530   -3.139241
    128          1           0       14.054473    2.409195   -0.116564
    129          1           0       15.404590    2.474163   -1.186317
    130          1           0       16.250547    0.907523    0.040387
    131          1           0       15.207088   -0.186616   -0.917975
    132          1           0       14.637691   -0.899383    1.172667
    133          1           0       13.487937    0.423874    1.111045
    134          1           0       15.489415    1.672010    2.170854
    135          1           0       16.734744   -0.350699    3.717658
    136          1           0       17.327880    0.573527    2.349822
    137          1           0       16.575747   -0.957259    2.018639
    138          1           0       14.515948    0.127650    4.585693
    139          1           0       13.272552    0.344632    3.337854
    140          1           0       14.168050    1.730071    3.969073
 ---------------------------------------------------------------------

 SCF Done:  E(RPBE1PBE) =  -3005.33957711     A.U. after   15 cycles

 Excitation energies and oscillator strengths:

 Excited State   1:      Singlet-A      1.8920 eV  655.32 nm  f=0.3768  <S**2>=0.000
     245 -> 248       -0.18285
     246 -> 247        0.68972
     246 <- 247       -0.10541
 This state for optimization and/or second-order correction.
 Total Energy, E(TD-HF/TD-DFT) =  -3005.27004867
 Copying the excited state density for this state as the 1-particle RhoCI density.

 Excited State   2:      Singlet-A      2.2365 eV  554.37 nm  f=0.1124  <S**2>=0.000
     245 -> 247        0.65267
     246 -> 248        0.26085

 Excited State   3:      Singlet-A      3.0525 eV  406.17 nm  f=0.0014  <S**2>=0.000
     241 -> 247        0.35796
     244 -> 247        0.58646

 Excited State   4:      Singlet-A      3.0814 eV  402.36 nm  f=0.0002  <S**2>=0.000
     241 -> 247        0.30892
     242 -> 247       -0.13686
     243 -> 247        0.55076
     243 -> 249       -0.11504
     244 -> 247       -0.18792

 Excited State   5:      Singlet-A      3.1026 eV  399.62 nm  f=0.0007  <S**2>=0.000
     241 -> 247        0.47883
     243 -> 247       -0.35861
     244 -> 247       -0.32376

 The electronic state is 1-A.
 Alpha  occ. eigenvalues --  -46.91957 -19.25916 -19.24897 -19.19157 -19.18955
 Alpha  occ. eigenvalues --  -19.18906 -19.17939 -14.41332 -14.41144 -14.39349
 Alpha  occ. eigenvalues --  -14.38458 -10.35847 -10.34853 -10.32030 -10.31726
 Alpha  occ. eigenvalues --  -10.29380 -10.28826 -10.28732 -10.28521 -10.28328
 Alpha  occ. eigenvalues --  -10.28280 -10.28058 -10.27938 -10.27461 -10.26839
 Alpha  occ. eigenvalues --  -10.26030 -10.25991 -10.25721 -10.25462 -10.25423
 Alpha  occ. eigenvalues --  -10.25259 -10.25231 -10.25225 -10.25177 -10.25018
 Alpha  occ. eigenvalues --  -10.24956 -10.24924 -10.24440 -10.24338 -10.24285
 Alpha  occ. eigenvalues --  -10.24198 -10.24061 -10.23997 -10.23795 -10.23642
 Alpha  occ. eigenvalues --  -10.23489 -10.23385 -10.23314 -10.23299 -10.23213
 Alpha  occ. eigenvalues --  -10.22967 -10.22892 -10.22622 -10.22520 -10.22506
 Alpha  occ. eigenvalues --  -10.22501 -10.22305 -10.22141 -10.22106 -10.22066
 Alpha  occ. eigenvalues --  -10.22033 -10.21925 -10.21837 -10.21782 -10.21657
 Alpha  occ. eigenvalues --  -10.21640  -3.14071  -1.86891  -1.86432  -1.86312
 Alpha  occ. eigenvalues --   -1.11405  -1.11067  -1.04932  -1.03781  -1.01530
 Alpha  occ. eigenvalues --   -1.01147  -0.99684  -0.97949  -0.97612  -0.96097
 Alpha  occ. eigenvalues --   -0.87519  -0.85088  -0.84296  -0.83810  -0.83189
 Alpha  occ. eigenvalues --   -0.82498  -0.81802  -0.81709  -0.81473  -0.80925
 Alpha  occ. eigenvalues --   -0.80229  -0.79732  -0.78838  -0.78230  -0.77428
 Alpha  occ. eigenvalues --   -0.76818  -0.75954  -0.75691  -0.75328  -0.74811
 Alpha  occ. eigenvalues --   -0.73766  -0.72512  -0.72092  -0.71339  -0.70265
 Alpha  occ. eigenvalues --   -0.69657  -0.69626  -0.69332  -0.69158  -0.68497
 Alpha  occ. eigenvalues --   -0.67738  -0.67146  -0.66145  -0.64691  -0.63410
 Alpha  occ. eigenvalues --   -0.63376  -0.62977  -0.61820  -0.60940  -0.60234
 Alpha  occ. eigenvalues --   -0.59651  -0.59627  -0.59387  -0.59120  -0.58720
 Alpha  occ. eigenvalues --   -0.58044  -0.57934  -0.56329  -0.56017  -0.54744
 Alpha  occ. eigenvalues --   -0.53915  -0.53877  -0.53298  -0.52841  -0.52206
 Alpha  occ. eigenvalues --   -0.51454  -0.51012  -0.50445  -0.50286  -0.50115
 Alpha  occ. eigenvalues --   -0.49306  -0.49092  -0.48796  -0.48582  -0.48404
 Alpha  occ. eigenvalues --   -0.48020  -0.47634  -0.47581  -0.47498  -0.47257
 Alpha  occ. eigenvalues --   -0.47046  -0.46805  -0.46654  -0.46274  -0.46060
 Alpha  occ. eigenvalues --   -0.45904  -0.45785  -0.45499  -0.44953  -0.44775
 Alpha  occ. eigenvalues --   -0.44563  -0.44448  -0.44374  -0.44333  -0.43897
 Alpha  occ. eigenvalues --   -0.43668  -0.43616  -0.43502  -0.43280  -0.43031
 Alpha  occ. eigenvalues --   -0.42971  -0.42812  -0.42749  -0.42473  -0.42048
 Alpha  occ. eigenvalues --   -0.41840  -0.41667  -0.41593  -0.41445  -0.41369
 Alpha  occ. eigenvalues --   -0.41279  -0.41203  -0.40966  -0.40712  -0.40149
 Alpha  occ. eigenvalues --   -0.40109  -0.39931  -0.39807  -0.39702  -0.39565
 Alpha  occ. eigenvalues --   -0.39475  -0.39135  -0.39010  -0.38835  -0.38673
 Alpha  occ. eigenvalues --   -0.38478  -0.38339  -0.38108  -0.37890  -0.37624
 Alpha  occ. eigenvalues --   -0.37363  -0.36925  -0.36826  -0.36774  -0.36648
 Alpha  occ. eigenvalues --   -0.36587  -0.36242  -0.36014  -0.35951  -0.35629
 Alpha  occ. eigenvalues --   -0.35569  -0.35435  -0.35408  -0.35265  -0.34946
 Alpha  occ. eigenvalues --   -0.34810  -0.34547  -0.34023  -0.33987  -0.33827
 Alpha  occ. eigenvalues --   -0.33440  -0.33098  -0.32624  -0.32373  -0.32176
 Alpha  occ. eigenvalues --   -0.31904  -0.31534  -0.31474  -0.31030  -0.30970
 Alpha  occ. eigenvalues --   -0.30382  -0.30217  -0.29573  -0.29216  -0.29021
 Alpha  occ. eigenvalues --   -0.28991  -0.28272  -0.27425  -0.26807  -0.25978
 Alpha  occ. eigenvalues --   -0.25701  -0.25529  -0.25478  -0.25217  -0.20842
 Alpha  occ. eigenvalues --   -0.18829
 Alpha virt. eigenvalues --   -0.11087  -0.05221  -0.03909  -0.01930  -0.00556
 Alpha virt. eigenvalues --   -0.00016   0.00691   0.01885   0.02052   0.03560
 Alpha virt. eigenvalues --    0.04284   0.04609   0.04642   0.05837   0.06290

 Mulliken charges:
               1
     1  Mg   0.970887
     2  C   -0.033337
     3  C   -0.057275
     4  C   -0.039433
     5  C   -0.090420
     6  N   -0.345218
     7  C    0.030778
     8  C   -0.109212
     9  C   -0.139957
    10  C    0.071794
    11  C    0.002965
    12  C    0.075227
    13  C   -0.052369
    14  C    0.237128
    15  O   -0.267490
    16  O   -0.339571
    17  N   -0.446504
    18  C    0.167604
    19  C   -0.186821
    20  C   -0.077586
    21  C    0.143057
    22  C    0.053982
    23  C    0.043904
    24  O   -0.232253
    25  C   -0.019332
    26  N   -0.411997
    27  C    0.072426
    28  C   -0.130278
    29  C   -0.114741
    30  C    0.100243
    31  C    0.010712
    32  C   -0.006738
    33  C   -0.085272
    34  N   -0.540059
    35  C    0.158666
    36  C   -0.237813
    37  C   -0.002150
    38  C    0.215914
    39  C    0.069554
    40  C    0.121428
    41  O   -0.226541
    42  C   -0.125786
    43  C    0.252864
    44  O   -0.252210
    45  O   -0.349457
    46  C    0.117606
    47  C    0.289537
    48  C   -0.173469
    49  C   -0.192039
    50  C   -0.001404
    51  C   -0.005319
    52  C   -0.033716
    53  C   -0.030343
    54  C   -0.223862
    55  C   -0.034196
    56  C    0.015755
    57  C   -0.065839
    58  C    0.030281
    59  C   -0.222592
    60  C    0.015187
    61  C   -0.035782
    62  C   -0.052461
    63  C   -0.020447
    64  C   -0.247047
    65  C   -0.013886
    66  C   -0.007739
    67  H   -0.004773
    68  H    0.027546
    69  H    0.009524
    70  H    0.031570
    71  H    0.037363
    72  H    0.047403
    73  H    0.041035
    74  H    0.039801
    75  H    0.032065
    76  H    0.070337
    77  H    0.054877
    78  H    0.035319
    79  H    0.040446
    80  H    0.060729
    81  H    0.055041
    82  H    0.060219
    83  H    0.062271
    84  H    0.046187
    85  H    0.061559
    86  H    0.045127
    87  H    0.047508
    88  H    0.040274
    89  H    0.058645
    90  H    0.053755
    91  H    0.038396
    92  H    0.045630
    93  H    0.049726
    94  H    0.034903
    95  H    0.052068
    96  H    0.070627
    97  H    0.068147
    98  H    0.083390
    99  H    0.087078
   100  H    0.059642
   101  H    0.057692
   102  H    0.039460
   103  H    0.069802
   104  H    0.019622
   105  H    0.053730
   106  H    0.040983
   107  H    0.056131
   108  H    0.022001
   109  H    0.055299
   110  H    0.036624
   111  H    0.035050
   112  H    0.031349
   113  H    0.018789
   114  H    0.033020
   115  H    0.038747
   116  H    0.036613
   117  H    0.036432
   118  H    0.022193
   119  H    0.030911
   120  H    0.016752
   121  H    0.023349
   122  H    0.024333
   123  H    0.012650
   124  H    0.036430
   125  H    0.041163
   126  H    0.052214
   127  H    0.050629
   128  H    0.020369
   129  H    0.024622
   130  H    0.018910
   131  H    0.024590
   132  H    0.020532
   133  H    0.028263
   134  H    0.031031
   135  H    0.039060
   136  H    0.031138
   137  H    0.031319
   138  H    0.042097
   139  H    0.028457
   140  H    0.036668
 Sum of Mulliken charges =  -0.00000

 Dipole moment (field-independent basis, Debye):
    X=              3.3718    Y=              3.5442    Z=              2.1356  Tot=              5.3377
 Quadrupole moment (field-independent basis, Debye-Ang):
   XX=           -372.3911   YY=           -416.9069   ZZ=           -398.6080
   XY=              7.9447   XZ=              1.2207   YZ=              0.4120

 Normal termination of Gaussian 16 at Thu May  5 03:22:12 2022.
