 Gaussian 16, Revision A.03,
 Gaussian 16:  ES64L-G16RevA.03 25-Dec-2016

 --------------------------------
 #p wB97XD/Def2SVP td=(nstates=5)
 --------------------------------

 ----------------------------------------------------
 step_551_chromophore_22 TDDFT with wB97XD functional
 ----------------------------------------------------
 Symbolic Z-matrix:
 Charge =  0 Multiplicity = 1

                         Standard orientation:
 ---------------------------------------------------------------------
 Center     Atomic      Atomic             Coordinates (Angstroms)
 Number     Number       Type             X           Y           Z
 ---------------------------------------------------------------------
      1         12           0       -6.116344    0.452726    0.063062
      2          6           0       -3.856880   -2.020319    0.786027
      3          6           0       -3.826443    2.788258    1.171868
      4          6           0       -8.529384    2.889375   -0.253504
      5          6           0       -8.604514   -2.011357   -0.393288
      6          7           0       -4.045062    0.345988    0.957658
      7          6           0       -3.321864   -0.763803    1.038918
      8          6           0       -1.841507   -0.379307    1.342564
      9          6           0       -2.025672    1.027564    1.893519
     10          6           0       -3.339913    1.453969    1.285843
     11          6           0       -1.993764    1.144686    3.482334
     12          6           0       -0.826174   -0.520600    0.186543
     13          6           0        0.412477   -1.375203    0.461109
     14          6           0        1.411884   -1.779574   -0.673909
     15          8           0        1.183085   -2.672419   -1.485557
     16          8           0        2.393072   -0.889538   -0.756426
     17          7           0       -6.086149    2.630946    0.244710
     18          6           0       -5.065941    3.318180    0.693373
     19          6           0       -5.431581    4.777650    0.518933
     20          6           0       -6.765508    4.831856    0.028937
     21          6           0       -7.219917    3.432159   -0.029874
     22          6           0       -4.491296    5.957307    0.998978
     23          6           0       -7.661605    6.011793   -0.230624
     24          8           0       -8.823352    6.011206   -0.603030
     25          6           0       -7.051857    7.341486   -0.068115
     26          7           0       -8.261465    0.452565   -0.047997
     27          6           0       -9.054630    1.598897   -0.196736
     28          6           0      -10.452497    1.258933   -0.750480
     29          6           0      -10.361877   -0.325588   -0.959852
     30          6           0       -8.974171   -0.679602   -0.338526
     31          6           0      -11.541175    1.775947    0.269807
     32          6           0      -10.567235   -0.896260   -2.424441
     33          6           0      -11.659836   -2.008597   -2.473815
     34          7           0       -6.252787   -1.515114    0.257966
     35          6           0       -7.276846   -2.427935   -0.023261
     36          6           0       -6.807102   -3.730234    0.225324
     37          6           0       -5.420713   -3.631901    0.463557
     38          6           0       -5.158428   -2.321248    0.495881
     39          6           0       -7.712927   -4.977587    0.133778
     40          6           0       -4.231733   -4.398567    0.646489
     41          8           0       -4.061591   -5.615122    0.525349
     42          6           0       -3.106472   -3.346585    1.001344
     43          6           0       -1.963760   -3.731565    0.184736
     44          8           0       -1.765998   -3.468627   -0.996448
     45          8           0       -1.211762   -4.518172    0.927572
     46          6           0       -0.168056   -5.383581    0.393481
     47          6           0        3.393541   -1.033408   -1.884261
     48          6           0        4.734920   -0.922564   -1.370944
     49          6           0        5.448870   -1.606578   -0.471749
     50          6           0        4.977476   -2.876668    0.347352
     51          6           0        6.888380   -1.232506   -0.097961
     52          6           0        7.852835   -0.868480   -1.231328
     53          6           0        8.238937    0.601335   -1.165621
     54          6           0        9.747836    0.664770   -0.591561
     55          6           0        9.645822    0.515340    0.960532
     56          6           0       10.463725    1.892442   -0.987307
     57          6           0       11.164824    1.786913   -2.367029
     58          6           0       12.568058    2.327691   -2.321379
     59          6           0       13.617054    1.297574   -2.034600
     60          6           0       14.541595    0.884574   -3.295719
     61          6           0       14.577925    1.833660   -0.880225
     62          6           0       15.223568    0.620800   -0.185853
     63          6           0       14.551299    0.186419    1.136341
     64          6           0       15.185773    0.655303    2.419784
     65          6           0       16.529596   -0.091696    2.678661
     66          6           0       14.248666    0.680069    3.684709
     67          1           0       -3.066110    3.515416    1.462993
     68          1           0       -9.339472    3.598809   -0.437047
     69          1           0       -9.342547   -2.795104   -0.573623
     70          1           0       -1.409294   -0.975845    2.146332
     71          1           0       -1.229417    1.720752    1.623184
     72          1           0       -2.769960    1.653246    4.052459
     73          1           0       -1.096136    1.672190    3.806037
     74          1           0       -1.985034    0.133868    3.889885
     75          1           0       -0.539125    0.525327    0.074732
     76          1           0       -1.366161   -0.899372   -0.681573
     77          1           0        0.079572   -2.314612    0.903168
     78          1           0        0.950569   -0.857407    1.255612
     79          1           0       -3.574370    5.573409    1.446192
     80          1           0       -4.990116    6.615358    1.709523
     81          1           0       -4.218728    6.528245    0.111999
     82          1           0       -6.169987    7.321995   -0.708110
     83          1           0       -6.921915    7.578222    0.988023
     84          1           0       -7.761579    8.101815   -0.394496
     85          1           0      -10.506215    1.707735   -1.742346
     86          1           0      -10.942924   -0.874881   -0.220145
     87          1           0      -12.248072    1.009022    0.587409
     88          1           0      -12.129713    2.509369   -0.281268
     89          1           0      -11.164227    2.385056    1.092161
     90          1           0       -9.631917   -1.228142   -2.876030
     91          1           0      -10.874063   -0.067010   -3.061599
     92          1           0      -11.262700   -2.900080   -2.960279
     93          1           0      -12.630489   -1.769860   -2.907294
     94          1           0      -11.904475   -2.293778   -1.449850
     95          1           0       -8.415324   -4.772683   -0.673647
     96          1           0       -8.113755   -4.941727    1.146172
     97          1           0       -7.111331   -5.846891   -0.132336
     98          1           0       -2.836435   -3.365968    2.056640
     99          1           0        0.187322   -5.090458   -0.594768
    100          1           0       -0.619095   -6.358168    0.206483
    101          1           0        0.594030   -5.467565    1.168336
    102          1           0        3.302267   -0.251203   -2.638505
    103          1           0        3.252307   -1.926867   -2.493314
    104          1           0        5.312009   -0.062762   -1.711189
    105          1           0        5.596500   -3.713400    0.020994
    106          1           0        3.949760   -3.128696    0.088913
    107          1           0        5.078384   -2.729283    1.423503
    108          1           0        7.340013   -2.044396    0.473499
    109          1           0        6.807174   -0.441174    0.646239
    110          1           0        7.378012   -1.018793   -2.200680
    111          1           0        8.729655   -1.514700   -1.198754
    112          1           0        7.541173    1.153706   -0.536851
    113          1           0        8.112189    1.056810   -2.148099
    114          1           0       10.307297   -0.179654   -0.994352
    115          1           0        9.302567    1.404603    1.488624
    116          1           0       10.682305    0.337368    1.246387
    117          1           0        9.053300   -0.318041    1.337489
    118          1           0       11.233644    2.028830   -0.226551
    119          1           0        9.812937    2.763678   -1.063161
    120          1           0       10.550597    2.422704   -3.005512
    121          1           0       11.029591    0.786328   -2.777534
    122          1           0       12.435065    3.120288   -1.585750
    123          1           0       12.755329    2.852174   -3.258233
    124          1           0       13.135820    0.459076   -1.529981
    125          1           0       14.025212    1.347975   -4.136297
    126          1           0       14.498694   -0.203932   -3.274754
    127          1           0       15.534744    1.306530   -3.139241
    128          1           0       14.054473    2.409195   -0.116564
    129          1           0       15.404590    2.474163   -1.186317
    130          1           0       16.250547    0.907523    0.040387
    131          1           0       15.207088   -0.186616   -0.917975
    132          1           0       14.637691   -0.899383    1.172667
    133          1           0       13.487937    0.423874    1.111045
    134          1           0       15.489415    1.672010    2.170854
    135          1           0       16.734744   -0.350699    3.717658
    136          1           0       17.327880    0.573527    2.349822
    137          1           0       16.575747   -0.957259    2.018639
    138          1           0       14.515948    0.127650    4.585693
    139          1           0       13.272552    0.344632    3.337854
    140          1           0       14.168050    1.730071    3.969073
 ---------------------------------------------------------------------

 SCF Done:  E(RwB97XD) =  -3007.85166299     A.U. after   18 cycles

 Excitation energies and oscillator strengths:

 Excited State   1:      Singlet-A      1.6765 eV  739.53 nm  f=0.3868  <S**2>=0.000
     245 -> 248        0.19466
     246 -> 247        0.68068
     245 <- 248        0.11823
 This state for optimization and/or second-order correction.
 Total Energy, E(TD-HF/TD-DFT) =  -3007.79005145
 Copying the excited state density for this state as the 1-particle RhoCI density.

 Excited State   2:      Singlet-A      2.1698 eV  571.41 nm  f=0.1163  <S**2>=0.000
     245 -> 247        0.64048
     246 -> 248       -0.28569

 Excited State   3:      Singlet-A      3.4044 eV  364.19 nm  f=0.0041  <S**2>=0.000
     244 -> 247        0.67952

 Excited State   4:      Singlet-A      3.5112 eV  353.11 nm  f=0.3321  <S**2>=0.000
     242 -> 247        0.39830
     245 -> 247        0.18919
     246 -> 248        0.51805

 Excited State   5:      Singlet-A      3.6385 eV  340.75 nm  f=0.0402  <S**2>=0.000
     241 -> 247        0.51941
     241 -> 249       -0.28418
     241 -> 250       -0.24681
     242 -> 247        0.12598
     246 -> 248       -0.12540

 The electronic state is 1-A.
 Alpha  occ. eigenvalues --  -46.94892 -19.30468 -19.29437 -19.23873 -19.23868
 Alpha  occ. eigenvalues --  -19.23532 -19.22647 -14.46456 -14.46182 -14.44366
 Alpha  occ. eigenvalues --  -14.43290 -10.42623 -10.41701 -10.38809 -10.38673
 Alpha  occ. eigenvalues --  -10.35914 -10.35273 -10.35236 -10.34937 -10.34788
 Alpha  occ. eigenvalues --  -10.34537 -10.34428 -10.34225 -10.34122 -10.32960
 Alpha  occ. eigenvalues --  -10.32292 -10.32228 -10.31962 -10.31780 -10.31774
 Alpha  occ. eigenvalues --  -10.31731 -10.31670 -10.31667 -10.31553 -10.31403
 Alpha  occ. eigenvalues --  -10.31257 -10.31157 -10.30770 -10.30692 -10.30609
 Alpha  occ. eigenvalues --  -10.30560 -10.30406 -10.30384 -10.30059 -10.29950
 Alpha  occ. eigenvalues --  -10.29918 -10.29700 -10.29694 -10.29593 -10.29577
 Alpha  occ. eigenvalues --  -10.29315 -10.29314 -10.29180 -10.29010 -10.28879
 Alpha  occ. eigenvalues --  -10.28858 -10.28742 -10.28512 -10.28482 -10.28455
 Alpha  occ. eigenvalues --  -10.28399 -10.28200 -10.28155 -10.28099 -10.28065
 Alpha  occ. eigenvalues --  -10.28024  -3.20875  -1.94444  -1.93986  -1.93856
 Alpha  occ. eigenvalues --   -1.18774  -1.18428  -1.12518  -1.11184  -1.08845
 Alpha  occ. eigenvalues --   -1.08507  -1.07075  -1.05212  -1.05087  -1.03491
 Alpha  occ. eigenvalues --   -0.95050  -0.92758  -0.91963  -0.91422  -0.90850
 Alpha  occ. eigenvalues --   -0.90110  -0.89435  -0.89355  -0.89049  -0.88725
 Alpha  occ. eigenvalues --   -0.87759  -0.87391  -0.86470  -0.85850  -0.85083
 Alpha  occ. eigenvalues --   -0.84448  -0.83633  -0.83418  -0.82987  -0.82432
 Alpha  occ. eigenvalues --   -0.81443  -0.80211  -0.79766  -0.78919  -0.77846
 Alpha  occ. eigenvalues --   -0.77361  -0.77325  -0.76938  -0.76827  -0.76167
 Alpha  occ. eigenvalues --   -0.75342  -0.74663  -0.73684  -0.72269  -0.71031
 Alpha  occ. eigenvalues --   -0.70953  -0.70496  -0.69462  -0.68586  -0.67754
 Alpha  occ. eigenvalues --   -0.67295  -0.67097  -0.66830  -0.66513  -0.66164
 Alpha  occ. eigenvalues --   -0.65730  -0.65590  -0.63694  -0.63643  -0.62190
 Alpha  occ. eigenvalues --   -0.61408  -0.61303  -0.60807  -0.60194  -0.59612
 Alpha  occ. eigenvalues --   -0.58918  -0.58552  -0.57899  -0.57730  -0.57449
 Alpha  occ. eigenvalues --   -0.56744  -0.56577  -0.56236  -0.55975  -0.55812
 Alpha  occ. eigenvalues --   -0.55455  -0.55308  -0.54986  -0.54807  -0.54537
 Alpha  occ. eigenvalues --   -0.54382  -0.54176  -0.54054  -0.53602  -0.53459
 Alpha  occ. eigenvalues --   -0.53186  -0.53090  -0.52852  -0.52232  -0.52146
 Alpha  occ. eigenvalues --   -0.51941  -0.51754  -0.51724  -0.51687  -0.51230
 Alpha  occ. eigenvalues --   -0.51009  -0.50961  -0.50804  -0.50603  -0.50370
 Alpha  occ. eigenvalues --   -0.50309  -0.50174  -0.50056  -0.49689  -0.49418
 Alpha  occ. eigenvalues --   -0.49095  -0.48943  -0.48835  -0.48698  -0.48622
 Alpha  occ. eigenvalues --   -0.48553  -0.48415  -0.48093  -0.47926  -0.47348
 Alpha  occ. eigenvalues --   -0.47254  -0.47042  -0.46995  -0.46868  -0.46807
 Alpha  occ. eigenvalues --   -0.46651  -0.46316  -0.46146  -0.46031  -0.45874
 Alpha  occ. eigenvalues --   -0.45626  -0.45471  -0.45269  -0.45037  -0.44780
 Alpha  occ. eigenvalues --   -0.44454  -0.44054  -0.43951  -0.43918  -0.43799
 Alpha  occ. eigenvalues --   -0.43734  -0.43280  -0.43110  -0.42980  -0.42753
 Alpha  occ. eigenvalues --   -0.42568  -0.42502  -0.42423  -0.42285  -0.42002
 Alpha  occ. eigenvalues --   -0.41834  -0.41605  -0.41058  -0.40890  -0.40884
 Alpha  occ. eigenvalues --   -0.40358  -0.40168  -0.39638  -0.39322  -0.39161
 Alpha  occ. eigenvalues --   -0.38948  -0.38553  -0.38449  -0.37965  -0.37871
 Alpha  occ. eigenvalues --   -0.37440  -0.37266  -0.36467  -0.36109  -0.35814
 Alpha  occ. eigenvalues --   -0.35708  -0.35323  -0.34454  -0.33464  -0.32881
 Alpha  occ. eigenvalues --   -0.32730  -0.32503  -0.32271  -0.31668  -0.25801
 Alpha  occ. eigenvalues --   -0.23033
 Alpha virt. eigenvalues --   -0.06982   0.00187   0.02365   0.04555   0.05442
 Alpha virt. eigenvalues --    0.06665   0.07455   0.08689   0.08861   0.10198
 Alpha virt. eigenvalues --    0.10575   0.11201   0.11299   0.12607   0.13043

 Mulliken charges:
               1
     1  Mg   0.962437
     2  C   -0.033960
     3  C   -0.070927
     4  C   -0.055442
     5  C   -0.108561
     6  N   -0.307996
     7  C   -0.015458
     8  C   -0.078907
     9  C   -0.109550
    10  C    0.051708
    11  C    0.009925
    12  C    0.084235
    13  C   -0.024132
    14  C    0.221057
    15  O   -0.262856
    16  O   -0.338486
    17  N   -0.414480
    18  C    0.158029
    19  C   -0.179621
    20  C   -0.069855
    21  C    0.136571
    22  C    0.069630
    23  C    0.040128
    24  O   -0.225188
    25  C   -0.005930
    26  N   -0.381999
    27  C    0.062748
    28  C   -0.102937
    29  C   -0.089681
    30  C    0.089779
    31  C    0.018961
    32  C    0.006504
    33  C   -0.068467
    34  N   -0.505789
    35  C    0.150575
    36  C   -0.236712
    37  C    0.001157
    38  C    0.206665
    39  C    0.082108
    40  C    0.100823
    41  O   -0.217641
    42  C   -0.084780
    43  C    0.221695
    44  O   -0.241302
    45  O   -0.345319
    46  C    0.131840
    47  C    0.303781
    48  C   -0.178377
    49  C   -0.182772
    50  C    0.016747
    51  C    0.010251
    52  C   -0.014847
    53  C   -0.018781
    54  C   -0.186894
    55  C   -0.017451
    56  C    0.031987
    57  C   -0.050501
    58  C    0.048225
    59  C   -0.190879
    60  C    0.027832
    61  C   -0.021554
    62  C   -0.034283
    63  C    0.005654
    64  C   -0.217900
    65  C   -0.003367
    66  C    0.005615
    67  H   -0.012449
    68  H    0.022224
    69  H    0.001467
    70  H    0.015477
    71  H    0.027644
    72  H    0.042595
    73  H    0.036030
    74  H    0.033598
    75  H    0.022459
    76  H    0.062591
    77  H    0.038586
    78  H    0.028925
    79  H    0.036814
    80  H    0.055395
    81  H    0.049810
    82  H    0.053020
    83  H    0.057372
    84  H    0.045259
    85  H    0.051826
    86  H    0.030669
    87  H    0.043155
    88  H    0.034423
    89  H    0.053011
    90  H    0.045757
    91  H    0.029976
    92  H    0.040149
    93  H    0.044892
    94  H    0.026966
    95  H    0.045336
    96  H    0.064480
    97  H    0.064717
    98  H    0.076948
    99  H    0.083018
   100  H    0.056538
   101  H    0.054520
   102  H    0.036596
   103  H    0.066280
   104  H    0.012066
   105  H    0.047611
   106  H    0.032827
   107  H    0.051139
   108  H    0.015069
   109  H    0.044542
   110  H    0.027620
   111  H    0.026904
   112  H    0.020563
   113  H    0.011718
   114  H    0.017210
   115  H    0.032940
   116  H    0.027256
   117  H    0.028386
   118  H    0.005613
   119  H    0.023523
   120  H    0.009375
   121  H    0.013618
   122  H    0.013821
   123  H    0.005108
   124  H    0.017402
   125  H    0.034946
   126  H    0.046928
   127  H    0.044592
   128  H    0.008984
   129  H    0.016675
   130  H    0.009586
   131  H    0.014311
   132  H    0.009808
   133  H    0.010576
   134  H    0.017157
   135  H    0.034249
   136  H    0.025157
   137  H    0.024025
   138  H    0.037276
   139  H    0.021318
   140  H    0.030944
 Sum of Mulliken charges =  -0.00000

 Dipole moment (field-independent basis, Debye):
    X=              3.4578    Y=              3.9628    Z=              2.1585  Tot=              5.6850
 Quadrupole moment (field-independent basis, Debye-Ang):
   XX=           -373.5803   YY=           -414.7959   ZZ=           -398.2502
   XY=              4.9116   XZ=              1.0344   YZ=              0.3625

 Normal termination of Gaussian 16 at Thu May  5 04:09:40 2022.
