 Gaussian 16, Revision A.03,
 Gaussian 16:  ES64L-G16RevA.03 25-Dec-2016

 --------------------
 #p ZINDO=(nstates=5)
 --------------------

 -----------------------------
 step_551_chromophore_22 ZINDO
 -----------------------------
 Symbolic Z-matrix:
 Charge =  0 Multiplicity = 1

                         Standard orientation:
 ---------------------------------------------------------------------
 Center     Atomic      Atomic             Coordinates (Angstroms)
 Number     Number       Type             X           Y           Z
 ---------------------------------------------------------------------
      1         12           0       -6.116344    0.452726    0.063062
      2          6           0       -3.856880   -2.020319    0.786027
      3          6           0       -3.826443    2.788258    1.171868
      4          6           0       -8.529384    2.889375   -0.253504
      5          6           0       -8.604514   -2.011357   -0.393288
      6          7           0       -4.045062    0.345988    0.957658
      7          6           0       -3.321864   -0.763803    1.038918
      8          6           0       -1.841507   -0.379307    1.342564
      9          6           0       -2.025672    1.027564    1.893519
     10          6           0       -3.339913    1.453969    1.285843
     11          6           0       -1.993764    1.144686    3.482334
     12          6           0       -0.826174   -0.520600    0.186543
     13          6           0        0.412477   -1.375203    0.461109
     14          6           0        1.411884   -1.779574   -0.673909
     15          8           0        1.183085   -2.672419   -1.485557
     16          8           0        2.393072   -0.889538   -0.756426
     17          7           0       -6.086149    2.630946    0.244710
     18          6           0       -5.065941    3.318180    0.693373
     19          6           0       -5.431581    4.777650    0.518933
     20          6           0       -6.765508    4.831856    0.028937
     21          6           0       -7.219917    3.432159   -0.029874
     22          6           0       -4.491296    5.957307    0.998978
     23          6           0       -7.661605    6.011793   -0.230624
     24          8           0       -8.823352    6.011206   -0.603030
     25          6           0       -7.051857    7.341486   -0.068115
     26          7           0       -8.261465    0.452565   -0.047997
     27          6           0       -9.054630    1.598897   -0.196736
     28          6           0      -10.452497    1.258933   -0.750480
     29          6           0      -10.361877   -0.325588   -0.959852
     30          6           0       -8.974171   -0.679602   -0.338526
     31          6           0      -11.541175    1.775947    0.269807
     32          6           0      -10.567235   -0.896260   -2.424441
     33          6           0      -11.659836   -2.008597   -2.473815
     34          7           0       -6.252787   -1.515114    0.257966
     35          6           0       -7.276846   -2.427935   -0.023261
     36          6           0       -6.807102   -3.730234    0.225324
     37          6           0       -5.420713   -3.631901    0.463557
     38          6           0       -5.158428   -2.321248    0.495881
     39          6           0       -7.712927   -4.977587    0.133778
     40          6           0       -4.231733   -4.398567    0.646489
     41          8           0       -4.061591   -5.615122    0.525349
     42          6           0       -3.106472   -3.346585    1.001344
     43          6           0       -1.963760   -3.731565    0.184736
     44          8           0       -1.765998   -3.468627   -0.996448
     45          8           0       -1.211762   -4.518172    0.927572
     46          6           0       -0.168056   -5.383581    0.393481
     47          6           0        3.393541   -1.033408   -1.884261
     48          6           0        4.734920   -0.922564   -1.370944
     49          6           0        5.448870   -1.606578   -0.471749
     50          6           0        4.977476   -2.876668    0.347352
     51          6           0        6.888380   -1.232506   -0.097961
     52          6           0        7.852835   -0.868480   -1.231328
     53          6           0        8.238937    0.601335   -1.165621
     54          6           0        9.747836    0.664770   -0.591561
     55          6           0        9.645822    0.515340    0.960532
     56          6           0       10.463725    1.892442   -0.987307
     57          6           0       11.164824    1.786913   -2.367029
     58          6           0       12.568058    2.327691   -2.321379
     59          6           0       13.617054    1.297574   -2.034600
     60          6           0       14.541595    0.884574   -3.295719
     61          6           0       14.577925    1.833660   -0.880225
     62          6           0       15.223568    0.620800   -0.185853
     63          6           0       14.551299    0.186419    1.136341
     64          6           0       15.185773    0.655303    2.419784
     65          6           0       16.529596   -0.091696    2.678661
     66          6           0       14.248666    0.680069    3.684709
     67          1           0       -3.066110    3.515416    1.462993
     68          1           0       -9.339472    3.598809   -0.437047
     69          1           0       -9.342547   -2.795104   -0.573623
     70          1           0       -1.409294   -0.975845    2.146332
     71          1           0       -1.229417    1.720752    1.623184
     72          1           0       -2.769960    1.653246    4.052459
     73          1           0       -1.096136    1.672190    3.806037
     74          1           0       -1.985034    0.133868    3.889885
     75          1           0       -0.539125    0.525327    0.074732
     76          1           0       -1.366161   -0.899372   -0.681573
     77          1           0        0.079572   -2.314612    0.903168
     78          1           0        0.950569   -0.857407    1.255612
     79          1           0       -3.574370    5.573409    1.446192
     80          1           0       -4.990116    6.615358    1.709523
     81          1           0       -4.218728    6.528245    0.111999
     82          1           0       -6.169987    7.321995   -0.708110
     83          1           0       -6.921915    7.578222    0.988023
     84          1           0       -7.761579    8.101815   -0.394496
     85          1           0      -10.506215    1.707735   -1.742346
     86          1           0      -10.942924   -0.874881   -0.220145
     87          1           0      -12.248072    1.009022    0.587409
     88          1           0      -12.129713    2.509369   -0.281268
     89          1           0      -11.164227    2.385056    1.092161
     90          1           0       -9.631917   -1.228142   -2.876030
     91          1           0      -10.874063   -0.067010   -3.061599
     92          1           0      -11.262700   -2.900080   -2.960279
     93          1           0      -12.630489   -1.769860   -2.907294
     94          1           0      -11.904475   -2.293778   -1.449850
     95          1           0       -8.415324   -4.772683   -0.673647
     96          1           0       -8.113755   -4.941727    1.146172
     97          1           0       -7.111331   -5.846891   -0.132336
     98          1           0       -2.836435   -3.365968    2.056640
     99          1           0        0.187322   -5.090458   -0.594768
    100          1           0       -0.619095   -6.358168    0.206483
    101          1           0        0.594030   -5.467565    1.168336
    102          1           0        3.302267   -0.251203   -2.638505
    103          1           0        3.252307   -1.926867   -2.493314
    104          1           0        5.312009   -0.062762   -1.711189
    105          1           0        5.596500   -3.713400    0.020994
    106          1           0        3.949760   -3.128696    0.088913
    107          1           0        5.078384   -2.729283    1.423503
    108          1           0        7.340013   -2.044396    0.473499
    109          1           0        6.807174   -0.441174    0.646239
    110          1           0        7.378012   -1.018793   -2.200680
    111          1           0        8.729655   -1.514700   -1.198754
    112          1           0        7.541173    1.153706   -0.536851
    113          1           0        8.112189    1.056810   -2.148099
    114          1           0       10.307297   -0.179654   -0.994352
    115          1           0        9.302567    1.404603    1.488624
    116          1           0       10.682305    0.337368    1.246387
    117          1           0        9.053300   -0.318041    1.337489
    118          1           0       11.233644    2.028830   -0.226551
    119          1           0        9.812937    2.763678   -1.063161
    120          1           0       10.550597    2.422704   -3.005512
    121          1           0       11.029591    0.786328   -2.777534
    122          1           0       12.435065    3.120288   -1.585750
    123          1           0       12.755329    2.852174   -3.258233
    124          1           0       13.135820    0.459076   -1.529981
    125          1           0       14.025212    1.347975   -4.136297
    126          1           0       14.498694   -0.203932   -3.274754
    127          1           0       15.534744    1.306530   -3.139241
    128          1           0       14.054473    2.409195   -0.116564
    129          1           0       15.404590    2.474163   -1.186317
    130          1           0       16.250547    0.907523    0.040387
    131          1           0       15.207088   -0.186616   -0.917975
    132          1           0       14.637691   -0.899383    1.172667
    133          1           0       13.487937    0.423874    1.111045
    134          1           0       15.489415    1.672010    2.170854
    135          1           0       16.734744   -0.350699    3.717658
    136          1           0       17.327880    0.573527    2.349822
    137          1           0       16.575747   -0.957259    2.018639
    138          1           0       14.515948    0.127650    4.585693
    139          1           0       13.272552    0.344632    3.337854
    140          1           0       14.168050    1.730071    3.969073
 ---------------------------------------------------------------------

 SCF Done:  E(RZINDO/S) =  -474.339304003     A.U. after   20 cycles

 Excitation energies and oscillator strengths:

 Excited State   1:      Singlet-A      1.2779 eV  970.25 nm  f=0.5948  <S**2>=0.000
     175 ->178         0.19585
     176 ->177         0.66111
 This state for optimization and/or second-order correction.
 Total Energy, E(CIS/TDA) =  -474.292343364
 Copying the excited state density for this state as the 1-particle RhoCI density.

 Excited State   2:      Singlet-A      1.8912 eV  655.60 nm  f=0.0530  <S**2>=0.000
     175 ->177         0.55533
     176 ->178        -0.40948

 Excited State   3:      Singlet-A      2.9339 eV  422.58 nm  f=0.0299  <S**2>=0.000
     168 ->177         0.23540
     168 ->178        -0.13288
     168 ->179        -0.38335
     168 ->180         0.20585
     168 ->184        -0.13730
     168 ->185        -0.20173
     169 ->177         0.14103
     169 ->179        -0.18949
     176 ->178         0.10316

 Excited State   4:      Singlet-A      2.9960 eV  413.83 nm  f=0.8969  <S**2>=0.000
     170 ->179         0.10425
     170 ->180         0.13613
     171 ->177         0.11245
     175 ->177         0.34432
     176 ->178         0.48307
     176 ->179        -0.15764
     176 ->180        -0.11007

 Excited State   5:      Singlet-A      3.0103 eV  411.87 nm  f=0.1957  <S**2>=0.000
     169 ->180         0.13383
     170 ->177         0.27488
     170 ->178        -0.13695
     170 ->179         0.23783
     170 ->180         0.33702
     170 ->185         0.12531
     170 ->188        -0.13511
     175 ->177        -0.15338
     176 ->178        -0.21619

 The electronic state is 1-A.
 Alpha  occ. eigenvalues --   -1.86431  -1.80829  -1.78017  -1.74454  -1.71923
 Alpha  occ. eigenvalues --   -1.70401  -1.67521  -1.62079  -1.60871  -1.57872
 Alpha  occ. eigenvalues --   -1.56012  -1.50394  -1.48080  -1.47614  -1.44823
 Alpha  occ. eigenvalues --   -1.44388  -1.42867  -1.39194  -1.38809  -1.37093
 Alpha  occ. eigenvalues --   -1.35880  -1.32864  -1.32668  -1.31022  -1.27630
 Alpha  occ. eigenvalues --   -1.25750  -1.24553  -1.24256  -1.21159  -1.19229
 Alpha  occ. eigenvalues --   -1.18625  -1.16590  -1.15497  -1.14369  -1.12148
 Alpha  occ. eigenvalues --   -1.11422  -1.10871  -1.10077  -1.04783  -1.03473
 Alpha  occ. eigenvalues --   -1.02208  -1.01676  -0.99111  -0.98015  -0.97546
 Alpha  occ. eigenvalues --   -0.96658  -0.94829  -0.93916  -0.93054  -0.92516
 Alpha  occ. eigenvalues --   -0.91110  -0.90102  -0.89089  -0.88769  -0.86274
 Alpha  occ. eigenvalues --   -0.85528  -0.84910  -0.83151  -0.81943  -0.79599
 Alpha  occ. eigenvalues --   -0.79034  -0.78916  -0.77621  -0.76776  -0.75757
 Alpha  occ. eigenvalues --   -0.75338  -0.75204  -0.74400  -0.73678  -0.72865
 Alpha  occ. eigenvalues --   -0.72736  -0.71785  -0.71098  -0.70821  -0.70318
 Alpha  occ. eigenvalues --   -0.69508  -0.69182  -0.68447  -0.68268  -0.67960
 Alpha  occ. eigenvalues --   -0.67767  -0.67445  -0.66665  -0.66191  -0.65752
 Alpha  occ. eigenvalues --   -0.64652  -0.64243  -0.64025  -0.63726  -0.62896
 Alpha  occ. eigenvalues --   -0.62628  -0.62499  -0.62381  -0.61899  -0.61461
 Alpha  occ. eigenvalues --   -0.60488  -0.60393  -0.60119  -0.59899  -0.59629
 Alpha  occ. eigenvalues --   -0.59190  -0.58818  -0.58608  -0.58285  -0.58052
 Alpha  occ. eigenvalues --   -0.57824  -0.57366  -0.57206  -0.57162  -0.56620
 Alpha  occ. eigenvalues --   -0.56225  -0.56056  -0.55529  -0.55479  -0.54731
 Alpha  occ. eigenvalues --   -0.54400  -0.54132  -0.53550  -0.53000  -0.52613
 Alpha  occ. eigenvalues --   -0.52133  -0.51879  -0.51682  -0.51464  -0.51319
 Alpha  occ. eigenvalues --   -0.51068  -0.50785  -0.50479  -0.50343  -0.50027
 Alpha  occ. eigenvalues --   -0.49951  -0.49613  -0.49350  -0.48917  -0.48547
 Alpha  occ. eigenvalues --   -0.48533  -0.48291  -0.48106  -0.47611  -0.47509
 Alpha  occ. eigenvalues --   -0.47167  -0.46624  -0.46432  -0.46366  -0.46244
 Alpha  occ. eigenvalues --   -0.45928  -0.45778  -0.45666  -0.45401  -0.45185
 Alpha  occ. eigenvalues --   -0.44782  -0.44548  -0.44497  -0.44232  -0.43837
 Alpha  occ. eigenvalues --   -0.43521  -0.42989  -0.41843  -0.41777  -0.41347
 Alpha  occ. eigenvalues --   -0.41305  -0.41148  -0.39821  -0.38653  -0.37982
 Alpha  occ. eigenvalues --   -0.37136  -0.36688  -0.35580  -0.34942  -0.34470
 Alpha  occ. eigenvalues --   -0.33550  -0.32678  -0.32419  -0.31994  -0.26443
 Alpha  occ. eigenvalues --   -0.21896
 Alpha virt. eigenvalues --   -0.08533  -0.02246  -0.00688   0.01433   0.01764
 Alpha virt. eigenvalues --    0.02311   0.03093   0.03939   0.04974   0.05083
 Alpha virt. eigenvalues --    0.06351   0.06690   0.07785   0.07999   0.08290

 Mulliken charges:
               1
     1  Mg   0.427582
     2  C   -0.038900
     3  C   -0.097400
     4  C   -0.055104
     5  C   -0.071273
     6  N   -0.275466
     7  C    0.114385
     8  C    0.005075
     9  C    0.015096
    10  C    0.147215
    11  C   -0.056538
    12  C   -0.013183
    13  C    0.005403
    14  C    0.468556
    15  O   -0.508162
    16  O   -0.256771
    17  N   -0.313254
    18  C    0.142132
    19  C    0.005693
    20  C   -0.031944
    21  C    0.127545
    22  C   -0.045243
    23  C    0.336411
    24  O   -0.519427
    25  C   -0.033065
    26  N   -0.280460
    27  C    0.137848
    28  C    0.007160
    29  C   -0.018744
    30  C    0.112674
    31  C   -0.051667
    32  C   -0.022795
    33  C   -0.059574
    34  N   -0.346484
    35  C    0.076863
    36  C    0.013686
    37  C   -0.044156
    38  C    0.127583
    39  C   -0.051665
    40  C    0.336309
    41  O   -0.526039
    42  C    0.049555
    43  C    0.505999
    44  O   -0.539451
    45  O   -0.269787
    46  C    0.074554
    47  C    0.114795
    48  C   -0.075468
    49  C   -0.009141
    50  C   -0.049390
    51  C   -0.021947
    52  C   -0.029248
    53  C   -0.040466
    54  C   -0.008324
    55  C   -0.062354
    56  C   -0.031087
    57  C   -0.040850
    58  C   -0.025727
    59  C   -0.016533
    60  C   -0.062018
    61  C   -0.046418
    62  C   -0.041477
    63  C   -0.026079
    64  C   -0.008325
    65  C   -0.060763
    66  C   -0.060550
    67  H    0.018944
    68  H    0.038521
    69  H    0.039668
    70  H    0.018063
    71  H    0.022503
    72  H    0.028070
    73  H    0.016361
    74  H    0.018083
    75  H    0.021087
    76  H    0.046593
    77  H    0.037933
    78  H    0.019753
    79  H    0.026678
    80  H    0.033676
    81  H    0.031196
    82  H    0.040611
    83  H    0.041943
    84  H    0.031442
    85  H    0.041891
    86  H    0.032926
    87  H    0.027687
    88  H    0.013394
    89  H    0.033023
    90  H    0.031883
    91  H    0.015715
    92  H    0.019598
    93  H    0.025175
    94  H    0.014065
    95  H    0.028914
    96  H    0.042238
    97  H    0.039223
    98  H    0.051865
    99  H    0.062144
   100  H    0.038675
   101  H    0.034130
   102  H    0.035460
   103  H    0.061748
   104  H    0.017977
   105  H    0.027132
   106  H    0.023267
   107  H    0.030023
   108  H    0.011320
   109  H    0.027254
   110  H    0.016192
   111  H    0.021776
   112  H    0.021506
   113  H    0.012642
   114  H    0.025748
   115  H    0.021181
   116  H    0.008403
   117  H    0.020078
   118  H    0.014948
   119  H    0.021535
   120  H    0.004555
   121  H    0.020111
   122  H    0.019086
   123  H    0.009985
   124  H    0.027297
   125  H    0.027415
   126  H    0.028713
   127  H    0.032560
   128  H    0.013804
   129  H    0.017214
   130  H    0.013903
   131  H    0.019636
   132  H    0.007874
   133  H    0.015951
   134  H    0.014555
   135  H    0.022987
   136  H    0.012248
   137  H    0.020646
   138  H    0.028455
   139  H    0.016951
   140  H    0.014794
 Sum of Mulliken charges =  -0.00000

 Dipole moment (field-independent basis, Debye):
    X=              3.6106    Y=              7.5134    Z=              5.3860  Tot=              9.9245
 N-N= 4.231665694897D+03 E-N= 0.000000000000D+00  KE=-9.138403235279D+03
 Leave Link  601 at Thu May  5 04:30:40 2022, MaxMem=  6710886400 cpu:               1.0 elap:               0.1
 (Enter /sw/apps/gaussian-16.0/g16/l9999.exe)
 1\1\GINC-BP1-COMPUTE212\SP\RZINDO CIS\STO-3G\C55H74Mg1N4O6\OF15641\05-
 May-2022\0\\#p ZINDO=(nstates=5)\\step_551_chromophore_22 ZINDO\\0,1\M
 g,0,9.232,47.693,25.226\C,0,7.135,47.741,27.936\C,0,11.773,48.874,27.2
 45\C,0,11.211,48.056,22.431\C,0,6.442,47.155,23.129\N,0,9.383,48.305,2
 7.395\C,0,8.422,48.123,28.292\C,0,9.024,48.304,29.719\C,0,10.287,49.08
 8,29.392\C,0,10.546,48.717,27.952\C,0,10.193,50.66,29.635\C,0,9.226,47
 .027,30.565\C,0,8.581,47.013,31.952\C,0,8.521,45.717,32.828\O,0,7.719,

 Normal termination of Gaussian 16 at Thu May  5 04:30:40 2022.
