 Gaussian 16, Revision A.03,
 Gaussian 16:  ES64L-G16RevA.03 25-Dec-2016

 ------------------------------
 #p blyp/Def2SVP td=(nstates=5)
 ------------------------------

 ------------------------------------------------
 step_1_chromophore_27 TDDFT with blyp functional
 ------------------------------------------------
 Symbolic Z-matrix:
 Charge =  0 Multiplicity = 1

                         Standard orientation:
 ---------------------------------------------------------------------
 Center     Atomic      Atomic             Coordinates (Angstroms)
 Number     Number       Type             X           Y           Z
 ---------------------------------------------------------------------
      1         12           0       -4.654777    0.727767    0.049494
      2          6           0       -3.869764   -2.706290    0.164469
      3          6           0       -1.257500    1.334122    0.237826
      4          6           0       -5.269018    4.085886    0.067847
      5          6           0       -7.928310    0.002516    0.214608
      6          7           0       -2.753685   -0.562280    0.151879
      7          6           0       -2.652133   -1.944421    0.049042
      8          6           0       -1.209800   -2.354074   -0.171475
      9          6           0       -0.396820   -1.067889    0.223417
     10          6           0       -1.521304   -0.057570    0.184320
     11          6           0        0.402217   -1.152398    1.582701
     12          6           0       -0.904614   -2.735768   -1.627610
     13          6           0        0.088510   -3.888310   -1.811240
     14          6           0        1.578299   -3.649339   -1.439095
     15          8           0        2.149833   -3.874862   -0.436333
     16          8           0        2.228293   -3.244821   -2.585915
     17          7           0       -3.448608    2.464084    0.049225
     18          6           0       -2.101472    2.437036    0.171647
     19          6           0       -1.628257    3.778504    0.283143
     20          6           0       -2.736087    4.675664    0.096453
     21          6           0       -3.864288    3.761487    0.119243
     22          6           0       -0.175191    4.099015    0.498684
     23          6           0       -2.817479    6.201722    0.054738
     24          8           0       -3.863982    6.795440   -0.287138
     25          6           0       -1.666626    7.097631    0.498531
     26          7           0       -6.337218    1.860141    0.037871
     27          6           0       -6.384869    3.248610    0.118401
     28          6           0       -7.811490    3.681180    0.220656
     29          6           0       -8.742692    2.415941    0.203498
     30          6           0       -7.648973    1.340376    0.102857
     31          6           0       -8.100864    4.708222    1.356419
     32          6           0       -9.743953    2.341111   -0.969545
     33          6           0      -11.151026    2.856771   -0.610807
     34          7           0       -5.718561   -0.931655    0.209589
     35          6           0       -7.096772   -1.141990    0.206085
     36          6           0       -7.461485   -2.607175    0.207215
     37          6           0       -6.187904   -3.198603    0.225666
     38          6           0       -5.184723   -2.178236    0.171644
     39          6           0       -8.859359   -3.198453    0.195660
     40          6           0       -5.546341   -4.504453    0.248571
     41          8           0       -6.023724   -5.638385    0.306467
     42          6           0       -3.996947   -4.199959    0.084052
     43          6           0       -3.309784   -4.969369    1.229304
     44          8           0       -3.711608   -5.076380    2.369596
     45          8           0       -2.226663   -5.671586    0.704164
     46          6           0       -1.504338   -6.445796    1.713763
     47          6           0        3.711330   -3.292882   -2.467293
     48          6           0        4.291335   -1.929363   -2.843543
     49          6           0        5.616798   -1.525684   -2.655329
     50          6           0        6.763463   -2.315187   -2.045838
     51          6           0        6.032010   -0.133778   -3.128892
     52          6           0        6.997134   -0.228070   -4.296864
     53          6           0        8.364925    0.381987   -4.060793
     54          6           0        8.353876    1.915028   -3.925180
     55          6           0        8.592408    2.571820   -5.333291
     56          6           0        9.341225    2.369387   -2.803825
     57          6           0        8.840855    2.180297   -1.360369
     58          6           0        9.818411    1.268954   -0.569021
     59          6           0        9.292030    0.926360    0.836175
     60          6           0        9.086102   -0.680257    1.064659
     61          6           0       10.061535    1.644361    1.980949
     62          6           0        9.294544    1.753085    3.367093
     63          6           0       10.186456    1.139461    4.467656
     64          6           0        9.286855    0.433966    5.589335
     65          6           0        9.989018    0.517894    6.972660
     66          6           0        8.916268   -0.968169    5.127051
     67          1           0       -0.176875    1.488748    0.217492
     68          1           0       -5.579882    5.132474    0.063604
     69          1           0       -8.995961   -0.142213    0.390492
     70          1           0       -0.866785   -3.169115    0.465350
     71          1           0        0.380520   -0.785106   -0.486476
     72          1           0        0.404440   -2.129349    2.066943
     73          1           0        0.065863   -0.499343    2.387632
     74          1           0        1.460895   -0.950100    1.420206
     75          1           0       -0.520626   -1.884031   -2.188562
     76          1           0       -1.805692   -3.086818   -2.130923
     77          1           0        0.049589   -4.302135   -2.818783
     78          1           0       -0.208758   -4.761860   -1.231401
     79          1           0        0.075529    3.438680    1.328998
     80          1           0        0.079256    5.107385    0.824780
     81          1           0        0.476801    3.853536   -0.339305
     82          1           0       -1.293786    6.794738    1.477112
     83          1           0       -2.138576    8.079997    0.508988
     84          1           0       -0.828310    7.032945   -0.195103
     85          1           0       -7.993677    4.347747   -0.622862
     86          1           0       -9.282278    2.224784    1.131974
     87          1           0       -7.173574    4.859659    1.909387
     88          1           0       -8.841152    4.282997    2.033578
     89          1           0       -8.409539    5.608173    0.823477
     90          1           0       -9.703619    1.326102   -1.364184
     91          1           0       -9.460924    3.030384   -1.765395
     92          1           0      -11.086975    3.549157    0.228828
     93          1           0      -11.865925    2.116248   -0.251653
     94          1           0      -11.529088    3.419473   -1.464866
     95          1           0       -9.267249   -3.038643   -0.802587
     96          1           0       -9.567462   -2.748220    0.891066
     97          1           0       -8.729458   -4.261737    0.396663
     98          1           0       -3.553351   -4.507079   -0.862862
     99          1           0       -0.693621   -5.909707    2.208088
    100          1           0       -1.140263   -7.312264    1.161868
    101          1           0       -2.046413   -6.829738    2.577948
    102          1           0        4.051217   -3.928229   -3.284305
    103          1           0        4.213605   -3.663333   -1.574554
    104          1           0        3.622175   -1.197908   -3.296147
    105          1           0        6.965758   -1.732765   -1.147497
    106          1           0        7.604251   -2.201329   -2.730995
    107          1           0        6.542871   -3.314731   -1.672632
    108          1           0        6.367899    0.439400   -2.263798
    109          1           0        5.173572    0.415843   -3.513182
    110          1           0        6.531857    0.342756   -5.101280
    111          1           0        6.905802   -1.225326   -4.727166
    112          1           0        8.958379    0.097298   -4.930003
    113          1           0        8.877955   -0.068866   -3.210912
    114          1           0        7.428005    2.375185   -3.579572
    115          1           0        8.118978    2.085376   -6.185644
    116          1           0        9.667620    2.666851   -5.485280
    117          1           0        8.125504    3.554344   -5.271957
    118          1           0        9.616543    3.413433   -2.959374
    119          1           0       10.192248    1.701957   -2.937760
    120          1           0        7.855092    1.722378   -1.279571
    121          1           0        8.902208    3.164969   -0.895528
    122          1           0       10.776018    1.740830   -0.350024
    123          1           0       10.102672    0.363360   -1.104762
    124          1           0        8.323704    1.380836    1.046971
    125          1           0        9.663532   -1.075311    1.899941
    126          1           0        9.459344   -1.106710    0.133328
    127          1           0        8.042643   -0.975717    1.175008
    128          1           0       10.361115    2.643925    1.668289
    129          1           0       10.927444    1.011271    2.178682
    130          1           0        8.352121    1.204558    3.380232
    131          1           0        9.045072    2.756730    3.709566
    132          1           0       10.817619    1.880329    4.958160
    133          1           0       10.822739    0.310615    4.157807
    134          1           0        8.366439    0.988193    5.774609
    135          1           0       10.780639    1.265535    6.938754
    136          1           0       10.498190   -0.438366    7.088508
    137          1           0        9.343052    0.592769    7.846922
    138          1           0        9.201666   -1.729822    5.853096
    139          1           0        9.524803   -1.252296    4.267548
    140          1           0        7.830673   -1.013749    5.038238
 ---------------------------------------------------------------------

 SCF Done:  E(RB-LYP) =  -3007.41460423     A.U. after   22 cycles

 Excitation energies and oscillator strengths:

 Excited State   1:      Singlet-A      1.7952 eV  690.65 nm  f=0.2950  <S**2>=0.000
     245 -> 248        0.19801
     246 -> 247        0.68814
     246 <- 247       -0.14692
 This state for optimization and/or second-order correction.
 Total Energy, E(TD-HF/TD-DFT) =  -3007.34863246
 Copying the excited state density for this state as the 1-particle RhoCI density.

 Excited State   2:      Singlet-A      1.9828 eV  625.29 nm  f=0.0656  <S**2>=0.000
     243 -> 247       -0.20034
     244 -> 247       -0.16024
     245 -> 247        0.60976
     246 -> 248       -0.22755

 Excited State   3:      Singlet-A      2.0373 eV  608.56 nm  f=0.0015  <S**2>=0.000
     243 -> 247       -0.24587
     244 -> 247        0.65680

 Excited State   4:      Singlet-A      2.0564 eV  602.91 nm  f=0.0122  <S**2>=0.000
     243 -> 247        0.63015
     244 -> 247        0.20349
     245 -> 247        0.21613

 Excited State   5:      Singlet-A      2.1447 eV  578.11 nm  f=0.0000  <S**2>=0.000
     242 -> 247        0.70710

 The electronic state is 1-A.
 Alpha  occ. eigenvalues --  -46.26158 -18.82625 -18.82019 -18.77608 -18.77124
 Alpha  occ. eigenvalues --  -18.75853 -18.75783 -14.03506 -14.02573 -14.01412
 Alpha  occ. eigenvalues --  -14.00934 -10.04115 -10.04038 -10.00389  -9.99669
 Alpha  occ. eigenvalues --   -9.97904  -9.97186  -9.96981  -9.96243  -9.96152
 Alpha  occ. eigenvalues --   -9.96055  -9.96026  -9.95999  -9.95068  -9.95023
 Alpha  occ. eigenvalues --   -9.94440  -9.94389  -9.94382  -9.94219  -9.94012
 Alpha  occ. eigenvalues --   -9.94003  -9.93874  -9.93726  -9.93609  -9.93360
 Alpha  occ. eigenvalues --   -9.93219  -9.92923  -9.92870  -9.92772  -9.92700
 Alpha  occ. eigenvalues --   -9.92667  -9.92583  -9.92376  -9.92323  -9.92181
 Alpha  occ. eigenvalues --   -9.92177  -9.92095  -9.92045  -9.92038  -9.91996
 Alpha  occ. eigenvalues --   -9.91986  -9.91984  -9.91745  -9.91674  -9.91659
 Alpha  occ. eigenvalues --   -9.91603  -9.91595  -9.91575  -9.91520  -9.91422
 Alpha  occ. eigenvalues --   -9.91398  -9.91395  -9.91355  -9.91161  -9.90777
 Alpha  occ. eigenvalues --   -9.90475  -2.91023  -1.71449  -1.70877  -1.70764
 Alpha  occ. eigenvalues --   -0.99063  -0.97570  -0.91079  -0.90831  -0.90386
 Alpha  occ. eigenvalues --   -0.90030  -0.86817  -0.85874  -0.85536  -0.83979
 Alpha  occ. eigenvalues --   -0.75365  -0.74044  -0.73344  -0.72693  -0.72323
 Alpha  occ. eigenvalues --   -0.71858  -0.71587  -0.70874  -0.70691  -0.70220
 Alpha  occ. eigenvalues --   -0.69592  -0.69122  -0.68069  -0.67450  -0.67010
 Alpha  occ. eigenvalues --   -0.66340  -0.65677  -0.65064  -0.64890  -0.64209
 Alpha  occ. eigenvalues --   -0.64030  -0.62676  -0.62395  -0.61897  -0.60897
 Alpha  occ. eigenvalues --   -0.60659  -0.60218  -0.59717  -0.59692  -0.58808
 Alpha  occ. eigenvalues --   -0.58133  -0.57526  -0.56660  -0.55848  -0.54389
 Alpha  occ. eigenvalues --   -0.54132  -0.53978  -0.52926  -0.52565  -0.51706
 Alpha  occ. eigenvalues --   -0.51545  -0.51340  -0.50444  -0.50253  -0.50034
 Alpha  occ. eigenvalues --   -0.49656  -0.49102  -0.48702  -0.48124  -0.46879
 Alpha  occ. eigenvalues --   -0.46402  -0.45996  -0.45396  -0.45228  -0.44244
 Alpha  occ. eigenvalues --   -0.44054  -0.43766  -0.42860  -0.42275  -0.42069
 Alpha  occ. eigenvalues --   -0.41949  -0.41831  -0.41376  -0.41282  -0.41269
 Alpha  occ. eigenvalues --   -0.41158  -0.40680  -0.40490  -0.40333  -0.40160
 Alpha  occ. eigenvalues --   -0.39865  -0.39694  -0.39622  -0.39210  -0.39081
 Alpha  occ. eigenvalues --   -0.39011  -0.38641  -0.38515  -0.38439  -0.37944
 Alpha  occ. eigenvalues --   -0.37878  -0.37726  -0.37655  -0.37520  -0.37429
 Alpha  occ. eigenvalues --   -0.37390  -0.37054  -0.36718  -0.36614  -0.36415
 Alpha  occ. eigenvalues --   -0.36173  -0.36075  -0.35755  -0.35713  -0.35419
 Alpha  occ. eigenvalues --   -0.35328  -0.35263  -0.34921  -0.34682  -0.34631
 Alpha  occ. eigenvalues --   -0.34587  -0.34550  -0.34310  -0.34247  -0.34159
 Alpha  occ. eigenvalues --   -0.33985  -0.33818  -0.33810  -0.33382  -0.33078
 Alpha  occ. eigenvalues --   -0.32969  -0.32840  -0.32779  -0.32647  -0.32518
 Alpha  occ. eigenvalues --   -0.32378  -0.32081  -0.31998  -0.31879  -0.31706
 Alpha  occ. eigenvalues --   -0.31321  -0.31110  -0.31060  -0.30891  -0.30680
 Alpha  occ. eigenvalues --   -0.30533  -0.30465  -0.30445  -0.30271  -0.30059
 Alpha  occ. eigenvalues --   -0.29951  -0.29844  -0.29763  -0.29394  -0.29333
 Alpha  occ. eigenvalues --   -0.28935  -0.28721  -0.28642  -0.28260  -0.27906
 Alpha  occ. eigenvalues --   -0.27722  -0.27359  -0.26950  -0.26909  -0.26596
 Alpha  occ. eigenvalues --   -0.26534  -0.26363  -0.26272  -0.26039  -0.25849
 Alpha  occ. eigenvalues --   -0.25333  -0.25268  -0.24954  -0.24122  -0.23706
 Alpha  occ. eigenvalues --   -0.23694  -0.22713  -0.22667  -0.21585  -0.21236
 Alpha  occ. eigenvalues --   -0.20495  -0.19342  -0.18899  -0.18840  -0.17131
 Alpha  occ. eigenvalues --   -0.15737
 Alpha virt. eigenvalues --   -0.11461  -0.06852  -0.06493  -0.05117  -0.02759
 Alpha virt. eigenvalues --   -0.02548  -0.02118  -0.01798  -0.00841  -0.00084
 Alpha virt. eigenvalues --    0.00806   0.00875   0.01914   0.02870   0.03110

 Mulliken charges:
               1
     1  Mg   0.721082
     2  C   -0.043311
     3  C   -0.101720
     4  C   -0.049809
     5  C   -0.075280
     6  N   -0.178742
     7  C   -0.037168
     8  C    0.058563
     9  C   -0.012942
    10  C   -0.022380
    11  C    0.112874
    12  C    0.133833
    13  C    0.110480
    14  C    0.051284
    15  O   -0.139641
    16  O   -0.287638
    17  N   -0.253658
    18  C    0.206075
    19  C   -0.154319
    20  C    0.058625
    21  C    0.076373
    22  C    0.168958
    23  C   -0.070469
    24  O   -0.189153
    25  C    0.115754
    26  N   -0.299166
    27  C    0.059566
    28  C    0.006387
    29  C    0.055958
    30  C    0.007566
    31  C    0.122145
    32  C    0.100656
    33  C    0.058225
    34  N   -0.304613
    35  C    0.133279
    36  C   -0.167737
    37  C    0.060181
    38  C    0.127622
    39  C    0.174496
    40  C   -0.016297
    41  O   -0.134392
    42  C    0.042786
    43  C    0.107475
    44  O   -0.154693
    45  O   -0.276391
    46  C    0.206418
    47  C    0.313649
    48  C   -0.114696
    49  C   -0.184989
    50  C    0.167078
    51  C    0.131014
    52  C    0.071420
    53  C    0.152737
    54  C   -0.102707
    55  C    0.101686
    56  C    0.106729
    57  C    0.088073
    58  C    0.094686
    59  C   -0.103701
    60  C    0.084180
    61  C    0.095033
    62  C    0.092394
    63  C    0.057447
    64  C   -0.141382
    65  C    0.109523
    66  C    0.136023
    67  H   -0.070476
    68  H   -0.050479
    69  H   -0.071077
    70  H   -0.018245
    71  H   -0.016523
    72  H   -0.005805
    73  H   -0.009399
    74  H   -0.006948
    75  H   -0.012297
    76  H   -0.018379
    77  H   -0.011129
    78  H   -0.007702
    79  H   -0.001413
    80  H   -0.025778
    81  H    0.006338
    82  H    0.014471
    83  H    0.002378
    84  H    0.015057
    85  H   -0.018793
    86  H   -0.016685
    87  H   -0.004053
    88  H   -0.011374
    89  H   -0.001959
    90  H   -0.017442
    91  H   -0.025667
    92  H   -0.016933
    93  H   -0.003684
    94  H   -0.005303
    95  H    0.002268
    96  H    0.001940
    97  H    0.016261
    98  H   -0.000732
    99  H    0.011788
   100  H    0.013446
   101  H    0.020171
   102  H   -0.004386
   103  H    0.018652
   104  H   -0.038623
   105  H   -0.010693
   106  H    0.010080
   107  H   -0.012603
   108  H   -0.024758
   109  H   -0.047005
   110  H   -0.048545
   111  H   -0.029258
   112  H   -0.039582
   113  H   -0.041190
   114  H   -0.033454
   115  H   -0.010292
   116  H   -0.011231
   117  H   -0.023016
   118  H   -0.038199
   119  H   -0.031526
   120  H   -0.012663
   121  H   -0.027072
   122  H   -0.041825
   123  H   -0.031333
   124  H   -0.038037
   125  H   -0.010911
   126  H   -0.021378
   127  H    0.005573
   128  H   -0.028951
   129  H   -0.028799
   130  H   -0.025012
   131  H   -0.026481
   132  H   -0.030565
   133  H   -0.027154
   134  H   -0.035375
   135  H   -0.021729
   136  H   -0.036306
   137  H   -0.009895
   138  H   -0.032902
   139  H   -0.016072
   140  H   -0.004667
 Sum of Mulliken charges =  -0.00000

 Dipole moment (field-independent basis, Debye):
    X=              3.6868    Y=              2.4132    Z=             -1.6636  Tot=              4.7100
 Quadrupole moment (field-independent basis, Debye-Ang):
   XX=           -380.0394   YY=           -438.8538   ZZ=           -406.9723
   XY=            -20.4690   XZ=              0.9286   YZ=             13.5138

 Normal termination of Gaussian 16 at Wed May  4 16:48:12 2022.
