 Gaussian 16, Revision A.03,
 Gaussian 16:  ES64L-G16RevA.03 25-Dec-2016

 -----------------------------------
 #p cam-b3lyp/Def2SVP td=(nstates=5)
 -----------------------------------

 -----------------------------------------------------
 step_1_chromophore_27 TDDFT with cam-b3lyp functional
 -----------------------------------------------------
 Symbolic Z-matrix:
 Charge =  0 Multiplicity = 1

                         Standard orientation:
 ---------------------------------------------------------------------
 Center     Atomic      Atomic             Coordinates (Angstroms)
 Number     Number       Type             X           Y           Z
 ---------------------------------------------------------------------
      1         12           0       -4.654777    0.727767    0.049494
      2          6           0       -3.869764   -2.706290    0.164469
      3          6           0       -1.257500    1.334122    0.237826
      4          6           0       -5.269018    4.085886    0.067847
      5          6           0       -7.928310    0.002516    0.214608
      6          7           0       -2.753685   -0.562280    0.151879
      7          6           0       -2.652133   -1.944421    0.049042
      8          6           0       -1.209800   -2.354074   -0.171475
      9          6           0       -0.396820   -1.067889    0.223417
     10          6           0       -1.521304   -0.057570    0.184320
     11          6           0        0.402217   -1.152398    1.582701
     12          6           0       -0.904614   -2.735768   -1.627610
     13          6           0        0.088510   -3.888310   -1.811240
     14          6           0        1.578299   -3.649339   -1.439095
     15          8           0        2.149833   -3.874862   -0.436333
     16          8           0        2.228293   -3.244821   -2.585915
     17          7           0       -3.448608    2.464084    0.049225
     18          6           0       -2.101472    2.437036    0.171647
     19          6           0       -1.628257    3.778504    0.283143
     20          6           0       -2.736087    4.675664    0.096453
     21          6           0       -3.864288    3.761487    0.119243
     22          6           0       -0.175191    4.099015    0.498684
     23          6           0       -2.817479    6.201722    0.054738
     24          8           0       -3.863982    6.795440   -0.287138
     25          6           0       -1.666626    7.097631    0.498531
     26          7           0       -6.337218    1.860141    0.037871
     27          6           0       -6.384869    3.248610    0.118401
     28          6           0       -7.811490    3.681180    0.220656
     29          6           0       -8.742692    2.415941    0.203498
     30          6           0       -7.648973    1.340376    0.102857
     31          6           0       -8.100864    4.708222    1.356419
     32          6           0       -9.743953    2.341111   -0.969545
     33          6           0      -11.151026    2.856771   -0.610807
     34          7           0       -5.718561   -0.931655    0.209589
     35          6           0       -7.096772   -1.141990    0.206085
     36          6           0       -7.461485   -2.607175    0.207215
     37          6           0       -6.187904   -3.198603    0.225666
     38          6           0       -5.184723   -2.178236    0.171644
     39          6           0       -8.859359   -3.198453    0.195660
     40          6           0       -5.546341   -4.504453    0.248571
     41          8           0       -6.023724   -5.638385    0.306467
     42          6           0       -3.996947   -4.199959    0.084052
     43          6           0       -3.309784   -4.969369    1.229304
     44          8           0       -3.711608   -5.076380    2.369596
     45          8           0       -2.226663   -5.671586    0.704164
     46          6           0       -1.504338   -6.445796    1.713763
     47          6           0        3.711330   -3.292882   -2.467293
     48          6           0        4.291335   -1.929363   -2.843543
     49          6           0        5.616798   -1.525684   -2.655329
     50          6           0        6.763463   -2.315187   -2.045838
     51          6           0        6.032010   -0.133778   -3.128892
     52          6           0        6.997134   -0.228070   -4.296864
     53          6           0        8.364925    0.381987   -4.060793
     54          6           0        8.353876    1.915028   -3.925180
     55          6           0        8.592408    2.571820   -5.333291
     56          6           0        9.341225    2.369387   -2.803825
     57          6           0        8.840855    2.180297   -1.360369
     58          6           0        9.818411    1.268954   -0.569021
     59          6           0        9.292030    0.926360    0.836175
     60          6           0        9.086102   -0.680257    1.064659
     61          6           0       10.061535    1.644361    1.980949
     62          6           0        9.294544    1.753085    3.367093
     63          6           0       10.186456    1.139461    4.467656
     64          6           0        9.286855    0.433966    5.589335
     65          6           0        9.989018    0.517894    6.972660
     66          6           0        8.916268   -0.968169    5.127051
     67          1           0       -0.176875    1.488748    0.217492
     68          1           0       -5.579882    5.132474    0.063604
     69          1           0       -8.995961   -0.142213    0.390492
     70          1           0       -0.866785   -3.169115    0.465350
     71          1           0        0.380520   -0.785106   -0.486476
     72          1           0        0.404440   -2.129349    2.066943
     73          1           0        0.065863   -0.499343    2.387632
     74          1           0        1.460895   -0.950100    1.420206
     75          1           0       -0.520626   -1.884031   -2.188562
     76          1           0       -1.805692   -3.086818   -2.130923
     77          1           0        0.049589   -4.302135   -2.818783
     78          1           0       -0.208758   -4.761860   -1.231401
     79          1           0        0.075529    3.438680    1.328998
     80          1           0        0.079256    5.107385    0.824780
     81          1           0        0.476801    3.853536   -0.339305
     82          1           0       -1.293786    6.794738    1.477112
     83          1           0       -2.138576    8.079997    0.508988
     84          1           0       -0.828310    7.032945   -0.195103
     85          1           0       -7.993677    4.347747   -0.622862
     86          1           0       -9.282278    2.224784    1.131974
     87          1           0       -7.173574    4.859659    1.909387
     88          1           0       -8.841152    4.282997    2.033578
     89          1           0       -8.409539    5.608173    0.823477
     90          1           0       -9.703619    1.326102   -1.364184
     91          1           0       -9.460924    3.030384   -1.765395
     92          1           0      -11.086975    3.549157    0.228828
     93          1           0      -11.865925    2.116248   -0.251653
     94          1           0      -11.529088    3.419473   -1.464866
     95          1           0       -9.267249   -3.038643   -0.802587
     96          1           0       -9.567462   -2.748220    0.891066
     97          1           0       -8.729458   -4.261737    0.396663
     98          1           0       -3.553351   -4.507079   -0.862862
     99          1           0       -0.693621   -5.909707    2.208088
    100          1           0       -1.140263   -7.312264    1.161868
    101          1           0       -2.046413   -6.829738    2.577948
    102          1           0        4.051217   -3.928229   -3.284305
    103          1           0        4.213605   -3.663333   -1.574554
    104          1           0        3.622175   -1.197908   -3.296147
    105          1           0        6.965758   -1.732765   -1.147497
    106          1           0        7.604251   -2.201329   -2.730995
    107          1           0        6.542871   -3.314731   -1.672632
    108          1           0        6.367899    0.439400   -2.263798
    109          1           0        5.173572    0.415843   -3.513182
    110          1           0        6.531857    0.342756   -5.101280
    111          1           0        6.905802   -1.225326   -4.727166
    112          1           0        8.958379    0.097298   -4.930003
    113          1           0        8.877955   -0.068866   -3.210912
    114          1           0        7.428005    2.375185   -3.579572
    115          1           0        8.118978    2.085376   -6.185644
    116          1           0        9.667620    2.666851   -5.485280
    117          1           0        8.125504    3.554344   -5.271957
    118          1           0        9.616543    3.413433   -2.959374
    119          1           0       10.192248    1.701957   -2.937760
    120          1           0        7.855092    1.722378   -1.279571
    121          1           0        8.902208    3.164969   -0.895528
    122          1           0       10.776018    1.740830   -0.350024
    123          1           0       10.102672    0.363360   -1.104762
    124          1           0        8.323704    1.380836    1.046971
    125          1           0        9.663532   -1.075311    1.899941
    126          1           0        9.459344   -1.106710    0.133328
    127          1           0        8.042643   -0.975717    1.175008
    128          1           0       10.361115    2.643925    1.668289
    129          1           0       10.927444    1.011271    2.178682
    130          1           0        8.352121    1.204558    3.380232
    131          1           0        9.045072    2.756730    3.709566
    132          1           0       10.817619    1.880329    4.958160
    133          1           0       10.822739    0.310615    4.157807
    134          1           0        8.366439    0.988193    5.774609
    135          1           0       10.780639    1.265535    6.938754
    136          1           0       10.498190   -0.438366    7.088508
    137          1           0        9.343052    0.592769    7.846922
    138          1           0        9.201666   -1.729822    5.853096
    139          1           0        9.524803   -1.252296    4.267548
    140          1           0        7.830673   -1.013749    5.038238
 ---------------------------------------------------------------------

 SCF Done:  E(RCAM-B3LYP) =  -3007.20414691     A.U. after   17 cycles

 Excitation energies and oscillator strengths:

 Excited State   1:      Singlet-A      1.7023 eV  728.32 nm  f=0.3682  <S**2>=0.000
     245 -> 248       -0.18648
     246 -> 247        0.68379
     245 <- 248       -0.10933
 This state for optimization and/or second-order correction.
 Total Energy, E(TD-HF/TD-DFT) =  -3007.14158774
 Copying the excited state density for this state as the 1-particle RhoCI density.

 Excited State   2:      Singlet-A      2.2321 eV  555.46 nm  f=0.1031  <S**2>=0.000
     245 -> 247        0.63578
     246 -> 248        0.29914

 Excited State   3:      Singlet-A      3.4231 eV  362.20 nm  f=0.1163  <S**2>=0.000
     242 -> 247        0.14497
     243 -> 247        0.58043
     245 -> 247        0.11355
     246 -> 248       -0.33704

 Excited State   4:      Singlet-A      3.5491 eV  349.34 nm  f=0.4798  <S**2>=0.000
     241 -> 247        0.19656
     241 -> 249        0.13186
     241 -> 250        0.10176
     242 -> 247       -0.15435
     243 -> 247        0.33353
     245 -> 247       -0.23277
     246 -> 248        0.45656

 Excited State   5:      Singlet-A      3.5871 eV  345.64 nm  f=0.1954  <S**2>=0.000
     240 -> 247       -0.12979
     240 -> 249       -0.10888
     241 -> 247        0.42767
     241 -> 249        0.25259
     241 -> 250        0.21142
     242 -> 247       -0.17436
     243 -> 247       -0.13520
     245 -> 247        0.14187
     246 -> 248       -0.26224

 The electronic state is 1-A.
 Alpha  occ. eigenvalues --  -46.87588 -19.25590 -19.24867 -19.20684 -19.20258
 Alpha  occ. eigenvalues --  -19.19167 -19.19021 -14.42623 -14.41213 -14.39832
 Alpha  occ. eigenvalues --  -14.39422 -10.39541 -10.39372 -10.35807 -10.35003
 Alpha  occ. eigenvalues --  -10.31959 -10.31391 -10.31170 -10.30807 -10.30692
 Alpha  occ. eigenvalues --  -10.30677 -10.30264 -10.30210 -10.29526 -10.29150
 Alpha  occ. eigenvalues --  -10.28689 -10.28668 -10.28666 -10.28513 -10.28476
 Alpha  occ. eigenvalues --  -10.28405 -10.27804 -10.27737 -10.27594 -10.27496
 Alpha  occ. eigenvalues --  -10.27455 -10.27154 -10.26996 -10.26985 -10.26394
 Alpha  occ. eigenvalues --  -10.26371 -10.26343 -10.26291 -10.26162 -10.26097
 Alpha  occ. eigenvalues --  -10.26094 -10.25945 -10.25933 -10.25929 -10.25697
 Alpha  occ. eigenvalues --  -10.25625 -10.25617 -10.25522 -10.25493 -10.25441
 Alpha  occ. eigenvalues --  -10.25348 -10.25339 -10.25262 -10.25246 -10.25152
 Alpha  occ. eigenvalues --  -10.25136 -10.25123 -10.25002 -10.24920 -10.24394
 Alpha  occ. eigenvalues --  -10.24122  -3.16371  -1.91269  -1.90802  -1.90715
 Alpha  occ. eigenvalues --   -1.17659  -1.16130  -1.09145  -1.08956  -1.08890
 Alpha  occ. eigenvalues --   -1.08017  -1.04661  -1.03612  -1.03010  -1.01398
 Alpha  occ. eigenvalues --   -0.92505  -0.90968  -0.90151  -0.89512  -0.88966
 Alpha  occ. eigenvalues --   -0.88597  -0.88240  -0.87423  -0.87296  -0.86961
 Alpha  occ. eigenvalues --   -0.86082  -0.85509  -0.84357  -0.83502  -0.83167
 Alpha  occ. eigenvalues --   -0.82418  -0.81799  -0.81150  -0.80703  -0.80053
 Alpha  occ. eigenvalues --   -0.79830  -0.78410  -0.78105  -0.77357  -0.76322
 Alpha  occ. eigenvalues --   -0.76083  -0.75637  -0.75019  -0.74980  -0.74065
 Alpha  occ. eigenvalues --   -0.73177  -0.72513  -0.71568  -0.70677  -0.68939
 Alpha  occ. eigenvalues --   -0.68715  -0.68585  -0.67482  -0.66983  -0.65958
 Alpha  occ. eigenvalues --   -0.65809  -0.65448  -0.64474  -0.64120  -0.64066
 Alpha  occ. eigenvalues --   -0.63510  -0.63031  -0.62444  -0.61993  -0.60587
 Alpha  occ. eigenvalues --   -0.60117  -0.59487  -0.58884  -0.58515  -0.57680
 Alpha  occ. eigenvalues --   -0.57573  -0.57148  -0.55977  -0.55558  -0.55265
 Alpha  occ. eigenvalues --   -0.55065  -0.54931  -0.54725  -0.54484  -0.54148
 Alpha  occ. eigenvalues --   -0.54003  -0.53506  -0.53162  -0.53007  -0.52979
 Alpha  occ. eigenvalues --   -0.52740  -0.52494  -0.52413  -0.52079  -0.51708
 Alpha  occ. eigenvalues --   -0.51478  -0.51153  -0.50985  -0.50892  -0.50383
 Alpha  occ. eigenvalues --   -0.50204  -0.50138  -0.50022  -0.49895  -0.49728
 Alpha  occ. eigenvalues --   -0.49619  -0.49263  -0.49006  -0.48896  -0.48720
 Alpha  occ. eigenvalues --   -0.48537  -0.48185  -0.48180  -0.47921  -0.47759
 Alpha  occ. eigenvalues --   -0.47482  -0.47345  -0.47153  -0.46618  -0.46576
 Alpha  occ. eigenvalues --   -0.46455  -0.46389  -0.46178  -0.46041  -0.45943
 Alpha  occ. eigenvalues --   -0.45811  -0.45718  -0.45497  -0.45409  -0.44826
 Alpha  occ. eigenvalues --   -0.44562  -0.44483  -0.44442  -0.44354  -0.44270
 Alpha  occ. eigenvalues --   -0.44234  -0.43642  -0.43481  -0.43433  -0.43310
 Alpha  occ. eigenvalues --   -0.43056  -0.42730  -0.42578  -0.42362  -0.42257
 Alpha  occ. eigenvalues --   -0.42221  -0.41804  -0.41752  -0.41664  -0.41509
 Alpha  occ. eigenvalues --   -0.41267  -0.41025  -0.40960  -0.40460  -0.40404
 Alpha  occ. eigenvalues --   -0.40071  -0.39794  -0.39641  -0.39307  -0.38839
 Alpha  occ. eigenvalues --   -0.38571  -0.38261  -0.38219  -0.37715  -0.37661
 Alpha  occ. eigenvalues --   -0.37322  -0.37118  -0.37002  -0.36939  -0.36610
 Alpha  occ. eigenvalues --   -0.36559  -0.36215  -0.35970  -0.35156  -0.34850
 Alpha  occ. eigenvalues --   -0.34623  -0.34102  -0.32789  -0.31482  -0.30915
 Alpha  occ. eigenvalues --   -0.30868  -0.30492  -0.29944  -0.28852  -0.23891
 Alpha  occ. eigenvalues --   -0.21023
 Alpha virt. eigenvalues --   -0.08510  -0.01736   0.00049   0.01802   0.03761
 Alpha virt. eigenvalues --    0.04731   0.05171   0.05311   0.05609   0.06335
 Alpha virt. eigenvalues --    0.07636   0.08039   0.08334   0.09021   0.09407

 Mulliken charges:
               1
     1  Mg   0.857156
     2  C   -0.059114
     3  C   -0.109307
     4  C   -0.071701
     5  C   -0.087168
     6  N   -0.240954
     7  C   -0.008261
     8  C    0.007582
     9  C   -0.063371
    10  C   -0.004192
    11  C    0.056568
    12  C    0.082139
    13  C    0.044771
    14  C    0.128777
    15  O   -0.180194
    16  O   -0.351596
    17  N   -0.343083
    18  C    0.211634
    19  C   -0.159279
    20  C   -0.006587
    21  C    0.104518
    22  C    0.108294
    23  C    0.005804
    24  O   -0.228343
    25  C    0.038068
    26  N   -0.379140
    27  C    0.084418
    28  C   -0.051004
    29  C   -0.001761
    30  C    0.029960
    31  C    0.063135
    32  C    0.045084
    33  C   -0.000556
    34  N   -0.392633
    35  C    0.133063
    36  C   -0.159913
    37  C   -0.022943
    38  C    0.155011
    39  C    0.124937
    40  C    0.083762
    41  O   -0.172820
    42  C   -0.034292
    43  C    0.198549
    44  O   -0.192926
    45  O   -0.340974
    46  C    0.166153
    47  C    0.279226
    48  C   -0.133762
    49  C   -0.207317
    50  C    0.109584
    51  C    0.074134
    52  C    0.009433
    53  C    0.096408
    54  C   -0.158328
    55  C    0.048000
    56  C    0.055646
    57  C    0.032969
    58  C    0.041549
    59  C   -0.155908
    60  C    0.033400
    61  C    0.045348
    62  C    0.035287
    63  C    0.007333
    64  C   -0.198387
    65  C    0.052466
    66  C    0.071671
    67  H   -0.032419
    68  H   -0.011163
    69  H   -0.037431
    70  H    0.015318
    71  H    0.016922
    72  H    0.019436
    73  H    0.016788
    74  H    0.017472
    75  H    0.017277
    76  H    0.012584
    77  H    0.025154
    78  H    0.023627
    79  H    0.025747
    80  H    0.003470
    81  H    0.034927
    82  H    0.040372
    83  H    0.037795
    84  H    0.041468
    85  H    0.016443
    86  H    0.017672
    87  H    0.022144
    88  H    0.012448
    89  H    0.021569
    90  H    0.012869
    91  H    0.003286
    92  H    0.004405
    93  H    0.019126
    94  H    0.018342
    95  H    0.027489
    96  H    0.025930
    97  H    0.042291
    98  H    0.041771
    99  H    0.031905
   100  H    0.036182
   101  H    0.046730
   102  H    0.023887
   103  H    0.048182
   104  H   -0.003762
   105  H    0.011059
   106  H    0.032308
   107  H    0.012902
   108  H    0.001484
   109  H   -0.013646
   110  H   -0.018274
   111  H    0.002711
   112  H   -0.007693
   113  H   -0.017638
   114  H   -0.003537
   115  H    0.013251
   116  H    0.011997
   117  H    0.001153
   118  H   -0.007401
   119  H   -0.003871
   120  H    0.010300
   121  H    0.001895
   122  H   -0.011122
   123  H   -0.005083
   124  H   -0.006749
   125  H    0.008928
   126  H    0.000275
   127  H    0.026031
   128  H   -0.000042
   129  H   -0.001377
   130  H    0.001830
   131  H    0.003202
   132  H   -0.002186
   133  H   -0.001577
   134  H   -0.004104
   135  H    0.002549
   136  H   -0.012618
   137  H    0.014839
   138  H   -0.005833
   139  H    0.004610
   140  H    0.019148
 Sum of Mulliken charges =  -0.00000

 Dipole moment (field-independent basis, Debye):
    X=              4.4247    Y=              2.9395    Z=             -1.5823  Tot=              5.5427
 Quadrupole moment (field-independent basis, Debye-Ang):
   XX=           -382.5454   YY=           -434.8950   ZZ=           -406.9801
   XY=            -21.4150   XZ=              1.7203   YZ=             14.3880

 Normal termination of Gaussian 16 at Wed May  4 15:36:13 2022.
