 Gaussian 16, Revision A.03,
 Gaussian 16:  ES64L-G16RevA.03 25-Dec-2016

 ---------------------------------
 #p PBE1PBE/Def2SVP td=(nstates=5)
 ---------------------------------

 ---------------------------------------------------
 step_1_chromophore_27 TDDFT with PBE1PBE functional
 ---------------------------------------------------
 Symbolic Z-matrix:
 Charge =  0 Multiplicity = 1

                         Standard orientation:
 ---------------------------------------------------------------------
 Center     Atomic      Atomic             Coordinates (Angstroms)
 Number     Number       Type             X           Y           Z
 ---------------------------------------------------------------------
      1         12           0       -4.654777    0.727767    0.049494
      2          6           0       -3.869764   -2.706290    0.164469
      3          6           0       -1.257500    1.334122    0.237826
      4          6           0       -5.269018    4.085886    0.067847
      5          6           0       -7.928310    0.002516    0.214608
      6          7           0       -2.753685   -0.562280    0.151879
      7          6           0       -2.652133   -1.944421    0.049042
      8          6           0       -1.209800   -2.354074   -0.171475
      9          6           0       -0.396820   -1.067889    0.223417
     10          6           0       -1.521304   -0.057570    0.184320
     11          6           0        0.402217   -1.152398    1.582701
     12          6           0       -0.904614   -2.735768   -1.627610
     13          6           0        0.088510   -3.888310   -1.811240
     14          6           0        1.578299   -3.649339   -1.439095
     15          8           0        2.149833   -3.874862   -0.436333
     16          8           0        2.228293   -3.244821   -2.585915
     17          7           0       -3.448608    2.464084    0.049225
     18          6           0       -2.101472    2.437036    0.171647
     19          6           0       -1.628257    3.778504    0.283143
     20          6           0       -2.736087    4.675664    0.096453
     21          6           0       -3.864288    3.761487    0.119243
     22          6           0       -0.175191    4.099015    0.498684
     23          6           0       -2.817479    6.201722    0.054738
     24          8           0       -3.863982    6.795440   -0.287138
     25          6           0       -1.666626    7.097631    0.498531
     26          7           0       -6.337218    1.860141    0.037871
     27          6           0       -6.384869    3.248610    0.118401
     28          6           0       -7.811490    3.681180    0.220656
     29          6           0       -8.742692    2.415941    0.203498
     30          6           0       -7.648973    1.340376    0.102857
     31          6           0       -8.100864    4.708222    1.356419
     32          6           0       -9.743953    2.341111   -0.969545
     33          6           0      -11.151026    2.856771   -0.610807
     34          7           0       -5.718561   -0.931655    0.209589
     35          6           0       -7.096772   -1.141990    0.206085
     36          6           0       -7.461485   -2.607175    0.207215
     37          6           0       -6.187904   -3.198603    0.225666
     38          6           0       -5.184723   -2.178236    0.171644
     39          6           0       -8.859359   -3.198453    0.195660
     40          6           0       -5.546341   -4.504453    0.248571
     41          8           0       -6.023724   -5.638385    0.306467
     42          6           0       -3.996947   -4.199959    0.084052
     43          6           0       -3.309784   -4.969369    1.229304
     44          8           0       -3.711608   -5.076380    2.369596
     45          8           0       -2.226663   -5.671586    0.704164
     46          6           0       -1.504338   -6.445796    1.713763
     47          6           0        3.711330   -3.292882   -2.467293
     48          6           0        4.291335   -1.929363   -2.843543
     49          6           0        5.616798   -1.525684   -2.655329
     50          6           0        6.763463   -2.315187   -2.045838
     51          6           0        6.032010   -0.133778   -3.128892
     52          6           0        6.997134   -0.228070   -4.296864
     53          6           0        8.364925    0.381987   -4.060793
     54          6           0        8.353876    1.915028   -3.925180
     55          6           0        8.592408    2.571820   -5.333291
     56          6           0        9.341225    2.369387   -2.803825
     57          6           0        8.840855    2.180297   -1.360369
     58          6           0        9.818411    1.268954   -0.569021
     59          6           0        9.292030    0.926360    0.836175
     60          6           0        9.086102   -0.680257    1.064659
     61          6           0       10.061535    1.644361    1.980949
     62          6           0        9.294544    1.753085    3.367093
     63          6           0       10.186456    1.139461    4.467656
     64          6           0        9.286855    0.433966    5.589335
     65          6           0        9.989018    0.517894    6.972660
     66          6           0        8.916268   -0.968169    5.127051
     67          1           0       -0.176875    1.488748    0.217492
     68          1           0       -5.579882    5.132474    0.063604
     69          1           0       -8.995961   -0.142213    0.390492
     70          1           0       -0.866785   -3.169115    0.465350
     71          1           0        0.380520   -0.785106   -0.486476
     72          1           0        0.404440   -2.129349    2.066943
     73          1           0        0.065863   -0.499343    2.387632
     74          1           0        1.460895   -0.950100    1.420206
     75          1           0       -0.520626   -1.884031   -2.188562
     76          1           0       -1.805692   -3.086818   -2.130923
     77          1           0        0.049589   -4.302135   -2.818783
     78          1           0       -0.208758   -4.761860   -1.231401
     79          1           0        0.075529    3.438680    1.328998
     80          1           0        0.079256    5.107385    0.824780
     81          1           0        0.476801    3.853536   -0.339305
     82          1           0       -1.293786    6.794738    1.477112
     83          1           0       -2.138576    8.079997    0.508988
     84          1           0       -0.828310    7.032945   -0.195103
     85          1           0       -7.993677    4.347747   -0.622862
     86          1           0       -9.282278    2.224784    1.131974
     87          1           0       -7.173574    4.859659    1.909387
     88          1           0       -8.841152    4.282997    2.033578
     89          1           0       -8.409539    5.608173    0.823477
     90          1           0       -9.703619    1.326102   -1.364184
     91          1           0       -9.460924    3.030384   -1.765395
     92          1           0      -11.086975    3.549157    0.228828
     93          1           0      -11.865925    2.116248   -0.251653
     94          1           0      -11.529088    3.419473   -1.464866
     95          1           0       -9.267249   -3.038643   -0.802587
     96          1           0       -9.567462   -2.748220    0.891066
     97          1           0       -8.729458   -4.261737    0.396663
     98          1           0       -3.553351   -4.507079   -0.862862
     99          1           0       -0.693621   -5.909707    2.208088
    100          1           0       -1.140263   -7.312264    1.161868
    101          1           0       -2.046413   -6.829738    2.577948
    102          1           0        4.051217   -3.928229   -3.284305
    103          1           0        4.213605   -3.663333   -1.574554
    104          1           0        3.622175   -1.197908   -3.296147
    105          1           0        6.965758   -1.732765   -1.147497
    106          1           0        7.604251   -2.201329   -2.730995
    107          1           0        6.542871   -3.314731   -1.672632
    108          1           0        6.367899    0.439400   -2.263798
    109          1           0        5.173572    0.415843   -3.513182
    110          1           0        6.531857    0.342756   -5.101280
    111          1           0        6.905802   -1.225326   -4.727166
    112          1           0        8.958379    0.097298   -4.930003
    113          1           0        8.877955   -0.068866   -3.210912
    114          1           0        7.428005    2.375185   -3.579572
    115          1           0        8.118978    2.085376   -6.185644
    116          1           0        9.667620    2.666851   -5.485280
    117          1           0        8.125504    3.554344   -5.271957
    118          1           0        9.616543    3.413433   -2.959374
    119          1           0       10.192248    1.701957   -2.937760
    120          1           0        7.855092    1.722378   -1.279571
    121          1           0        8.902208    3.164969   -0.895528
    122          1           0       10.776018    1.740830   -0.350024
    123          1           0       10.102672    0.363360   -1.104762
    124          1           0        8.323704    1.380836    1.046971
    125          1           0        9.663532   -1.075311    1.899941
    126          1           0        9.459344   -1.106710    0.133328
    127          1           0        8.042643   -0.975717    1.175008
    128          1           0       10.361115    2.643925    1.668289
    129          1           0       10.927444    1.011271    2.178682
    130          1           0        8.352121    1.204558    3.380232
    131          1           0        9.045072    2.756730    3.709566
    132          1           0       10.817619    1.880329    4.958160
    133          1           0       10.822739    0.310615    4.157807
    134          1           0        8.366439    0.988193    5.774609
    135          1           0       10.780639    1.265535    6.938754
    136          1           0       10.498190   -0.438366    7.088508
    137          1           0        9.343052    0.592769    7.846922
    138          1           0        9.201666   -1.729822    5.853096
    139          1           0        9.524803   -1.252296    4.267548
    140          1           0        7.830673   -1.013749    5.038238
 ---------------------------------------------------------------------

 SCF Done:  E(RPBE1PBE) =  -3005.39293753     A.U. after   16 cycles

 Excitation energies and oscillator strengths:

 Excited State   1:      Singlet-A      1.8495 eV  670.35 nm  f=0.3593  <S**2>=0.000
     245 -> 248       -0.18077
     246 -> 247        0.69137
     246 <- 247       -0.10417
 This state for optimization and/or second-order correction.
 Total Energy, E(TD-HF/TD-DFT) =  -3005.32496848
 Copying the excited state density for this state as the 1-particle RhoCI density.

 Excited State   2:      Singlet-A      2.2259 eV  557.02 nm  f=0.1023  <S**2>=0.000
     245 -> 247        0.64911
     246 -> 248        0.27310

 Excited State   3:      Singlet-A      3.0952 eV  400.57 nm  f=0.0002  <S**2>=0.000
     242 -> 247        0.64667
     242 -> 249        0.18158
     242 -> 250        0.11688
     243 -> 247        0.13903

 Excited State   4:      Singlet-A      3.1312 eV  395.97 nm  f=0.0016  <S**2>=0.000
     241 -> 247        0.15534
     242 -> 247       -0.13805
     243 -> 247        0.65478
     246 -> 248       -0.11537

 Excited State   5:      Singlet-A      3.1977 eV  387.73 nm  f=0.0046  <S**2>=0.000
     240 -> 247       -0.12734
     241 -> 247        0.61575
     241 -> 249       -0.17269
     241 -> 250        0.10835
     243 -> 247       -0.16381
     246 -> 248        0.10033

 The electronic state is 1-A.
 Alpha  occ. eigenvalues --  -46.91017 -19.26242 -19.25596 -19.20906 -19.20469
 Alpha  occ. eigenvalues --  -19.19298 -19.19298 -14.41982 -14.40908 -14.39537
 Alpha  occ. eigenvalues --  -14.39011 -10.36569 -10.36391 -10.32860 -10.32206
 Alpha  occ. eigenvalues --  -10.29396 -10.29257 -10.28408 -10.28391 -10.28318
 Alpha  occ. eigenvalues --  -10.28177 -10.28139 -10.28102 -10.27019 -10.27010
 Alpha  occ. eigenvalues --  -10.26563 -10.26410 -10.26275 -10.26207 -10.26088
 Alpha  occ. eigenvalues --  -10.26077 -10.25714 -10.25368 -10.25142 -10.25107
 Alpha  occ. eigenvalues --  -10.25067 -10.24996 -10.24431 -10.24255 -10.23984
 Alpha  occ. eigenvalues --  -10.23882 -10.23872 -10.23740 -10.23725 -10.23685
 Alpha  occ. eigenvalues --  -10.23672 -10.23660 -10.23581 -10.23530 -10.23444
 Alpha  occ. eigenvalues --  -10.23238 -10.23132 -10.23128 -10.23040 -10.22999
 Alpha  occ. eigenvalues --  -10.22890 -10.22879 -10.22805 -10.22724 -10.22700
 Alpha  occ. eigenvalues --  -10.22697 -10.22668 -10.22516 -10.22406 -10.21783
 Alpha  occ. eigenvalues --  -10.21517  -3.13374  -1.86214  -1.85725  -1.85642
 Alpha  occ. eigenvalues --   -1.12469  -1.10884  -1.03923  -1.03855  -1.03506
 Alpha  occ. eigenvalues --   -1.02847  -0.99204  -0.98188  -0.97752  -0.96044
 Alpha  occ. eigenvalues --   -0.86873  -0.85042  -0.84368  -0.83602  -0.83268
 Alpha  occ. eigenvalues --   -0.82690  -0.82531  -0.81760  -0.81407  -0.81169
 Alpha  occ. eigenvalues --   -0.80439  -0.79724  -0.78524  -0.77842  -0.77427
 Alpha  occ. eigenvalues --   -0.76626  -0.75985  -0.75309  -0.74950  -0.74345
 Alpha  occ. eigenvalues --   -0.73987  -0.72682  -0.72323  -0.71702  -0.70499
 Alpha  occ. eigenvalues --   -0.70354  -0.69722  -0.69339  -0.69134  -0.68243
 Alpha  occ. eigenvalues --   -0.67538  -0.66933  -0.65960  -0.64986  -0.63300
 Alpha  occ. eigenvalues --   -0.63140  -0.62894  -0.61884  -0.61192  -0.60402
 Alpha  occ. eigenvalues --   -0.59992  -0.59880  -0.58979  -0.58696  -0.58261
 Alpha  occ. eigenvalues --   -0.57917  -0.57259  -0.57020  -0.56224  -0.55074
 Alpha  occ. eigenvalues --   -0.54587  -0.53888  -0.53470  -0.53152  -0.52226
 Alpha  occ. eigenvalues --   -0.52058  -0.51624  -0.50566  -0.50132  -0.49691
 Alpha  occ. eigenvalues --   -0.49665  -0.49530  -0.49104  -0.48864  -0.48585
 Alpha  occ. eigenvalues --   -0.48373  -0.48132  -0.47619  -0.47611  -0.47473
 Alpha  occ. eigenvalues --   -0.47284  -0.47090  -0.46867  -0.46603  -0.46155
 Alpha  occ. eigenvalues --   -0.46001  -0.45726  -0.45600  -0.45406  -0.45027
 Alpha  occ. eigenvalues --   -0.44671  -0.44640  -0.44519  -0.44461  -0.44341
 Alpha  occ. eigenvalues --   -0.44155  -0.43880  -0.43631  -0.43501  -0.43313
 Alpha  occ. eigenvalues --   -0.43150  -0.42827  -0.42761  -0.42544  -0.42394
 Alpha  occ. eigenvalues --   -0.42079  -0.42040  -0.41714  -0.41325  -0.41214
 Alpha  occ. eigenvalues --   -0.41150  -0.40997  -0.40901  -0.40696  -0.40640
 Alpha  occ. eigenvalues --   -0.40466  -0.40397  -0.40145  -0.40103  -0.39645
 Alpha  occ. eigenvalues --   -0.39279  -0.39248  -0.39191  -0.39101  -0.39021
 Alpha  occ. eigenvalues --   -0.38957  -0.38466  -0.38291  -0.38253  -0.38085
 Alpha  occ. eigenvalues --   -0.37810  -0.37511  -0.37361  -0.37095  -0.37086
 Alpha  occ. eigenvalues --   -0.37031  -0.36609  -0.36562  -0.36405  -0.36325
 Alpha  occ. eigenvalues --   -0.36160  -0.35864  -0.35735  -0.35413  -0.35238
 Alpha  occ. eigenvalues --   -0.34905  -0.34733  -0.34616  -0.34083  -0.33657
 Alpha  occ. eigenvalues --   -0.33577  -0.33275  -0.33013  -0.32678  -0.32559
 Alpha  occ. eigenvalues --   -0.32162  -0.31924  -0.31896  -0.31848  -0.31604
 Alpha  occ. eigenvalues --   -0.31458  -0.31119  -0.30823  -0.30330  -0.29758
 Alpha  occ. eigenvalues --   -0.29515  -0.29106  -0.28373  -0.26642  -0.26262
 Alpha  occ. eigenvalues --   -0.26023  -0.25722  -0.25479  -0.24166  -0.20799
 Alpha  occ. eigenvalues --   -0.18646
 Alpha virt. eigenvalues --   -0.11002  -0.05206  -0.04179  -0.02580   0.00365
 Alpha virt. eigenvalues --    0.00553   0.00704   0.01174   0.01541   0.02707
 Alpha virt. eigenvalues --    0.03596   0.03948   0.04776   0.05728   0.06096

 Mulliken charges:
               1
     1  Mg   1.015446
     2  C   -0.062839
     3  C   -0.093529
     4  C   -0.059280
     5  C   -0.083561
     6  N   -0.343746
     7  C    0.066819
     8  C   -0.072061
     9  C   -0.134256
    10  C    0.040907
    11  C    0.005192
    12  C    0.034259
    13  C   -0.034578
    14  C    0.202305
    15  O   -0.216730
    16  O   -0.380625
    17  N   -0.462124
    18  C    0.229585
    19  C   -0.196459
    20  C   -0.042730
    21  C    0.130620
    22  C    0.049031
    23  C    0.050465
    24  O   -0.263635
    25  C   -0.032943
    26  N   -0.484421
    27  C    0.112442
    28  C   -0.120319
    29  C   -0.084435
    30  C    0.067630
    31  C    0.004624
    32  C   -0.011311
    33  C   -0.072430
    34  N   -0.519553
    35  C    0.146863
    36  C   -0.164189
    37  C   -0.080826
    38  C    0.197545
    39  C    0.069340
    40  C    0.182756
    41  O   -0.217935
    42  C   -0.149980
    43  C    0.290329
    44  O   -0.227751
    45  O   -0.372591
    46  C    0.110579
    47  C    0.235057
    48  C   -0.142790
    49  C   -0.255696
    50  C    0.041980
    51  C    0.012877
    52  C   -0.058102
    53  C    0.032881
    54  C   -0.239782
    55  C   -0.011628
    56  C    0.000472
    57  C   -0.039912
    58  C   -0.013126
    59  C   -0.234803
    60  C   -0.029117
    61  C   -0.012299
    62  C   -0.024809
    63  C   -0.051342
    64  C   -0.288372
    65  C   -0.007904
    66  C    0.009967
    67  H   -0.001958
    68  H    0.021663
    69  H   -0.003899
    70  H    0.055556
    71  H    0.052331
    72  H    0.045071
    73  H    0.043808
    74  H    0.043856
    75  H    0.049660
    76  H    0.046123
    77  H    0.056890
    78  H    0.058238
    79  H    0.053000
    80  H    0.031085
    81  H    0.061654
    82  H    0.066325
    83  H    0.064310
    84  H    0.067571
    85  H    0.053863
    86  H    0.053887
    87  H    0.050979
    88  H    0.039784
    89  H    0.047766
    90  H    0.045168
    91  H    0.036130
    92  H    0.033443
    93  H    0.046711
    94  H    0.046106
    95  H    0.056356
    96  H    0.052857
    97  H    0.070513
    98  H    0.079151
    99  H    0.053417
   100  H    0.058053
   101  H    0.068231
   102  H    0.053112
   103  H    0.073935
   104  H    0.026003
   105  H    0.044572
   106  H    0.060434
   107  H    0.039799
   108  H    0.039593
   109  H    0.018784
   110  H    0.016563
   111  H    0.035350
   112  H    0.026095
   113  H    0.018196
   114  H    0.034813
   115  H    0.040041
   116  H    0.039681
   117  H    0.029615
   118  H    0.025076
   119  H    0.029872
   120  H    0.046584
   121  H    0.036309
   122  H    0.022685
   123  H    0.025283
   124  H    0.031967
   125  H    0.038009
   126  H    0.027749
   127  H    0.051767
   128  H    0.032613
   129  H    0.032566
   130  H    0.034496
   131  H    0.035923
   132  H    0.030316
   133  H    0.029949
   134  H    0.034378
   135  H    0.029873
   136  H    0.015831
   137  H    0.041940
   138  H    0.022013
   139  H    0.033325
   140  H    0.045741
 Sum of Mulliken charges =  -0.00000

 Dipole moment (field-independent basis, Debye):
    X=              4.1461    Y=              2.7808    Z=             -1.6075  Tot=              5.2447
 Quadrupole moment (field-independent basis, Debye-Ang):
   XX=           -374.0551   YY=           -432.5739   ZZ=           -404.3052
   XY=            -21.7228   XZ=              1.7687   YZ=             14.2871

 Normal termination of Gaussian 16 at Wed May  4 16:01:03 2022.
