 Gaussian 16, Revision A.03,
 Gaussian 16:  ES64L-G16RevA.03 25-Dec-2016

 --------------------------------
 #p wB97XD/Def2SVP td=(nstates=5)
 --------------------------------

 --------------------------------------------------
 step_1_chromophore_27 TDDFT with wB97XD functional
 --------------------------------------------------
 Symbolic Z-matrix:
 Charge =  0 Multiplicity = 1

                         Standard orientation:
 ---------------------------------------------------------------------
 Center     Atomic      Atomic             Coordinates (Angstroms)
 Number     Number       Type             X           Y           Z
 ---------------------------------------------------------------------
      1         12           0       -4.654777    0.727767    0.049494
      2          6           0       -3.869764   -2.706290    0.164469
      3          6           0       -1.257500    1.334122    0.237826
      4          6           0       -5.269018    4.085886    0.067847
      5          6           0       -7.928310    0.002516    0.214608
      6          7           0       -2.753685   -0.562280    0.151879
      7          6           0       -2.652133   -1.944421    0.049042
      8          6           0       -1.209800   -2.354074   -0.171475
      9          6           0       -0.396820   -1.067889    0.223417
     10          6           0       -1.521304   -0.057570    0.184320
     11          6           0        0.402217   -1.152398    1.582701
     12          6           0       -0.904614   -2.735768   -1.627610
     13          6           0        0.088510   -3.888310   -1.811240
     14          6           0        1.578299   -3.649339   -1.439095
     15          8           0        2.149833   -3.874862   -0.436333
     16          8           0        2.228293   -3.244821   -2.585915
     17          7           0       -3.448608    2.464084    0.049225
     18          6           0       -2.101472    2.437036    0.171647
     19          6           0       -1.628257    3.778504    0.283143
     20          6           0       -2.736087    4.675664    0.096453
     21          6           0       -3.864288    3.761487    0.119243
     22          6           0       -0.175191    4.099015    0.498684
     23          6           0       -2.817479    6.201722    0.054738
     24          8           0       -3.863982    6.795440   -0.287138
     25          6           0       -1.666626    7.097631    0.498531
     26          7           0       -6.337218    1.860141    0.037871
     27          6           0       -6.384869    3.248610    0.118401
     28          6           0       -7.811490    3.681180    0.220656
     29          6           0       -8.742692    2.415941    0.203498
     30          6           0       -7.648973    1.340376    0.102857
     31          6           0       -8.100864    4.708222    1.356419
     32          6           0       -9.743953    2.341111   -0.969545
     33          6           0      -11.151026    2.856771   -0.610807
     34          7           0       -5.718561   -0.931655    0.209589
     35          6           0       -7.096772   -1.141990    0.206085
     36          6           0       -7.461485   -2.607175    0.207215
     37          6           0       -6.187904   -3.198603    0.225666
     38          6           0       -5.184723   -2.178236    0.171644
     39          6           0       -8.859359   -3.198453    0.195660
     40          6           0       -5.546341   -4.504453    0.248571
     41          8           0       -6.023724   -5.638385    0.306467
     42          6           0       -3.996947   -4.199959    0.084052
     43          6           0       -3.309784   -4.969369    1.229304
     44          8           0       -3.711608   -5.076380    2.369596
     45          8           0       -2.226663   -5.671586    0.704164
     46          6           0       -1.504338   -6.445796    1.713763
     47          6           0        3.711330   -3.292882   -2.467293
     48          6           0        4.291335   -1.929363   -2.843543
     49          6           0        5.616798   -1.525684   -2.655329
     50          6           0        6.763463   -2.315187   -2.045838
     51          6           0        6.032010   -0.133778   -3.128892
     52          6           0        6.997134   -0.228070   -4.296864
     53          6           0        8.364925    0.381987   -4.060793
     54          6           0        8.353876    1.915028   -3.925180
     55          6           0        8.592408    2.571820   -5.333291
     56          6           0        9.341225    2.369387   -2.803825
     57          6           0        8.840855    2.180297   -1.360369
     58          6           0        9.818411    1.268954   -0.569021
     59          6           0        9.292030    0.926360    0.836175
     60          6           0        9.086102   -0.680257    1.064659
     61          6           0       10.061535    1.644361    1.980949
     62          6           0        9.294544    1.753085    3.367093
     63          6           0       10.186456    1.139461    4.467656
     64          6           0        9.286855    0.433966    5.589335
     65          6           0        9.989018    0.517894    6.972660
     66          6           0        8.916268   -0.968169    5.127051
     67          1           0       -0.176875    1.488748    0.217492
     68          1           0       -5.579882    5.132474    0.063604
     69          1           0       -8.995961   -0.142213    0.390492
     70          1           0       -0.866785   -3.169115    0.465350
     71          1           0        0.380520   -0.785106   -0.486476
     72          1           0        0.404440   -2.129349    2.066943
     73          1           0        0.065863   -0.499343    2.387632
     74          1           0        1.460895   -0.950100    1.420206
     75          1           0       -0.520626   -1.884031   -2.188562
     76          1           0       -1.805692   -3.086818   -2.130923
     77          1           0        0.049589   -4.302135   -2.818783
     78          1           0       -0.208758   -4.761860   -1.231401
     79          1           0        0.075529    3.438680    1.328998
     80          1           0        0.079256    5.107385    0.824780
     81          1           0        0.476801    3.853536   -0.339305
     82          1           0       -1.293786    6.794738    1.477112
     83          1           0       -2.138576    8.079997    0.508988
     84          1           0       -0.828310    7.032945   -0.195103
     85          1           0       -7.993677    4.347747   -0.622862
     86          1           0       -9.282278    2.224784    1.131974
     87          1           0       -7.173574    4.859659    1.909387
     88          1           0       -8.841152    4.282997    2.033578
     89          1           0       -8.409539    5.608173    0.823477
     90          1           0       -9.703619    1.326102   -1.364184
     91          1           0       -9.460924    3.030384   -1.765395
     92          1           0      -11.086975    3.549157    0.228828
     93          1           0      -11.865925    2.116248   -0.251653
     94          1           0      -11.529088    3.419473   -1.464866
     95          1           0       -9.267249   -3.038643   -0.802587
     96          1           0       -9.567462   -2.748220    0.891066
     97          1           0       -8.729458   -4.261737    0.396663
     98          1           0       -3.553351   -4.507079   -0.862862
     99          1           0       -0.693621   -5.909707    2.208088
    100          1           0       -1.140263   -7.312264    1.161868
    101          1           0       -2.046413   -6.829738    2.577948
    102          1           0        4.051217   -3.928229   -3.284305
    103          1           0        4.213605   -3.663333   -1.574554
    104          1           0        3.622175   -1.197908   -3.296147
    105          1           0        6.965758   -1.732765   -1.147497
    106          1           0        7.604251   -2.201329   -2.730995
    107          1           0        6.542871   -3.314731   -1.672632
    108          1           0        6.367899    0.439400   -2.263798
    109          1           0        5.173572    0.415843   -3.513182
    110          1           0        6.531857    0.342756   -5.101280
    111          1           0        6.905802   -1.225326   -4.727166
    112          1           0        8.958379    0.097298   -4.930003
    113          1           0        8.877955   -0.068866   -3.210912
    114          1           0        7.428005    2.375185   -3.579572
    115          1           0        8.118978    2.085376   -6.185644
    116          1           0        9.667620    2.666851   -5.485280
    117          1           0        8.125504    3.554344   -5.271957
    118          1           0        9.616543    3.413433   -2.959374
    119          1           0       10.192248    1.701957   -2.937760
    120          1           0        7.855092    1.722378   -1.279571
    121          1           0        8.902208    3.164969   -0.895528
    122          1           0       10.776018    1.740830   -0.350024
    123          1           0       10.102672    0.363360   -1.104762
    124          1           0        8.323704    1.380836    1.046971
    125          1           0        9.663532   -1.075311    1.899941
    126          1           0        9.459344   -1.106710    0.133328
    127          1           0        8.042643   -0.975717    1.175008
    128          1           0       10.361115    2.643925    1.668289
    129          1           0       10.927444    1.011271    2.178682
    130          1           0        8.352121    1.204558    3.380232
    131          1           0        9.045072    2.756730    3.709566
    132          1           0       10.817619    1.880329    4.958160
    133          1           0       10.822739    0.310615    4.157807
    134          1           0        8.366439    0.988193    5.774609
    135          1           0       10.780639    1.265535    6.938754
    136          1           0       10.498190   -0.438366    7.088508
    137          1           0        9.343052    0.592769    7.846922
    138          1           0        9.201666   -1.729822    5.853096
    139          1           0        9.524803   -1.252296    4.267548
    140          1           0        7.830673   -1.013749    5.038238
 ---------------------------------------------------------------------

 SCF Done:  E(RwB97XD) =  -3007.90329831     A.U. after   17 cycles

 Excitation energies and oscillator strengths:

 Excited State   1:      Singlet-A      1.6489 eV  751.92 nm  f=0.3665  <S**2>=0.000
     245 -> 248       -0.19166
     246 -> 247        0.68137
     245 <- 248       -0.11831
 This state for optimization and/or second-order correction.
 Total Energy, E(TD-HF/TD-DFT) =  -3007.84270192
 Copying the excited state density for this state as the 1-particle RhoCI density.

 Excited State   2:      Singlet-A      2.1798 eV  568.79 nm  f=0.1011  <S**2>=0.000
     245 -> 247        0.63419
     246 -> 248        0.29983

 Excited State   3:      Singlet-A      3.4318 eV  361.28 nm  f=0.1350  <S**2>=0.000
     242 -> 247       -0.17403
     243 -> 247        0.55617
     245 -> 247        0.11634
     246 -> 248       -0.35338

 Excited State   4:      Singlet-A      3.5712 eV  347.17 nm  f=0.5410  <S**2>=0.000
     241 -> 247        0.11986
     242 -> 247        0.14275
     242 -> 249        0.11538
     243 -> 247        0.36802
     245 -> 247       -0.24584
     246 -> 248        0.47108

 Excited State   5:      Singlet-A      3.6191 eV  342.58 nm  f=0.1293  <S**2>=0.000
     241 -> 247        0.39457
     241 -> 249        0.27526
     241 -> 250        0.22035
     242 -> 247        0.28827
     242 -> 249        0.15626
     242 -> 250        0.12983
     245 -> 247        0.11330
     246 -> 248       -0.20373

 The electronic state is 1-A.
 Alpha  occ. eigenvalues --  -46.93924 -19.30806 -19.30140 -19.25592 -19.25181
 Alpha  occ. eigenvalues --  -19.24227 -19.24055 -14.47235 -14.45810 -14.44426
 Alpha  occ. eigenvalues --  -14.44041 -10.43391 -10.43169 -10.39820 -10.39016
 Alpha  occ. eigenvalues --  -10.35882 -10.35402 -10.34911 -10.34833 -10.34782
 Alpha  occ. eigenvalues --  -10.34741 -10.34250 -10.34212 -10.33596 -10.33119
 Alpha  occ. eigenvalues --  -10.32873 -10.32832 -10.32761 -10.32574 -10.32504
 Alpha  occ. eigenvalues --  -10.32463 -10.31844 -10.31699 -10.31637 -10.31513
 Alpha  occ. eigenvalues --  -10.31496 -10.31176 -10.31092 -10.30958 -10.30285
 Alpha  occ. eigenvalues --  -10.30215 -10.30211 -10.30183 -10.30172 -10.30074
 Alpha  occ. eigenvalues --  -10.29971 -10.29952 -10.29946 -10.29907 -10.29647
 Alpha  occ. eigenvalues --  -10.29646 -10.29480 -10.29445 -10.29402 -10.29330
 Alpha  occ. eigenvalues --  -10.29296 -10.29272 -10.29199 -10.29117 -10.29104
 Alpha  occ. eigenvalues --  -10.29085 -10.29081 -10.28871 -10.28859 -10.28220
 Alpha  occ. eigenvalues --  -10.27946  -3.20119  -1.93713  -1.93224  -1.93135
 Alpha  occ. eigenvalues --   -1.19823  -1.18287  -1.11358  -1.11183  -1.11125
 Alpha  occ. eigenvalues --   -1.10216  -1.06668  -1.05688  -1.05008  -1.03385
 Alpha  occ. eigenvalues --   -0.94469  -0.92747  -0.91998  -0.91297  -0.90857
 Alpha  occ. eigenvalues --   -0.90381  -0.90152  -0.89334  -0.89090  -0.88931
 Alpha  occ. eigenvalues --   -0.88017  -0.87392  -0.86208  -0.85380  -0.85083
 Alpha  occ. eigenvalues --   -0.84292  -0.83724  -0.83060  -0.82596  -0.81995
 Alpha  occ. eigenvalues --   -0.81677  -0.80378  -0.80010  -0.79269  -0.78175
 Alpha  occ. eigenvalues --   -0.78005  -0.77430  -0.76920  -0.76849  -0.75923
 Alpha  occ. eigenvalues --   -0.75117  -0.74487  -0.73524  -0.72604  -0.70875
 Alpha  occ. eigenvalues --   -0.70637  -0.70522  -0.69498  -0.68856  -0.67921
 Alpha  occ. eigenvalues --   -0.67669  -0.67383  -0.66462  -0.66080  -0.65932
 Alpha  occ. eigenvalues --   -0.65454  -0.64902  -0.64418  -0.63857  -0.62546
 Alpha  occ. eigenvalues --   -0.62130  -0.61406  -0.60886  -0.60481  -0.59621
 Alpha  occ. eigenvalues --   -0.59543  -0.59077  -0.57989  -0.57547  -0.57171
 Alpha  occ. eigenvalues --   -0.57048  -0.56897  -0.56600  -0.56329  -0.56040
 Alpha  occ. eigenvalues --   -0.55868  -0.55430  -0.55075  -0.54951  -0.54885
 Alpha  occ. eigenvalues --   -0.54677  -0.54437  -0.54287  -0.54037  -0.53646
 Alpha  occ. eigenvalues --   -0.53363  -0.53084  -0.52912  -0.52783  -0.52291
 Alpha  occ. eigenvalues --   -0.52170  -0.52028  -0.51956  -0.51801  -0.51650
 Alpha  occ. eigenvalues --   -0.51506  -0.51162  -0.50942  -0.50829  -0.50632
 Alpha  occ. eigenvalues --   -0.50430  -0.50123  -0.50075  -0.49845  -0.49659
 Alpha  occ. eigenvalues --   -0.49454  -0.49255  -0.49008  -0.48518  -0.48493
 Alpha  occ. eigenvalues --   -0.48380  -0.48253  -0.48104  -0.47922  -0.47847
 Alpha  occ. eigenvalues --   -0.47687  -0.47627  -0.47360  -0.47341  -0.46739
 Alpha  occ. eigenvalues --   -0.46446  -0.46422  -0.46380  -0.46261  -0.46194
 Alpha  occ. eigenvalues --   -0.46149  -0.45561  -0.45409  -0.45304  -0.45217
 Alpha  occ. eigenvalues --   -0.45006  -0.44616  -0.44508  -0.44239  -0.44185
 Alpha  occ. eigenvalues --   -0.44152  -0.43787  -0.43644  -0.43562  -0.43435
 Alpha  occ. eigenvalues --   -0.43161  -0.42925  -0.42832  -0.42354  -0.42324
 Alpha  occ. eigenvalues --   -0.41965  -0.41698  -0.41548  -0.41158  -0.40713
 Alpha  occ. eigenvalues --   -0.40458  -0.40186  -0.40075  -0.39594  -0.39569
 Alpha  occ. eigenvalues --   -0.39190  -0.38979  -0.38966  -0.38878  -0.38680
 Alpha  occ. eigenvalues --   -0.38482  -0.38129  -0.37827  -0.37141  -0.36841
 Alpha  occ. eigenvalues --   -0.36552  -0.35952  -0.35027  -0.33462  -0.33096
 Alpha  occ. eigenvalues --   -0.32865  -0.32613  -0.32148  -0.30903  -0.25810
 Alpha  occ. eigenvalues --   -0.22831
 Alpha virt. eigenvalues --   -0.06851   0.00185   0.02098   0.03908   0.06790
 Alpha virt. eigenvalues --    0.07141   0.07418   0.07687   0.07951   0.09040
 Alpha virt. eigenvalues --    0.10184   0.10850   0.11344   0.12417   0.12885

 Mulliken charges:
               1
     1  Mg   1.001465
     2  C   -0.065209
     3  C   -0.110617
     4  C   -0.083894
     5  C   -0.100844
     6  N   -0.307100
     7  C    0.028265
     8  C   -0.038889
     9  C   -0.110084
    10  C    0.022258
    11  C    0.012036
    12  C    0.041967
    13  C   -0.013351
    14  C    0.186743
    15  O   -0.213746
    16  O   -0.380035
    17  N   -0.428066
    18  C    0.223865
    19  C   -0.180340
    20  C   -0.043012
    21  C    0.127960
    22  C    0.061821
    23  C    0.049186
    24  O   -0.257683
    25  C   -0.023811
    26  N   -0.456686
    27  C    0.109041
    28  C   -0.100356
    29  C   -0.055395
    30  C    0.059358
    31  C    0.015951
    32  C    0.000336
    33  C   -0.055603
    34  N   -0.483206
    35  C    0.140237
    36  C   -0.167436
    37  C   -0.071424
    38  C    0.181681
    39  C    0.080922
    40  C    0.161277
    41  O   -0.208509
    42  C   -0.106093
    43  C    0.266897
    44  O   -0.223554
    45  O   -0.371018
    46  C    0.125417
    47  C    0.249612
    48  C   -0.153220
    49  C   -0.236241
    50  C    0.060045
    51  C    0.028738
    52  C   -0.037623
    53  C    0.055063
    54  C   -0.213936
    55  C   -0.000375
    56  C    0.019178
    57  C   -0.017032
    58  C    0.004137
    59  C   -0.207436
    60  C   -0.010801
    61  C    0.005501
    62  C   -0.011647
    63  C   -0.030164
    64  C   -0.259951
    65  C    0.005994
    66  C    0.022383
    67  H   -0.007518
    68  H    0.016190
    69  H   -0.010603
    70  H    0.038415
    71  H    0.042172
    72  H    0.040827
    73  H    0.038091
    74  H    0.039323
    75  H    0.041642
    76  H    0.038010
    77  H    0.052803
    78  H    0.050530
    79  H    0.046927
    80  H    0.026521
    81  H    0.058711
    82  H    0.061493
    83  H    0.063589
    84  H    0.063415
    85  H    0.042632
    86  H    0.042918
    87  H    0.043710
    88  H    0.034087
    89  H    0.043438
    90  H    0.037014
    91  H    0.027899
    92  H    0.024537
    93  H    0.041146
    94  H    0.040781
    95  H    0.050337
    96  H    0.047663
    97  H    0.066161
    98  H    0.071887
    99  H    0.049350
   100  H    0.054619
   101  H    0.064259
   102  H    0.047659
   103  H    0.068615
   104  H    0.023209
   105  H    0.032924
   106  H    0.052651
   107  H    0.035971
   108  H    0.024843
   109  H    0.012221
   110  H    0.006511
   111  H    0.026732
   112  H    0.018648
   113  H    0.000840
   114  H    0.021120
   115  H    0.034471
   116  H    0.033523
   117  H    0.023798
   118  H    0.018911
   119  H    0.017127
   120  H    0.029986
   121  H    0.028378
   122  H    0.013515
   123  H    0.013813
   124  H    0.016927
   125  H    0.028146
   126  H    0.019746
   127  H    0.046332
   128  H    0.024976
   129  H    0.020352
   130  H    0.022478
   131  H    0.029972
   132  H    0.021754
   133  H    0.017038
   134  H    0.022718
   135  H    0.023208
   136  H    0.007475
   137  H    0.037512
   138  H    0.016361
   139  H    0.022450
   140  H    0.041164
 Sum of Mulliken charges =  -0.00000

 Dipole moment (field-independent basis, Debye):
    X=              4.5649    Y=              3.0795    Z=             -1.5971  Tot=              5.7334
 Quadrupole moment (field-independent basis, Debye-Ang):
   XX=           -378.0315   YY=           -430.4638   ZZ=           -403.9040
   XY=            -21.8255   XZ=              1.8071   YZ=             14.5790

 Normal termination of Gaussian 16 at Wed May  4 16:34:10 2022.
