 Gaussian 16, Revision A.03,
 Gaussian 16:  ES64L-G16RevA.03 25-Dec-2016

 --------------------
 #p ZINDO=(nstates=5)
 --------------------

 ---------------------------
 step_1_chromophore_27 ZINDO
 ---------------------------
 Symbolic Z-matrix:
 Charge =  0 Multiplicity = 1

                         Standard orientation:
 ---------------------------------------------------------------------
 Center     Atomic      Atomic             Coordinates (Angstroms)
 Number     Number       Type             X           Y           Z
 ---------------------------------------------------------------------
      1         12           0       -4.654777    0.727767    0.049494
      2          6           0       -3.869764   -2.706290    0.164469
      3          6           0       -1.257500    1.334122    0.237826
      4          6           0       -5.269018    4.085886    0.067847
      5          6           0       -7.928310    0.002516    0.214608
      6          7           0       -2.753685   -0.562280    0.151879
      7          6           0       -2.652133   -1.944421    0.049042
      8          6           0       -1.209800   -2.354074   -0.171475
      9          6           0       -0.396820   -1.067889    0.223417
     10          6           0       -1.521304   -0.057570    0.184320
     11          6           0        0.402217   -1.152398    1.582701
     12          6           0       -0.904614   -2.735768   -1.627610
     13          6           0        0.088510   -3.888310   -1.811240
     14          6           0        1.578299   -3.649339   -1.439095
     15          8           0        2.149833   -3.874862   -0.436333
     16          8           0        2.228293   -3.244821   -2.585915
     17          7           0       -3.448608    2.464084    0.049225
     18          6           0       -2.101472    2.437036    0.171647
     19          6           0       -1.628257    3.778504    0.283143
     20          6           0       -2.736087    4.675664    0.096453
     21          6           0       -3.864288    3.761487    0.119243
     22          6           0       -0.175191    4.099015    0.498684
     23          6           0       -2.817479    6.201722    0.054738
     24          8           0       -3.863982    6.795440   -0.287138
     25          6           0       -1.666626    7.097631    0.498531
     26          7           0       -6.337218    1.860141    0.037871
     27          6           0       -6.384869    3.248610    0.118401
     28          6           0       -7.811490    3.681180    0.220656
     29          6           0       -8.742692    2.415941    0.203498
     30          6           0       -7.648973    1.340376    0.102857
     31          6           0       -8.100864    4.708222    1.356419
     32          6           0       -9.743953    2.341111   -0.969545
     33          6           0      -11.151026    2.856771   -0.610807
     34          7           0       -5.718561   -0.931655    0.209589
     35          6           0       -7.096772   -1.141990    0.206085
     36          6           0       -7.461485   -2.607175    0.207215
     37          6           0       -6.187904   -3.198603    0.225666
     38          6           0       -5.184723   -2.178236    0.171644
     39          6           0       -8.859359   -3.198453    0.195660
     40          6           0       -5.546341   -4.504453    0.248571
     41          8           0       -6.023724   -5.638385    0.306467
     42          6           0       -3.996947   -4.199959    0.084052
     43          6           0       -3.309784   -4.969369    1.229304
     44          8           0       -3.711608   -5.076380    2.369596
     45          8           0       -2.226663   -5.671586    0.704164
     46          6           0       -1.504338   -6.445796    1.713763
     47          6           0        3.711330   -3.292882   -2.467293
     48          6           0        4.291335   -1.929363   -2.843543
     49          6           0        5.616798   -1.525684   -2.655329
     50          6           0        6.763463   -2.315187   -2.045838
     51          6           0        6.032010   -0.133778   -3.128892
     52          6           0        6.997134   -0.228070   -4.296864
     53          6           0        8.364925    0.381987   -4.060793
     54          6           0        8.353876    1.915028   -3.925180
     55          6           0        8.592408    2.571820   -5.333291
     56          6           0        9.341225    2.369387   -2.803825
     57          6           0        8.840855    2.180297   -1.360369
     58          6           0        9.818411    1.268954   -0.569021
     59          6           0        9.292030    0.926360    0.836175
     60          6           0        9.086102   -0.680257    1.064659
     61          6           0       10.061535    1.644361    1.980949
     62          6           0        9.294544    1.753085    3.367093
     63          6           0       10.186456    1.139461    4.467656
     64          6           0        9.286855    0.433966    5.589335
     65          6           0        9.989018    0.517894    6.972660
     66          6           0        8.916268   -0.968169    5.127051
     67          1           0       -0.176875    1.488748    0.217492
     68          1           0       -5.579882    5.132474    0.063604
     69          1           0       -8.995961   -0.142213    0.390492
     70          1           0       -0.866785   -3.169115    0.465350
     71          1           0        0.380520   -0.785106   -0.486476
     72          1           0        0.404440   -2.129349    2.066943
     73          1           0        0.065863   -0.499343    2.387632
     74          1           0        1.460895   -0.950100    1.420206
     75          1           0       -0.520626   -1.884031   -2.188562
     76          1           0       -1.805692   -3.086818   -2.130923
     77          1           0        0.049589   -4.302135   -2.818783
     78          1           0       -0.208758   -4.761860   -1.231401
     79          1           0        0.075529    3.438680    1.328998
     80          1           0        0.079256    5.107385    0.824780
     81          1           0        0.476801    3.853536   -0.339305
     82          1           0       -1.293786    6.794738    1.477112
     83          1           0       -2.138576    8.079997    0.508988
     84          1           0       -0.828310    7.032945   -0.195103
     85          1           0       -7.993677    4.347747   -0.622862
     86          1           0       -9.282278    2.224784    1.131974
     87          1           0       -7.173574    4.859659    1.909387
     88          1           0       -8.841152    4.282997    2.033578
     89          1           0       -8.409539    5.608173    0.823477
     90          1           0       -9.703619    1.326102   -1.364184
     91          1           0       -9.460924    3.030384   -1.765395
     92          1           0      -11.086975    3.549157    0.228828
     93          1           0      -11.865925    2.116248   -0.251653
     94          1           0      -11.529088    3.419473   -1.464866
     95          1           0       -9.267249   -3.038643   -0.802587
     96          1           0       -9.567462   -2.748220    0.891066
     97          1           0       -8.729458   -4.261737    0.396663
     98          1           0       -3.553351   -4.507079   -0.862862
     99          1           0       -0.693621   -5.909707    2.208088
    100          1           0       -1.140263   -7.312264    1.161868
    101          1           0       -2.046413   -6.829738    2.577948
    102          1           0        4.051217   -3.928229   -3.284305
    103          1           0        4.213605   -3.663333   -1.574554
    104          1           0        3.622175   -1.197908   -3.296147
    105          1           0        6.965758   -1.732765   -1.147497
    106          1           0        7.604251   -2.201329   -2.730995
    107          1           0        6.542871   -3.314731   -1.672632
    108          1           0        6.367899    0.439400   -2.263798
    109          1           0        5.173572    0.415843   -3.513182
    110          1           0        6.531857    0.342756   -5.101280
    111          1           0        6.905802   -1.225326   -4.727166
    112          1           0        8.958379    0.097298   -4.930003
    113          1           0        8.877955   -0.068866   -3.210912
    114          1           0        7.428005    2.375185   -3.579572
    115          1           0        8.118978    2.085376   -6.185644
    116          1           0        9.667620    2.666851   -5.485280
    117          1           0        8.125504    3.554344   -5.271957
    118          1           0        9.616543    3.413433   -2.959374
    119          1           0       10.192248    1.701957   -2.937760
    120          1           0        7.855092    1.722378   -1.279571
    121          1           0        8.902208    3.164969   -0.895528
    122          1           0       10.776018    1.740830   -0.350024
    123          1           0       10.102672    0.363360   -1.104762
    124          1           0        8.323704    1.380836    1.046971
    125          1           0        9.663532   -1.075311    1.899941
    126          1           0        9.459344   -1.106710    0.133328
    127          1           0        8.042643   -0.975717    1.175008
    128          1           0       10.361115    2.643925    1.668289
    129          1           0       10.927444    1.011271    2.178682
    130          1           0        8.352121    1.204558    3.380232
    131          1           0        9.045072    2.756730    3.709566
    132          1           0       10.817619    1.880329    4.958160
    133          1           0       10.822739    0.310615    4.157807
    134          1           0        8.366439    0.988193    5.774609
    135          1           0       10.780639    1.265535    6.938754
    136          1           0       10.498190   -0.438366    7.088508
    137          1           0        9.343052    0.592769    7.846922
    138          1           0        9.201666   -1.729822    5.853096
    139          1           0        9.524803   -1.252296    4.267548
    140          1           0        7.830673   -1.013749    5.038238
 ---------------------------------------------------------------------

 SCF Done:  E(RZINDO/S) =  -474.140803828     A.U. after   19 cycles

 Excitation energies and oscillator strengths:

 Excited State   1:      Singlet-A      1.2354 eV 1003.62 nm  f=0.5889  <S**2>=0.000
     175 ->178        -0.18881
     176 ->177         0.66308
 This state for optimization and/or second-order correction.
 Total Energy, E(CIS/TDA) =  -474.095404642
 Copying the excited state density for this state as the 1-particle RhoCI density.

 Excited State   2:      Singlet-A      1.9266 eV  643.55 nm  f=0.0269  <S**2>=0.000
     175 ->177         0.53012
     176 ->178         0.44166

 Excited State   3:      Singlet-A      2.9192 eV  424.72 nm  f=0.6155  <S**2>=0.000
     175 ->177        -0.30868
     176 ->178         0.42944
     176 ->179         0.36904
     176 ->180         0.16502
     176 ->182         0.10303

 Excited State   4:      Singlet-A      2.9871 eV  415.07 nm  f=0.0008  <S**2>=0.000
     168 ->177         0.27086
     168 ->179        -0.45673
     168 ->180         0.30657
     168 ->186        -0.22379
     168 ->187         0.13156

 Excited State   5:      Singlet-A      3.0169 eV  410.96 nm  f=0.0386  <S**2>=0.000
     169 ->177         0.27882
     169 ->178         0.19022
     169 ->179         0.27136
     169 ->180         0.34131
     169 ->186         0.17085
     169 ->187         0.13382
     170 ->177         0.12870
     170 ->179         0.11793
     170 ->180         0.14078

 The electronic state is 1-A.
 Alpha  occ. eigenvalues --   -1.82782  -1.81554  -1.79639  -1.73856  -1.71597
 Alpha  occ. eigenvalues --   -1.70338  -1.66194  -1.61433  -1.57620  -1.57485
 Alpha  occ. eigenvalues --   -1.55052  -1.50811  -1.48645  -1.47289  -1.46318
 Alpha  occ. eigenvalues --   -1.45726  -1.44557  -1.40509  -1.39705  -1.38141
 Alpha  occ. eigenvalues --   -1.35934  -1.32783  -1.32185  -1.30945  -1.28376
 Alpha  occ. eigenvalues --   -1.26836  -1.24659  -1.21853  -1.20690  -1.18576
 Alpha  occ. eigenvalues --   -1.17162  -1.16039  -1.15924  -1.14620  -1.13435
 Alpha  occ. eigenvalues --   -1.12955  -1.10957  -1.09737  -1.04663  -1.03710
 Alpha  occ. eigenvalues --   -1.02520  -1.01048  -0.99678  -0.97804  -0.96737
 Alpha  occ. eigenvalues --   -0.95160  -0.94817  -0.94444  -0.93441  -0.92649
 Alpha  occ. eigenvalues --   -0.91587  -0.91051  -0.88875  -0.87918  -0.86143
 Alpha  occ. eigenvalues --   -0.85054  -0.84267  -0.83347  -0.82913  -0.80577
 Alpha  occ. eigenvalues --   -0.80182  -0.79550  -0.77602  -0.76719  -0.76238
 Alpha  occ. eigenvalues --   -0.75459  -0.75372  -0.74874  -0.73921  -0.73397
 Alpha  occ. eigenvalues --   -0.72765  -0.72570  -0.71373  -0.70700  -0.70329
 Alpha  occ. eigenvalues --   -0.70175  -0.69525  -0.68578  -0.68134  -0.67723
 Alpha  occ. eigenvalues --   -0.67485  -0.66503  -0.66263  -0.65990  -0.65559
 Alpha  occ. eigenvalues --   -0.65087  -0.64497  -0.64235  -0.64018  -0.63404
 Alpha  occ. eigenvalues --   -0.63333  -0.62479  -0.62349  -0.62263  -0.61989
 Alpha  occ. eigenvalues --   -0.61558  -0.61349  -0.60884  -0.60255  -0.60171
 Alpha  occ. eigenvalues --   -0.60130  -0.59074  -0.58985  -0.58253  -0.58177
 Alpha  occ. eigenvalues --   -0.57881  -0.57648  -0.57355  -0.56608  -0.56425
 Alpha  occ. eigenvalues --   -0.56172  -0.55224  -0.55108  -0.55055  -0.54839
 Alpha  occ. eigenvalues --   -0.53981  -0.53965  -0.53671  -0.53449  -0.53292
 Alpha  occ. eigenvalues --   -0.52948  -0.52560  -0.52242  -0.52123  -0.51865
 Alpha  occ. eigenvalues --   -0.51345  -0.50939  -0.50803  -0.50682  -0.50469
 Alpha  occ. eigenvalues --   -0.50171  -0.50079  -0.49856  -0.49351  -0.49092
 Alpha  occ. eigenvalues --   -0.48967  -0.48719  -0.48576  -0.48213  -0.48013
 Alpha  occ. eigenvalues --   -0.47689  -0.47104  -0.46980  -0.46869  -0.46513
 Alpha  occ. eigenvalues --   -0.46060  -0.45992  -0.45653  -0.45634  -0.45434
 Alpha  occ. eigenvalues --   -0.45124  -0.45013  -0.44985  -0.44485  -0.44325
 Alpha  occ. eigenvalues --   -0.44218  -0.44044  -0.43749  -0.43279  -0.42701
 Alpha  occ. eigenvalues --   -0.42411  -0.41821  -0.41761  -0.39278  -0.39142
 Alpha  occ. eigenvalues --   -0.38032  -0.37749  -0.36009  -0.35054  -0.34520
 Alpha  occ. eigenvalues --   -0.33398  -0.32807  -0.32188  -0.31146  -0.26668
 Alpha  occ. eigenvalues --   -0.21631
 Alpha virt. eigenvalues --   -0.08413  -0.02191  -0.00532   0.01108   0.02281
 Alpha virt. eigenvalues --    0.02554   0.02727   0.03529   0.04356   0.04741
 Alpha virt. eigenvalues --    0.05996   0.06560   0.07057   0.07433   0.08023

 Mulliken charges:
               1
     1  Mg   0.425949
     2  C   -0.031322
     3  C   -0.076314
     4  C   -0.083885
     5  C   -0.068480
     6  N   -0.270338
     7  C    0.086827
     8  C    0.020193
     9  C    0.004239
    10  C    0.141316
    11  C   -0.053574
    12  C   -0.009270
    13  C    0.001607
    14  C    0.468639
    15  O   -0.494485
    16  O   -0.277941
    17  N   -0.325117
    18  C    0.120937
    19  C    0.024427
    20  C   -0.053756
    21  C    0.159069
    22  C   -0.046845
    23  C    0.326803
    24  O   -0.526881
    25  C   -0.029736
    26  N   -0.300581
    27  C    0.158023
    28  C    0.005059
    29  C    0.005602
    30  C    0.107895
    31  C   -0.057078
    32  C   -0.027498
    33  C   -0.058885
    34  N   -0.303522
    35  C    0.087998
    36  C    0.015325
    37  C   -0.042710
    38  C    0.097205
    39  C   -0.030746
    40  C    0.334547
    41  O   -0.513366
    42  C    0.051841
    43  C    0.478476
    44  O   -0.494145
    45  O   -0.273531
    46  C    0.072353
    47  C    0.101178
    48  C   -0.110901
    49  C   -0.016781
    50  C   -0.045677
    51  C   -0.020484
    52  C   -0.028013
    53  C   -0.019206
    54  C   -0.014899
    55  C   -0.060247
    56  C   -0.038599
    57  C   -0.032701
    58  C   -0.033788
    59  C   -0.027456
    60  C   -0.067793
    61  C   -0.035925
    62  C   -0.039402
    63  C   -0.040597
    64  C   -0.021720
    65  C   -0.065102
    66  C   -0.057010
    67  H    0.021490
    68  H    0.040007
    69  H    0.012961
    70  H    0.038620
    71  H    0.033267
    72  H    0.024249
    73  H    0.022910
    74  H    0.019988
    75  H    0.028441
    76  H    0.020197
    77  H    0.033216
    78  H    0.032962
    79  H    0.025582
    80  H    0.023352
    81  H    0.034601
    82  H    0.034745
    83  H    0.044900
    84  H    0.039755
    85  H    0.032289
    86  H    0.038580
    87  H    0.026390
    88  H    0.023605
    89  H    0.028932
    90  H    0.028520
    91  H    0.020124
    92  H    0.014247
    93  H    0.022621
    94  H    0.019661
    95  H    0.030689
    96  H    0.032899
    97  H    0.037807
    98  H    0.055021
    99  H    0.038537
   100  H    0.027966
   101  H    0.051382
   102  H    0.034393
   103  H    0.067434
   104  H    0.035990
   105  H    0.025327
   106  H    0.037031
   107  H    0.030894
   108  H    0.027177
   109  H    0.012933
   110  H    0.006501
   111  H    0.024059
   112  H    0.012306
   113  H    0.017840
   114  H    0.018839
   115  H    0.024295
   116  H    0.021583
   117  H    0.011030
   118  H    0.018746
   119  H    0.018020
   120  H    0.030746
   121  H    0.021933
   122  H    0.016052
   123  H    0.022104
   124  H    0.013718
   125  H    0.025990
   126  H    0.016318
   127  H    0.023500
   128  H    0.021189
   129  H    0.018933
   130  H    0.022445
   131  H    0.023083
   132  H    0.018136
   133  H    0.024162
   134  H    0.014227
   135  H    0.020636
   136  H    0.008765
   137  H    0.023871
   138  H    0.011602
   139  H    0.025164
   140  H    0.023320
 Sum of Mulliken charges =  -0.00000

 Dipole moment (field-independent basis, Debye):
    X=              7.0851    Y=              4.3137    Z=             -2.6437  Tot=              8.7061
 N-N= 4.395054060165D+03 E-N= 0.000000000000D+00  KE=-9.464030695810D+03
 Leave Link  601 at Wed May  4 16:48:19 2022, MaxMem=  6710886400 cpu:               0.8 elap:               0.0
 (Enter /sw/apps/gaussian-16.0/g16/l9999.exe)
 1\1\GINC-BP1-COMPUTE179\SP\RZINDO CIS\STO-3G\C55H74Mg1N4O6\OF15641\04-
 May-2022\0\\#p ZINDO=(nstates=5)\\step_1_chromophore_27 ZINDO\\0,1\Mg,
 0,-5.21,24.541,27.195\C,0,-3.541,26.384,29.693\C,0,-6.38,22.499,29.726
 \C,0,-6.783,22.591,24.876\C,0,-3.732,26.393,24.817\N,0,-5.009,24.475,2
 9.485\C,0,-4.393,25.403,30.316\C,0,-4.778,25.157,31.761\C,0,-5.38,23.7
 05,31.74\C,0,-5.612,23.568,30.252\C,0,-4.487,22.583,32.401\C,0,-5.828,
 26.148,32.285\C,0,-5.66,26.572,33.748\C,0,-5.928,25.52,34.86\O,0,-5.17

 Normal termination of Gaussian 16 at Wed May  4 16:48:19 2022.
