 Gaussian 16, Revision A.03,
 Gaussian 16:  ES64L-G16RevA.03 25-Dec-2016

 ------------------------------
 #p blyp/Def2SVP td=(nstates=5)
 ------------------------------

 ---------------------------------------------------
 step_1751_chromophore_18 TDDFT with blyp functional
 ---------------------------------------------------
 Symbolic Z-matrix:
 Charge =  0 Multiplicity = 1

                         Standard orientation:
 ---------------------------------------------------------------------
 Center     Atomic      Atomic             Coordinates (Angstroms)
 Number     Number       Type             X           Y           Z
 ---------------------------------------------------------------------
      1         12           0        5.175347    1.186477    0.338086
      2          6           0        4.487125   -2.290957    0.260936
      3          6           0        1.841381    1.749539    0.009860
      4          6           0        5.884517    4.391133   -0.067894
      5          6           0        8.582180    0.362237   -0.033880
      6          7           0        3.350790   -0.159248    0.212870
      7          6           0        3.275187   -1.513217    0.310421
      8          6           0        1.825816   -2.028815    0.338420
      9          6           0        1.020230   -0.715637    0.167627
     10          6           0        2.128434    0.359831   -0.002588
     11          6           0       -0.091652   -0.677782   -0.926852
     12          6           0        1.544540   -2.781498    1.633133
     13          6           0        0.794117   -4.104111    1.354633
     14          6           0       -0.124681   -4.234529    0.084023
     15          8           0        0.168853   -5.062655   -0.742444
     16          8           0       -1.280078   -3.476047    0.014567
     17          7           0        4.020004    2.900905    0.147236
     18          6           0        2.664333    2.927924    0.053130
     19          6           0        2.205158    4.331550    0.005010
     20          6           0        3.335137    5.016932   -0.275645
     21          6           0        4.524027    4.106947   -0.096452
     22          6           0        0.819699    4.773599    0.258673
     23          6           0        3.463357    6.478144   -0.749961
     24          8           0        4.546772    7.122011   -0.870188
     25          6           0        2.180473    7.260444   -0.920812
     26          7           0        7.041906    2.237305    0.117873
     27          6           0        7.071538    3.599863    0.051431
     28          6           0        8.519263    4.081633   -0.073645
     29          6           0        9.334213    2.811046   -0.152140
     30          6           0        8.277987    1.688327    0.065821
     31          6           0        8.815912    5.038553   -1.249340
     32          6           0       10.560339    2.707227    0.824357
     33          6           0       10.080889    2.555372    2.316802
     34          7           0        6.368076   -0.610537    0.115309
     35          6           0        7.762781   -0.787562    0.023071
     36          6           0        8.093603   -2.216803    0.052366
     37          6           0        6.802884   -2.804338    0.209206
     38          6           0        5.806828   -1.798390    0.208403
     39          6           0        9.446442   -2.770069   -0.136927
     40          6           0        6.197761   -4.137663    0.334843
     41          8           0        6.709982   -5.234723    0.422265
     42          6           0        4.615118   -3.832328    0.330495
     43          6           0        4.022086   -4.599068   -0.871164
     44          8           0        3.514847   -4.149087   -1.941278
     45          8           0        3.995356   -5.938158   -0.522407
     46          6           0        3.386652   -6.784092   -1.561879
     47          6           0       -2.047071   -3.751336   -1.230971
     48          6           0       -3.238186   -2.858438   -1.171996
     49          6           0       -4.554047   -3.275101   -1.026094
     50          6           0       -4.837358   -4.719223   -0.564912
     51          6           0       -5.766081   -2.266696   -0.969231
     52          6           0       -6.017468   -1.778465    0.500463
     53          6           0       -6.730778   -0.436965    0.436319
     54          6           0       -8.107299   -0.344848    1.334734
     55          6           0       -7.721760   -0.641687    2.800283
     56          6           0       -8.852155    0.950375    1.016951
     57          6           0      -10.255620    0.664407    0.513359
     58          6           0      -11.249715    0.270903    1.611373
     59          6           0      -12.636246    0.920229    1.361293
     60          6           0      -13.320294    1.355048    2.598504
     61          6           0      -13.489338    0.018779    0.404106
     62          6           0      -13.114170    0.404361   -1.063472
     63          6           0      -14.263678    1.086469   -1.809732
     64          6           0      -14.511414    2.577745   -1.337201
     65          6           0      -15.693217    2.706916   -0.402389
     66          6           0      -14.366252    3.748662   -2.343691
     67          1           0        0.773785    1.954178   -0.095405
     68          1           0        6.041262    5.422169   -0.394030
     69          1           0        9.614709    0.038062   -0.178517
     70          1           0        1.748069   -2.658627   -0.548051
     71          1           0        0.553530   -0.536290    1.136018
     72          1           0       -0.205066   -1.527770   -1.600165
     73          1           0        0.176901    0.153231   -1.578385
     74          1           0       -1.054563   -0.410254   -0.491089
     75          1           0        0.977497   -2.218394    2.374079
     76          1           0        2.502236   -3.088281    2.054115
     77          1           0        0.170935   -4.267910    2.233705
     78          1           0        1.538430   -4.892207    1.473626
     79          1           0        0.354046    5.084939   -0.676903
     80          1           0        0.703808    5.558443    1.005915
     81          1           0        0.293788    4.002394    0.820143
     82          1           0        1.652042    6.792949   -1.752148
     83          1           0        2.490666    8.174080   -1.428062
     84          1           0        1.499080    7.366457   -0.076305
     85          1           0        8.784180    4.484993    0.903708
     86          1           0        9.702564    2.594501   -1.154307
     87          1           0        8.730724    6.065420   -0.891815
     88          1           0        8.015941    4.794671   -1.948490
     89          1           0        9.776113    4.750559   -1.676226
     90          1           0       11.161316    3.615767    0.774890
     91          1           0       11.291501    1.954881    0.526776
     92          1           0        9.415890    1.701649    2.448203
     93          1           0        9.446191    3.413235    2.541492
     94          1           0       10.946060    2.581478    2.978750
     95          1           0        9.632185   -2.802926   -1.209568
     96          1           0        9.444341   -3.780905    0.272744
     97          1           0       10.164304   -2.126396    0.371117
     98          1           0        4.131742   -4.260168    1.209916
     99          1           0        4.079990   -6.846735   -2.401769
    100          1           0        2.431711   -6.434166   -1.953637
    101          1           0        3.260585   -7.761067   -1.095207
    102          1           0       -2.400732   -4.758384   -1.452395
    103          1           0       -1.453196   -3.462999   -2.097729
    104          1           0       -3.084002   -1.909707   -1.686298
    105          1           0       -5.381654   -5.385751   -1.234305
    106          1           0       -5.495340   -4.531713    0.283238
    107          1           0       -3.993020   -5.275017   -0.157837
    108          1           0       -6.622971   -2.888605   -1.226109
    109          1           0       -5.487517   -1.436105   -1.618004
    110          1           0       -5.016611   -1.733040    0.931835
    111          1           0       -6.596024   -2.444507    1.140738
    112          1           0       -6.966712   -0.132764   -0.583574
    113          1           0       -5.941553    0.251841    0.738000
    114          1           0       -8.664457   -1.272647    1.202680
    115          1           0       -8.284536   -0.042741    3.516007
    116          1           0       -6.674076   -0.491523    3.060369
    117          1           0       -7.892449   -1.709262    2.936539
    118          1           0       -8.310509    1.577604    0.308932
    119          1           0       -9.010404    1.490285    1.949995
    120          1           0      -10.210582   -0.176226   -0.178888
    121          1           0      -10.445456    1.526466   -0.127362
    122          1           0      -10.881545    0.437495    2.623672
    123          1           0      -11.471784   -0.796112    1.631850
    124          1           0      -12.447593    1.839331    0.806555
    125          1           0      -13.139111    2.425580    2.694298
    126          1           0      -12.790064    0.921931    3.446411
    127          1           0      -14.334110    0.965642    2.700866
    128          1           0      -14.542218    0.215043    0.605186
    129          1           0      -13.152736   -1.009426    0.541226
    130          1           0      -12.938009   -0.521522   -1.611677
    131          1           0      -12.228681    1.038902   -1.078071
    132          1           0      -15.164660    0.475764   -1.739618
    133          1           0      -13.961014    1.243325   -2.844803
    134          1           0      -13.647086    2.830807   -0.722277
    135          1           0      -16.533977    3.046818   -1.005553
    136          1           0      -15.376373    3.319097    0.442426
    137          1           0      -15.952003    1.703474   -0.064969
    138          1           0      -13.808974    3.444837   -3.229179
    139          1           0      -13.708449    4.512750   -1.929867
    140          1           0      -15.340911    4.144205   -2.628644
 ---------------------------------------------------------------------

 SCF Done:  E(RB-LYP) =  -3007.36529279     A.U. after   21 cycles

 Excitation energies and oscillator strengths:

 Excited State   1:      Singlet-A      1.8259 eV  679.03 nm  f=0.3012  <S**2>=0.000
     245 -> 248        0.16361
     245 -> 249        0.13304
     246 -> 247        0.67792
     246 <- 247       -0.13471
 This state for optimization and/or second-order correction.
 Total Energy, E(TD-HF/TD-DFT) =  -3007.29819253
 Copying the excited state density for this state as the 1-particle RhoCI density.

 Excited State   2:      Singlet-A      1.9852 eV  624.53 nm  f=0.0568  <S**2>=0.000
     244 -> 247       -0.27182
     245 -> 247        0.59752
     246 -> 248       -0.17607
     246 -> 249       -0.14547

 Excited State   3:      Singlet-A      2.0749 eV  597.53 nm  f=0.0111  <S**2>=0.000
     244 -> 247        0.64865
     245 -> 247        0.23923

 Excited State   4:      Singlet-A      2.1846 eV  567.54 nm  f=0.0004  <S**2>=0.000
     243 -> 247        0.70502

 Excited State   5:      Singlet-A      2.5251 eV  491.01 nm  f=0.0003  <S**2>=0.000
     241 -> 247        0.68918
     242 -> 247       -0.15340

 The electronic state is 1-A.
 Alpha  occ. eigenvalues --  -46.28019 -18.82639 -18.81245 -18.76940 -18.76158
 Alpha  occ. eigenvalues --  -18.76084 -18.75763 -14.03207 -14.02870 -14.01325
 Alpha  occ. eigenvalues --  -14.00211 -10.04319 -10.03508 -10.00477  -9.99479
 Alpha  occ. eigenvalues --   -9.97666  -9.96619  -9.96404  -9.96383  -9.96196
 Alpha  occ. eigenvalues --   -9.95983  -9.95761  -9.95640  -9.94925  -9.94399
 Alpha  occ. eigenvalues --   -9.94198  -9.94001  -9.93922  -9.93914  -9.93625
 Alpha  occ. eigenvalues --   -9.93591  -9.93508  -9.93454  -9.93410  -9.93401
 Alpha  occ. eigenvalues --   -9.93338  -9.93198  -9.93162  -9.92996  -9.92987
 Alpha  occ. eigenvalues --   -9.92927  -9.92631  -9.92578  -9.92299  -9.92217
 Alpha  occ. eigenvalues --   -9.92036  -9.92008  -9.91964  -9.91931  -9.91887
 Alpha  occ. eigenvalues --   -9.91868  -9.91859  -9.91771  -9.91417  -9.91357
 Alpha  occ. eigenvalues --   -9.91314  -9.91292  -9.91160  -9.91143  -9.91134
 Alpha  occ. eigenvalues --   -9.91013  -9.90980  -9.90947  -9.90847  -9.90642
 Alpha  occ. eigenvalues --   -9.90459  -2.92433  -1.72876  -1.72293  -1.72155
 Alpha  occ. eigenvalues --   -0.97952  -0.95680  -0.91391  -0.90238  -0.89741
 Alpha  occ. eigenvalues --   -0.87103  -0.86955  -0.86122  -0.85823  -0.84887
 Alpha  occ. eigenvalues --   -0.74155  -0.74021  -0.73302  -0.72976  -0.72415
 Alpha  occ. eigenvalues --   -0.72067  -0.72035  -0.70982  -0.70924  -0.70254
 Alpha  occ. eigenvalues --   -0.69890  -0.69090  -0.68265  -0.66810  -0.66700
 Alpha  occ. eigenvalues --   -0.66381  -0.65763  -0.65642  -0.64665  -0.64392
 Alpha  occ. eigenvalues --   -0.63989  -0.63049  -0.62215  -0.61306  -0.60528
 Alpha  occ. eigenvalues --   -0.60404  -0.60267  -0.59977  -0.59421  -0.59231
 Alpha  occ. eigenvalues --   -0.57616  -0.57347  -0.56600  -0.55505  -0.55186
 Alpha  occ. eigenvalues --   -0.54067  -0.53265  -0.52551  -0.52080  -0.51481
 Alpha  occ. eigenvalues --   -0.51293  -0.50929  -0.50321  -0.49988  -0.49870
 Alpha  occ. eigenvalues --   -0.49759  -0.49702  -0.48156  -0.47326  -0.47022
 Alpha  occ. eigenvalues --   -0.46411  -0.45573  -0.45352  -0.44990  -0.44000
 Alpha  occ. eigenvalues --   -0.43432  -0.43122  -0.42990  -0.42791  -0.42645
 Alpha  occ. eigenvalues --   -0.42388  -0.42079  -0.41689  -0.41243  -0.40921
 Alpha  occ. eigenvalues --   -0.40839  -0.40473  -0.40422  -0.40036  -0.39746
 Alpha  occ. eigenvalues --   -0.39535  -0.39454  -0.39322  -0.39257  -0.39068
 Alpha  occ. eigenvalues --   -0.38843  -0.38707  -0.38429  -0.38300  -0.38270
 Alpha  occ. eigenvalues --   -0.38224  -0.37938  -0.37565  -0.37347  -0.37140
 Alpha  occ. eigenvalues --   -0.36924  -0.36856  -0.36765  -0.36608  -0.36469
 Alpha  occ. eigenvalues --   -0.36151  -0.36060  -0.35943  -0.35601  -0.35483
 Alpha  occ. eigenvalues --   -0.35375  -0.35139  -0.34875  -0.34767  -0.34492
 Alpha  occ. eigenvalues --   -0.34357  -0.34260  -0.34208  -0.34179  -0.34009
 Alpha  occ. eigenvalues --   -0.33714  -0.33662  -0.33471  -0.33158  -0.33052
 Alpha  occ. eigenvalues --   -0.33025  -0.32850  -0.32837  -0.32549  -0.32383
 Alpha  occ. eigenvalues --   -0.32253  -0.31770  -0.31580  -0.31385  -0.31283
 Alpha  occ. eigenvalues --   -0.31245  -0.31132  -0.30942  -0.30728  -0.30633
 Alpha  occ. eigenvalues --   -0.30425  -0.30334  -0.30089  -0.29844  -0.29645
 Alpha  occ. eigenvalues --   -0.29519  -0.29323  -0.29263  -0.29165  -0.29101
 Alpha  occ. eigenvalues --   -0.28864  -0.28567  -0.28421  -0.28250  -0.28140
 Alpha  occ. eigenvalues --   -0.27823  -0.27659  -0.27027  -0.26634  -0.26120
 Alpha  occ. eigenvalues --   -0.25937  -0.25931  -0.25590  -0.25536  -0.25342
 Alpha  occ. eigenvalues --   -0.24954  -0.24304  -0.23852  -0.23671  -0.23524
 Alpha  occ. eigenvalues --   -0.23077  -0.22276  -0.22221  -0.21232  -0.20880
 Alpha  occ. eigenvalues --   -0.20290  -0.20008  -0.18909  -0.18461  -0.16858
 Alpha  occ. eigenvalues --   -0.15491
 Alpha virt. eigenvalues --   -0.11006  -0.07018  -0.06375  -0.04775  -0.03835
 Alpha virt. eigenvalues --   -0.02943  -0.02579  -0.02266  -0.00893   0.00086
 Alpha virt. eigenvalues --    0.01505   0.01788   0.01951   0.02298   0.02968

 Mulliken charges:
               1
     1  Mg   0.684245
     2  C    0.044643
     3  C   -0.060320
     4  C   -0.042000
     5  C   -0.049732
     6  N   -0.183398
     7  C   -0.128136
     8  C    0.037346
     9  C   -0.012294
    10  C    0.018595
    11  C    0.140202
    12  C    0.144129
    13  C    0.126145
    14  C    0.097232
    15  O   -0.179820
    16  O   -0.279210
    17  N   -0.264681
    18  C    0.107036
    19  C   -0.150046
    20  C    0.055503
    21  C    0.064613
    22  C    0.181252
    23  C   -0.062286
    24  O   -0.190633
    25  C    0.140114
    26  N   -0.213334
    27  C   -0.007266
    28  C    0.093771
    29  C   -0.022700
    30  C    0.037545
    31  C    0.148169
    32  C    0.078607
    33  C    0.056443
    34  N   -0.233200
    35  C    0.043522
    36  C   -0.154914
    37  C    0.039302
    38  C    0.095499
    39  C    0.179287
    40  C   -0.031957
    41  O   -0.107925
    42  C   -0.049372
    43  C    0.158265
    44  O   -0.225603
    45  O   -0.268591
    46  C    0.225803
    47  C    0.291196
    48  C   -0.078408
    49  C   -0.160511
    50  C    0.105991
    51  C    0.133151
    52  C    0.056888
    53  C    0.071540
    54  C   -0.084263
    55  C    0.090808
    56  C    0.173238
    57  C    0.036441
    58  C    0.130707
    59  C   -0.155793
    60  C    0.160947
    61  C    0.140131
    62  C    0.044863
    63  C    0.133401
    64  C   -0.131782
    65  C    0.129363
    66  C    0.103748
    67  H   -0.066316
    68  H   -0.044413
    69  H   -0.075304
    70  H    0.012703
    71  H   -0.023118
    72  H   -0.005715
    73  H   -0.024120
    74  H   -0.008037
    75  H   -0.021482
    76  H   -0.018411
    77  H   -0.021948
    78  H   -0.005363
    79  H    0.009724
    80  H   -0.000724
    81  H   -0.011491
    82  H   -0.013400
    83  H   -0.014708
    84  H    0.025412
    85  H   -0.027972
    86  H   -0.027369
    87  H    0.010516
    88  H   -0.000266
    89  H   -0.003828
    90  H   -0.030121
    91  H   -0.021423
    92  H    0.010473
    93  H   -0.019260
    94  H   -0.002499
    95  H    0.013048
    96  H    0.009940
    97  H    0.001025
    98  H    0.011305
    99  H    0.004022
   100  H    0.029661
   101  H    0.006035
   102  H    0.003080
   103  H   -0.004183
   104  H   -0.028324
   105  H    0.006487
   106  H   -0.016643
   107  H    0.004385
   108  H   -0.022312
   109  H   -0.009575
   110  H   -0.021961
   111  H   -0.022508
   112  H   -0.025716
   113  H   -0.026310
   114  H   -0.030436
   115  H   -0.016011
   116  H   -0.021415
   117  H   -0.017147
   118  H   -0.036421
   119  H   -0.043158
   120  H   -0.028968
   121  H   -0.015038
   122  H   -0.037160
   123  H   -0.044106
   124  H   -0.028326
   125  H   -0.015700
   126  H   -0.043965
   127  H   -0.019505
   128  H   -0.032456
   129  H   -0.037432
   130  H   -0.039259
   131  H   -0.016532
   132  H   -0.032128
   133  H   -0.054122
   134  H   -0.043737
   135  H   -0.017356
   136  H   -0.007381
   137  H   -0.026027
   138  H   -0.028761
   139  H   -0.019064
   140  H   -0.012893
 Sum of Mulliken charges =  -0.00000

 Dipole moment (field-independent basis, Debye):
    X=             -4.5163    Y=              2.1874    Z=              2.3147  Tot=              5.5262
 Quadrupole moment (field-independent basis, Debye-Ang):
   XX=           -390.1107   YY=           -437.4256   ZZ=           -406.3751
   XY=             21.4769   XZ=              5.4935   YZ=              1.1331

 Normal termination of Gaussian 16 at Wed May  4 14:36:22 2022.
