 Gaussian 16, Revision A.03,
 Gaussian 16:  ES64L-G16RevA.03 25-Dec-2016

 -----------------------------------
 #p cam-b3lyp/Def2SVP td=(nstates=5)
 -----------------------------------

 --------------------------------------------------------
 step_1751_chromophore_18 TDDFT with cam-b3lyp functional
 --------------------------------------------------------
 Symbolic Z-matrix:
 Charge =  0 Multiplicity = 1

                         Standard orientation:
 ---------------------------------------------------------------------
 Center     Atomic      Atomic             Coordinates (Angstroms)
 Number     Number       Type             X           Y           Z
 ---------------------------------------------------------------------
      1         12           0        5.175347    1.186477    0.338086
      2          6           0        4.487125   -2.290957    0.260936
      3          6           0        1.841381    1.749539    0.009860
      4          6           0        5.884517    4.391133   -0.067894
      5          6           0        8.582180    0.362237   -0.033880
      6          7           0        3.350790   -0.159248    0.212870
      7          6           0        3.275187   -1.513217    0.310421
      8          6           0        1.825816   -2.028815    0.338420
      9          6           0        1.020230   -0.715637    0.167627
     10          6           0        2.128434    0.359831   -0.002588
     11          6           0       -0.091652   -0.677782   -0.926852
     12          6           0        1.544540   -2.781498    1.633133
     13          6           0        0.794117   -4.104111    1.354633
     14          6           0       -0.124681   -4.234529    0.084023
     15          8           0        0.168853   -5.062655   -0.742444
     16          8           0       -1.280078   -3.476047    0.014567
     17          7           0        4.020004    2.900905    0.147236
     18          6           0        2.664333    2.927924    0.053130
     19          6           0        2.205158    4.331550    0.005010
     20          6           0        3.335137    5.016932   -0.275645
     21          6           0        4.524027    4.106947   -0.096452
     22          6           0        0.819699    4.773599    0.258673
     23          6           0        3.463357    6.478144   -0.749961
     24          8           0        4.546772    7.122011   -0.870188
     25          6           0        2.180473    7.260444   -0.920812
     26          7           0        7.041906    2.237305    0.117873
     27          6           0        7.071538    3.599863    0.051431
     28          6           0        8.519263    4.081633   -0.073645
     29          6           0        9.334213    2.811046   -0.152140
     30          6           0        8.277987    1.688327    0.065821
     31          6           0        8.815912    5.038553   -1.249340
     32          6           0       10.560339    2.707227    0.824357
     33          6           0       10.080889    2.555372    2.316802
     34          7           0        6.368076   -0.610537    0.115309
     35          6           0        7.762781   -0.787562    0.023071
     36          6           0        8.093603   -2.216803    0.052366
     37          6           0        6.802884   -2.804338    0.209206
     38          6           0        5.806828   -1.798390    0.208403
     39          6           0        9.446442   -2.770069   -0.136927
     40          6           0        6.197761   -4.137663    0.334843
     41          8           0        6.709982   -5.234723    0.422265
     42          6           0        4.615118   -3.832328    0.330495
     43          6           0        4.022086   -4.599068   -0.871164
     44          8           0        3.514847   -4.149087   -1.941278
     45          8           0        3.995356   -5.938158   -0.522407
     46          6           0        3.386652   -6.784092   -1.561879
     47          6           0       -2.047071   -3.751336   -1.230971
     48          6           0       -3.238186   -2.858438   -1.171996
     49          6           0       -4.554047   -3.275101   -1.026094
     50          6           0       -4.837358   -4.719223   -0.564912
     51          6           0       -5.766081   -2.266696   -0.969231
     52          6           0       -6.017468   -1.778465    0.500463
     53          6           0       -6.730778   -0.436965    0.436319
     54          6           0       -8.107299   -0.344848    1.334734
     55          6           0       -7.721760   -0.641687    2.800283
     56          6           0       -8.852155    0.950375    1.016951
     57          6           0      -10.255620    0.664407    0.513359
     58          6           0      -11.249715    0.270903    1.611373
     59          6           0      -12.636246    0.920229    1.361293
     60          6           0      -13.320294    1.355048    2.598504
     61          6           0      -13.489338    0.018779    0.404106
     62          6           0      -13.114170    0.404361   -1.063472
     63          6           0      -14.263678    1.086469   -1.809732
     64          6           0      -14.511414    2.577745   -1.337201
     65          6           0      -15.693217    2.706916   -0.402389
     66          6           0      -14.366252    3.748662   -2.343691
     67          1           0        0.773785    1.954178   -0.095405
     68          1           0        6.041262    5.422169   -0.394030
     69          1           0        9.614709    0.038062   -0.178517
     70          1           0        1.748069   -2.658627   -0.548051
     71          1           0        0.553530   -0.536290    1.136018
     72          1           0       -0.205066   -1.527770   -1.600165
     73          1           0        0.176901    0.153231   -1.578385
     74          1           0       -1.054563   -0.410254   -0.491089
     75          1           0        0.977497   -2.218394    2.374079
     76          1           0        2.502236   -3.088281    2.054115
     77          1           0        0.170935   -4.267910    2.233705
     78          1           0        1.538430   -4.892207    1.473626
     79          1           0        0.354046    5.084939   -0.676903
     80          1           0        0.703808    5.558443    1.005915
     81          1           0        0.293788    4.002394    0.820143
     82          1           0        1.652042    6.792949   -1.752148
     83          1           0        2.490666    8.174080   -1.428062
     84          1           0        1.499080    7.366457   -0.076305
     85          1           0        8.784180    4.484993    0.903708
     86          1           0        9.702564    2.594501   -1.154307
     87          1           0        8.730724    6.065420   -0.891815
     88          1           0        8.015941    4.794671   -1.948490
     89          1           0        9.776113    4.750559   -1.676226
     90          1           0       11.161316    3.615767    0.774890
     91          1           0       11.291501    1.954881    0.526776
     92          1           0        9.415890    1.701649    2.448203
     93          1           0        9.446191    3.413235    2.541492
     94          1           0       10.946060    2.581478    2.978750
     95          1           0        9.632185   -2.802926   -1.209568
     96          1           0        9.444341   -3.780905    0.272744
     97          1           0       10.164304   -2.126396    0.371117
     98          1           0        4.131742   -4.260168    1.209916
     99          1           0        4.079990   -6.846735   -2.401769
    100          1           0        2.431711   -6.434166   -1.953637
    101          1           0        3.260585   -7.761067   -1.095207
    102          1           0       -2.400732   -4.758384   -1.452395
    103          1           0       -1.453196   -3.462999   -2.097729
    104          1           0       -3.084002   -1.909707   -1.686298
    105          1           0       -5.381654   -5.385751   -1.234305
    106          1           0       -5.495340   -4.531713    0.283238
    107          1           0       -3.993020   -5.275017   -0.157837
    108          1           0       -6.622971   -2.888605   -1.226109
    109          1           0       -5.487517   -1.436105   -1.618004
    110          1           0       -5.016611   -1.733040    0.931835
    111          1           0       -6.596024   -2.444507    1.140738
    112          1           0       -6.966712   -0.132764   -0.583574
    113          1           0       -5.941553    0.251841    0.738000
    114          1           0       -8.664457   -1.272647    1.202680
    115          1           0       -8.284536   -0.042741    3.516007
    116          1           0       -6.674076   -0.491523    3.060369
    117          1           0       -7.892449   -1.709262    2.936539
    118          1           0       -8.310509    1.577604    0.308932
    119          1           0       -9.010404    1.490285    1.949995
    120          1           0      -10.210582   -0.176226   -0.178888
    121          1           0      -10.445456    1.526466   -0.127362
    122          1           0      -10.881545    0.437495    2.623672
    123          1           0      -11.471784   -0.796112    1.631850
    124          1           0      -12.447593    1.839331    0.806555
    125          1           0      -13.139111    2.425580    2.694298
    126          1           0      -12.790064    0.921931    3.446411
    127          1           0      -14.334110    0.965642    2.700866
    128          1           0      -14.542218    0.215043    0.605186
    129          1           0      -13.152736   -1.009426    0.541226
    130          1           0      -12.938009   -0.521522   -1.611677
    131          1           0      -12.228681    1.038902   -1.078071
    132          1           0      -15.164660    0.475764   -1.739618
    133          1           0      -13.961014    1.243325   -2.844803
    134          1           0      -13.647086    2.830807   -0.722277
    135          1           0      -16.533977    3.046818   -1.005553
    136          1           0      -15.376373    3.319097    0.442426
    137          1           0      -15.952003    1.703474   -0.064969
    138          1           0      -13.808974    3.444837   -3.229179
    139          1           0      -13.708449    4.512750   -1.929867
    140          1           0      -15.340911    4.144205   -2.628644
 ---------------------------------------------------------------------

 SCF Done:  E(RCAM-B3LYP) =  -3007.15540201     A.U. after   18 cycles

 Excitation energies and oscillator strengths:

 Excited State   1:      Singlet-A      1.7695 eV  700.67 nm  f=0.3743  <S**2>=0.000
     245 -> 248        0.19412
     246 -> 247        0.68034
     245 <- 248        0.10713
 This state for optimization and/or second-order correction.
 Total Energy, E(TD-HF/TD-DFT) =  -3007.09037361
 Copying the excited state density for this state as the 1-particle RhoCI density.

 Excited State   2:      Singlet-A      2.2532 eV  550.26 nm  f=0.0744  <S**2>=0.000
     245 -> 247        0.62185
     246 -> 248       -0.32374

 Excited State   3:      Singlet-A      3.4627 eV  358.05 nm  f=0.5565  <S**2>=0.000
     244 -> 247        0.27984
     245 -> 247        0.27909
     246 -> 248        0.57180

 Excited State   4:      Singlet-A      3.5409 eV  350.15 nm  f=0.0668  <S**2>=0.000
     240 -> 247       -0.23978
     240 -> 249        0.22084
     241 -> 247       -0.24150
     244 -> 247        0.49084
     246 -> 248       -0.14030

 Excited State   5:      Singlet-A      3.5789 eV  346.43 nm  f=0.0374  <S**2>=0.000
     239 -> 247       -0.11821
     239 -> 249        0.13833
     240 -> 247        0.28730
     240 -> 249       -0.23425
     241 -> 249       -0.10356
     243 -> 247        0.36502
     243 -> 249        0.13610
     243 -> 250        0.18561
     244 -> 247        0.25952

 The electronic state is 1-A.
 Alpha  occ. eigenvalues --  -46.89625 -19.25563 -19.24092 -19.19904 -19.19736
 Alpha  occ. eigenvalues --  -19.19109 -19.18693 -14.42082 -14.41700 -14.39933
 Alpha  occ. eigenvalues --  -14.38433 -10.39587 -10.39074 -10.36126 -10.34661
 Alpha  occ. eigenvalues --  -10.31836 -10.31291 -10.31048 -10.30927 -10.30752
 Alpha  occ. eigenvalues --  -10.30419 -10.29840 -10.29685 -10.28959 -10.28762
 Alpha  occ. eigenvalues --  -10.28734 -10.28599 -10.27984 -10.27880 -10.27793
 Alpha  occ. eigenvalues --  -10.27780 -10.27709 -10.27584 -10.27566 -10.27391
 Alpha  occ. eigenvalues --  -10.27234 -10.27219 -10.27212 -10.27068 -10.26953
 Alpha  occ. eigenvalues --  -10.26597 -10.26429 -10.26377 -10.26289 -10.25982
 Alpha  occ. eigenvalues --  -10.25906 -10.25892 -10.25842 -10.25743 -10.25693
 Alpha  occ. eigenvalues --  -10.25657 -10.25628 -10.25305 -10.25090 -10.25029
 Alpha  occ. eigenvalues --  -10.25006 -10.24959 -10.24843 -10.24831 -10.24790
 Alpha  occ. eigenvalues --  -10.24719 -10.24633 -10.24619 -10.24617 -10.24229
 Alpha  occ. eigenvalues --  -10.24011  -3.17933  -1.92856  -1.92362  -1.92241
 Alpha  occ. eigenvalues --   -1.16418  -1.14048  -1.09563  -1.08383  -1.08074
 Alpha  occ. eigenvalues --   -1.04921  -1.04853  -1.03817  -1.03419  -1.02204
 Alpha  occ. eigenvalues --   -0.91104  -0.90906  -0.90154  -0.89776  -0.89483
 Alpha  occ. eigenvalues --   -0.88787  -0.88675  -0.87572  -0.87559  -0.86809
 Alpha  occ. eigenvalues --   -0.86230  -0.85409  -0.84616  -0.82943  -0.82714
 Alpha  occ. eigenvalues --   -0.82485  -0.82074  -0.81721  -0.80535  -0.80139
 Alpha  occ. eigenvalues --   -0.79842  -0.78966  -0.77781  -0.76675  -0.75909
 Alpha  occ. eigenvalues --   -0.75781  -0.75604  -0.75253  -0.74635  -0.74511
 Alpha  occ. eigenvalues --   -0.72610  -0.72251  -0.71518  -0.70338  -0.69796
 Alpha  occ. eigenvalues --   -0.68667  -0.67976  -0.67032  -0.66483  -0.65730
 Alpha  occ. eigenvalues --   -0.65510  -0.64985  -0.64199  -0.63892  -0.63818
 Alpha  occ. eigenvalues --   -0.63754  -0.63534  -0.62003  -0.60988  -0.60870
 Alpha  occ. eigenvalues --   -0.60028  -0.59059  -0.58726  -0.58338  -0.57446
 Alpha  occ. eigenvalues --   -0.56750  -0.56442  -0.56300  -0.56022  -0.55653
 Alpha  occ. eigenvalues --   -0.55293  -0.54991  -0.54657  -0.54346  -0.53892
 Alpha  occ. eigenvalues --   -0.53708  -0.53412  -0.53026  -0.52928  -0.52538
 Alpha  occ. eigenvalues --   -0.52397  -0.52315  -0.52065  -0.51846  -0.51756
 Alpha  occ. eigenvalues --   -0.51497  -0.51209  -0.51023  -0.50778  -0.50648
 Alpha  occ. eigenvalues --   -0.50556  -0.50175  -0.49950  -0.49581  -0.49500
 Alpha  occ. eigenvalues --   -0.49403  -0.49039  -0.48963  -0.48833  -0.48625
 Alpha  occ. eigenvalues --   -0.48543  -0.48368  -0.48227  -0.48056  -0.47747
 Alpha  occ. eigenvalues --   -0.47532  -0.47276  -0.47248  -0.46686  -0.46479
 Alpha  occ. eigenvalues --   -0.46281  -0.46124  -0.45964  -0.45939  -0.45731
 Alpha  occ. eigenvalues --   -0.45496  -0.45467  -0.45184  -0.44913  -0.44675
 Alpha  occ. eigenvalues --   -0.44549  -0.44520  -0.44366  -0.44251  -0.44068
 Alpha  occ. eigenvalues --   -0.43824  -0.43532  -0.43324  -0.43017  -0.42922
 Alpha  occ. eigenvalues --   -0.42761  -0.42591  -0.42482  -0.42200  -0.42047
 Alpha  occ. eigenvalues --   -0.41886  -0.41717  -0.41670  -0.41389  -0.41264
 Alpha  occ. eigenvalues --   -0.40807  -0.40701  -0.40433  -0.40330  -0.40159
 Alpha  occ. eigenvalues --   -0.39919  -0.39622  -0.39365  -0.39286  -0.39156
 Alpha  occ. eigenvalues --   -0.38785  -0.38521  -0.37847  -0.37394  -0.37376
 Alpha  occ. eigenvalues --   -0.37033  -0.36615  -0.36601  -0.36203  -0.36098
 Alpha  occ. eigenvalues --   -0.35513  -0.35233  -0.34720  -0.34113  -0.34059
 Alpha  occ. eigenvalues --   -0.33985  -0.33275  -0.32741  -0.32204  -0.31366
 Alpha  occ. eigenvalues --   -0.30402  -0.30115  -0.29905  -0.29014  -0.23579
 Alpha  occ. eigenvalues --   -0.20701
 Alpha virt. eigenvalues --   -0.07868  -0.01755  -0.00176   0.02183   0.02494
 Alpha virt. eigenvalues --    0.03502   0.04788   0.05454   0.06232   0.06727
 Alpha virt. eigenvalues --    0.07961   0.08128   0.08557   0.08975   0.09436

 Mulliken charges:
               1
     1  Mg   0.814899
     2  C    0.021377
     3  C   -0.077979
     4  C   -0.065886
     5  C   -0.055587
     6  N   -0.253855
     7  C   -0.078145
     8  C   -0.027881
     9  C   -0.060164
    10  C    0.043068
    11  C    0.082391
    12  C    0.095592
    13  C    0.064091
    14  C    0.165107
    15  O   -0.219295
    16  O   -0.340467
    17  N   -0.354512
    18  C    0.118403
    19  C   -0.151031
    20  C   -0.011782
    21  C    0.095418
    22  C    0.115285
    23  C    0.021037
    24  O   -0.228660
    25  C    0.051581
    26  N   -0.285430
    27  C    0.023181
    28  C    0.028862
    29  C   -0.072749
    30  C    0.048981
    31  C    0.088213
    32  C    0.025494
    33  C   -0.002517
    34  N   -0.319505
    35  C    0.045081
    36  C   -0.150563
    37  C   -0.043428
    38  C    0.126700
    39  C    0.126557
    40  C    0.067658
    41  O   -0.147948
    42  C   -0.115880
    43  C    0.243346
    44  O   -0.263648
    45  O   -0.330119
    46  C    0.184517
    47  C    0.249246
    48  C   -0.089260
    49  C   -0.176565
    50  C    0.041751
    51  C    0.074793
    52  C    0.003251
    53  C    0.023415
    54  C   -0.137460
    55  C    0.033581
    56  C    0.114124
    57  C   -0.021631
    58  C    0.078953
    59  C   -0.206664
    60  C    0.097517
    61  C    0.084794
    62  C   -0.005993
    63  C    0.078515
    64  C   -0.194186
    65  C    0.072281
    66  C    0.049434
    67  H   -0.032482
    68  H   -0.005164
    69  H   -0.040280
    70  H    0.046341
    71  H    0.012441
    72  H    0.015997
    73  H    0.002543
    74  H    0.016428
    75  H    0.009820
    76  H    0.012402
    77  H    0.012401
    78  H    0.026559
    79  H    0.037850
    80  H    0.028732
    81  H    0.019166
    82  H    0.016793
    83  H    0.023434
    84  H    0.053634
    85  H    0.007022
    86  H    0.008515
    87  H    0.034077
    88  H    0.024371
    89  H    0.020969
    90  H   -0.001505
    91  H    0.006335
    92  H    0.033283
    93  H    0.001491
    94  H    0.021726
    95  H    0.038714
    96  H    0.036732
    97  H    0.023010
    98  H    0.049281
    99  H    0.027506
   100  H    0.053223
   101  H    0.029962
   102  H    0.033101
   103  H    0.025144
   104  H   -0.001119
   105  H    0.031874
   106  H    0.006113
   107  H    0.029470
   108  H    0.007013
   109  H    0.019374
   110  H    0.008301
   111  H    0.002568
   112  H    0.001212
   113  H    0.001341
   114  H   -0.000329
   115  H    0.007667
   116  H    0.003313
   117  H    0.005587
   118  H   -0.005576
   119  H   -0.013365
   120  H   -0.001212
   121  H    0.012101
   122  H   -0.009683
   123  H   -0.014753
   124  H    0.000080
   125  H    0.008755
   126  H   -0.017542
   127  H    0.005804
   128  H   -0.006567
   129  H   -0.007592
   130  H   -0.008416
   131  H    0.006972
   132  H   -0.002929
   133  H   -0.022940
   134  H   -0.013136
   135  H    0.006145
   136  H    0.015926
   137  H   -0.004330
   138  H   -0.004050
   139  H    0.004943
   140  H    0.009709
 Sum of Mulliken charges =  -0.00000

 Dipole moment (field-independent basis, Debye):
    X=             -5.2427    Y=              3.0819    Z=              2.2945  Tot=              6.4999
 Quadrupole moment (field-independent basis, Debye-Ang):
   XX=           -395.4157   YY=           -432.5917   ZZ=           -406.1878
   XY=             24.3505   XZ=              5.8080   YZ=              0.1037

 Normal termination of Gaussian 16 at Wed May  4 12:54:18 2022.
