 Gaussian 16, Revision A.03,
 Gaussian 16:  ES64L-G16RevA.03 25-Dec-2016

 ---------------------------------
 #p PBE1PBE/Def2SVP td=(nstates=5)
 ---------------------------------

 ------------------------------------------------------
 step_1751_chromophore_18 TDDFT with PBE1PBE functional
 ------------------------------------------------------
 Symbolic Z-matrix:
 Charge =  0 Multiplicity = 1

                         Standard orientation:
 ---------------------------------------------------------------------
 Center     Atomic      Atomic             Coordinates (Angstroms)
 Number     Number       Type             X           Y           Z
 ---------------------------------------------------------------------
      1         12           0        5.175347    1.186477    0.338086
      2          6           0        4.487125   -2.290957    0.260936
      3          6           0        1.841381    1.749539    0.009860
      4          6           0        5.884517    4.391133   -0.067894
      5          6           0        8.582180    0.362237   -0.033880
      6          7           0        3.350790   -0.159248    0.212870
      7          6           0        3.275187   -1.513217    0.310421
      8          6           0        1.825816   -2.028815    0.338420
      9          6           0        1.020230   -0.715637    0.167627
     10          6           0        2.128434    0.359831   -0.002588
     11          6           0       -0.091652   -0.677782   -0.926852
     12          6           0        1.544540   -2.781498    1.633133
     13          6           0        0.794117   -4.104111    1.354633
     14          6           0       -0.124681   -4.234529    0.084023
     15          8           0        0.168853   -5.062655   -0.742444
     16          8           0       -1.280078   -3.476047    0.014567
     17          7           0        4.020004    2.900905    0.147236
     18          6           0        2.664333    2.927924    0.053130
     19          6           0        2.205158    4.331550    0.005010
     20          6           0        3.335137    5.016932   -0.275645
     21          6           0        4.524027    4.106947   -0.096452
     22          6           0        0.819699    4.773599    0.258673
     23          6           0        3.463357    6.478144   -0.749961
     24          8           0        4.546772    7.122011   -0.870188
     25          6           0        2.180473    7.260444   -0.920812
     26          7           0        7.041906    2.237305    0.117873
     27          6           0        7.071538    3.599863    0.051431
     28          6           0        8.519263    4.081633   -0.073645
     29          6           0        9.334213    2.811046   -0.152140
     30          6           0        8.277987    1.688327    0.065821
     31          6           0        8.815912    5.038553   -1.249340
     32          6           0       10.560339    2.707227    0.824357
     33          6           0       10.080889    2.555372    2.316802
     34          7           0        6.368076   -0.610537    0.115309
     35          6           0        7.762781   -0.787562    0.023071
     36          6           0        8.093603   -2.216803    0.052366
     37          6           0        6.802884   -2.804338    0.209206
     38          6           0        5.806828   -1.798390    0.208403
     39          6           0        9.446442   -2.770069   -0.136927
     40          6           0        6.197761   -4.137663    0.334843
     41          8           0        6.709982   -5.234723    0.422265
     42          6           0        4.615118   -3.832328    0.330495
     43          6           0        4.022086   -4.599068   -0.871164
     44          8           0        3.514847   -4.149087   -1.941278
     45          8           0        3.995356   -5.938158   -0.522407
     46          6           0        3.386652   -6.784092   -1.561879
     47          6           0       -2.047071   -3.751336   -1.230971
     48          6           0       -3.238186   -2.858438   -1.171996
     49          6           0       -4.554047   -3.275101   -1.026094
     50          6           0       -4.837358   -4.719223   -0.564912
     51          6           0       -5.766081   -2.266696   -0.969231
     52          6           0       -6.017468   -1.778465    0.500463
     53          6           0       -6.730778   -0.436965    0.436319
     54          6           0       -8.107299   -0.344848    1.334734
     55          6           0       -7.721760   -0.641687    2.800283
     56          6           0       -8.852155    0.950375    1.016951
     57          6           0      -10.255620    0.664407    0.513359
     58          6           0      -11.249715    0.270903    1.611373
     59          6           0      -12.636246    0.920229    1.361293
     60          6           0      -13.320294    1.355048    2.598504
     61          6           0      -13.489338    0.018779    0.404106
     62          6           0      -13.114170    0.404361   -1.063472
     63          6           0      -14.263678    1.086469   -1.809732
     64          6           0      -14.511414    2.577745   -1.337201
     65          6           0      -15.693217    2.706916   -0.402389
     66          6           0      -14.366252    3.748662   -2.343691
     67          1           0        0.773785    1.954178   -0.095405
     68          1           0        6.041262    5.422169   -0.394030
     69          1           0        9.614709    0.038062   -0.178517
     70          1           0        1.748069   -2.658627   -0.548051
     71          1           0        0.553530   -0.536290    1.136018
     72          1           0       -0.205066   -1.527770   -1.600165
     73          1           0        0.176901    0.153231   -1.578385
     74          1           0       -1.054563   -0.410254   -0.491089
     75          1           0        0.977497   -2.218394    2.374079
     76          1           0        2.502236   -3.088281    2.054115
     77          1           0        0.170935   -4.267910    2.233705
     78          1           0        1.538430   -4.892207    1.473626
     79          1           0        0.354046    5.084939   -0.676903
     80          1           0        0.703808    5.558443    1.005915
     81          1           0        0.293788    4.002394    0.820143
     82          1           0        1.652042    6.792949   -1.752148
     83          1           0        2.490666    8.174080   -1.428062
     84          1           0        1.499080    7.366457   -0.076305
     85          1           0        8.784180    4.484993    0.903708
     86          1           0        9.702564    2.594501   -1.154307
     87          1           0        8.730724    6.065420   -0.891815
     88          1           0        8.015941    4.794671   -1.948490
     89          1           0        9.776113    4.750559   -1.676226
     90          1           0       11.161316    3.615767    0.774890
     91          1           0       11.291501    1.954881    0.526776
     92          1           0        9.415890    1.701649    2.448203
     93          1           0        9.446191    3.413235    2.541492
     94          1           0       10.946060    2.581478    2.978750
     95          1           0        9.632185   -2.802926   -1.209568
     96          1           0        9.444341   -3.780905    0.272744
     97          1           0       10.164304   -2.126396    0.371117
     98          1           0        4.131742   -4.260168    1.209916
     99          1           0        4.079990   -6.846735   -2.401769
    100          1           0        2.431711   -6.434166   -1.953637
    101          1           0        3.260585   -7.761067   -1.095207
    102          1           0       -2.400732   -4.758384   -1.452395
    103          1           0       -1.453196   -3.462999   -2.097729
    104          1           0       -3.084002   -1.909707   -1.686298
    105          1           0       -5.381654   -5.385751   -1.234305
    106          1           0       -5.495340   -4.531713    0.283238
    107          1           0       -3.993020   -5.275017   -0.157837
    108          1           0       -6.622971   -2.888605   -1.226109
    109          1           0       -5.487517   -1.436105   -1.618004
    110          1           0       -5.016611   -1.733040    0.931835
    111          1           0       -6.596024   -2.444507    1.140738
    112          1           0       -6.966712   -0.132764   -0.583574
    113          1           0       -5.941553    0.251841    0.738000
    114          1           0       -8.664457   -1.272647    1.202680
    115          1           0       -8.284536   -0.042741    3.516007
    116          1           0       -6.674076   -0.491523    3.060369
    117          1           0       -7.892449   -1.709262    2.936539
    118          1           0       -8.310509    1.577604    0.308932
    119          1           0       -9.010404    1.490285    1.949995
    120          1           0      -10.210582   -0.176226   -0.178888
    121          1           0      -10.445456    1.526466   -0.127362
    122          1           0      -10.881545    0.437495    2.623672
    123          1           0      -11.471784   -0.796112    1.631850
    124          1           0      -12.447593    1.839331    0.806555
    125          1           0      -13.139111    2.425580    2.694298
    126          1           0      -12.790064    0.921931    3.446411
    127          1           0      -14.334110    0.965642    2.700866
    128          1           0      -14.542218    0.215043    0.605186
    129          1           0      -13.152736   -1.009426    0.541226
    130          1           0      -12.938009   -0.521522   -1.611677
    131          1           0      -12.228681    1.038902   -1.078071
    132          1           0      -15.164660    0.475764   -1.739618
    133          1           0      -13.961014    1.243325   -2.844803
    134          1           0      -13.647086    2.830807   -0.722277
    135          1           0      -16.533977    3.046818   -1.005553
    136          1           0      -15.376373    3.319097    0.442426
    137          1           0      -15.952003    1.703474   -0.064969
    138          1           0      -13.808974    3.444837   -3.229179
    139          1           0      -13.708449    4.512750   -1.929867
    140          1           0      -15.340911    4.144205   -2.628644
 ---------------------------------------------------------------------

 SCF Done:  E(RPBE1PBE) =  -3005.34458124     A.U. after   15 cycles

 Excitation energies and oscillator strengths:

 Excited State   1:      Singlet-A      1.9007 eV  652.31 nm  f=0.3690  <S**2>=0.000
     245 -> 248        0.18064
     246 -> 247        0.68687
 This state for optimization and/or second-order correction.
 Total Energy, E(TD-HF/TD-DFT) =  -3005.27473167
 Copying the excited state density for this state as the 1-particle RhoCI density.

 Excited State   2:      Singlet-A      2.2473 eV  551.69 nm  f=0.0792  <S**2>=0.000
     245 -> 247        0.64006
     246 -> 248       -0.27944

 Excited State   3:      Singlet-A      3.0704 eV  403.80 nm  f=0.0025  <S**2>=0.000
     243 -> 247        0.60840
     243 -> 249        0.12996
     243 -> 250        0.12646
     244 -> 247        0.28161

 Excited State   4:      Singlet-A      3.1452 eV  394.20 nm  f=0.0215  <S**2>=0.000
     241 -> 247       -0.13027
     243 -> 247       -0.24005
     244 -> 247        0.56515
     246 -> 248        0.27737
     246 -> 249        0.11348

 Excited State   5:      Singlet-A      3.2035 eV  387.02 nm  f=0.0526  <S**2>=0.000
     240 -> 247        0.26257
     240 -> 249       -0.11475
     241 -> 247        0.44122
     241 -> 249       -0.15481
     246 -> 248        0.31673
     246 -> 249        0.22262

 The electronic state is 1-A.
 Alpha  occ. eigenvalues --  -46.93016 -19.26218 -19.24794 -19.20172 -19.19778
 Alpha  occ. eigenvalues --  -19.19418 -19.19080 -14.41573 -14.41226 -14.39467
 Alpha  occ. eigenvalues --  -14.38195 -10.36665 -10.36163 -10.33095 -10.31960
 Alpha  occ. eigenvalues --  -10.29236 -10.28908 -10.28644 -10.28632 -10.28396
 Alpha  occ. eigenvalues --  -10.27898 -10.27622 -10.27108 -10.26797 -10.26464
 Alpha  occ. eigenvalues --  -10.26333 -10.26329 -10.25745 -10.25735 -10.25608
 Alpha  occ. eigenvalues --  -10.25497 -10.25234 -10.25221 -10.25098 -10.25045
 Alpha  occ. eigenvalues --  -10.24866 -10.24863 -10.24846 -10.24833 -10.24820
 Alpha  occ. eigenvalues --  -10.24299 -10.24175 -10.23698 -10.23618 -10.23602
 Alpha  occ. eigenvalues --  -10.23515 -10.23496 -10.23439 -10.23326 -10.23286
 Alpha  occ. eigenvalues --  -10.23124 -10.23095 -10.22801 -10.22701 -10.22675
 Alpha  occ. eigenvalues --  -10.22606 -10.22569 -10.22543 -10.22525 -10.22436
 Alpha  occ. eigenvalues --  -10.22276 -10.22203 -10.22190 -10.22003 -10.21591
 Alpha  occ. eigenvalues --  -10.21382  -3.14911  -1.87774  -1.87258  -1.87140
 Alpha  occ. eigenvalues --   -1.11214  -1.08854  -1.04472  -1.02949  -1.02894
 Alpha  occ. eigenvalues --   -0.99743  -0.99411  -0.98449  -0.98072  -0.97035
 Alpha  occ. eigenvalues --   -0.85517  -0.84993  -0.84302  -0.83992  -0.83598
 Alpha  occ. eigenvalues --   -0.82976  -0.82901  -0.81894  -0.81693  -0.81130
 Alpha  occ. eigenvalues --   -0.80685  -0.79602  -0.78841  -0.77184  -0.77051
 Alpha  occ. eigenvalues --   -0.76686  -0.76119  -0.75878  -0.74802  -0.74404
 Alpha  occ. eigenvalues --   -0.74131  -0.73175  -0.72113  -0.71058  -0.70028
 Alpha  occ. eigenvalues --   -0.69890  -0.69784  -0.69618  -0.68996  -0.68681
 Alpha  occ. eigenvalues --   -0.66945  -0.66746  -0.65949  -0.64624  -0.64148
 Alpha  occ. eigenvalues --   -0.62895  -0.62356  -0.61519  -0.60688  -0.60120
 Alpha  occ. eigenvalues --   -0.59725  -0.59575  -0.58694  -0.58402  -0.58095
 Alpha  occ. eigenvalues --   -0.58032  -0.57896  -0.56218  -0.55599  -0.55291
 Alpha  occ. eigenvalues --   -0.54432  -0.53625  -0.53342  -0.53010  -0.52074
 Alpha  occ. eigenvalues --   -0.51154  -0.50869  -0.50780  -0.50560  -0.50157
 Alpha  occ. eigenvalues --   -0.49772  -0.49482  -0.49174  -0.48873  -0.48415
 Alpha  occ. eigenvalues --   -0.48242  -0.47614  -0.47557  -0.47451  -0.47208
 Alpha  occ. eigenvalues --   -0.47056  -0.46847  -0.46565  -0.46412  -0.46262
 Alpha  occ. eigenvalues --   -0.45964  -0.45674  -0.45517  -0.45338  -0.45213
 Alpha  occ. eigenvalues --   -0.45170  -0.44728  -0.44667  -0.44148  -0.44132
 Alpha  occ. eigenvalues --   -0.43959  -0.43581  -0.43534  -0.43446  -0.43240
 Alpha  occ. eigenvalues --   -0.43178  -0.42989  -0.42827  -0.42680  -0.42321
 Alpha  occ. eigenvalues --   -0.42093  -0.41935  -0.41909  -0.41358  -0.41096
 Alpha  occ. eigenvalues --   -0.40959  -0.40814  -0.40591  -0.40526  -0.40451
 Alpha  occ. eigenvalues --   -0.40294  -0.40264  -0.39973  -0.39712  -0.39551
 Alpha  occ. eigenvalues --   -0.39296  -0.39240  -0.39126  -0.39032  -0.38835
 Alpha  occ. eigenvalues --   -0.38621  -0.38325  -0.38119  -0.37851  -0.37577
 Alpha  occ. eigenvalues --   -0.37515  -0.37333  -0.37263  -0.36990  -0.36849
 Alpha  occ. eigenvalues --   -0.36769  -0.36510  -0.36315  -0.36249  -0.36119
 Alpha  occ. eigenvalues --   -0.35586  -0.35521  -0.35394  -0.35127  -0.35021
 Alpha  occ. eigenvalues --   -0.34866  -0.34593  -0.34231  -0.34136  -0.33941
 Alpha  occ. eigenvalues --   -0.33743  -0.33327  -0.32624  -0.32393  -0.32222
 Alpha  occ. eigenvalues --   -0.31953  -0.31694  -0.31443  -0.31281  -0.31008
 Alpha  occ. eigenvalues --   -0.30391  -0.30202  -0.29690  -0.29270  -0.29008
 Alpha  occ. eigenvalues --   -0.28842  -0.28545  -0.27967  -0.27470  -0.26311
 Alpha  occ. eigenvalues --   -0.25800  -0.25479  -0.25044  -0.24826  -0.20520
 Alpha  occ. eigenvalues --   -0.18372
 Alpha virt. eigenvalues --   -0.10466  -0.05246  -0.04299  -0.02226  -0.00977
 Alpha virt. eigenvalues --   -0.00298   0.00227   0.00856   0.02034   0.03002
 Alpha virt. eigenvalues --    0.04037   0.04722   0.05158   0.05289   0.05885

 Mulliken charges:
               1
     1  Mg   0.956992
     2  C    0.019363
     3  C   -0.070132
     4  C   -0.063949
     5  C   -0.055506
     6  N   -0.358735
     7  C    0.002165
     8  C   -0.110938
     9  C   -0.129702
    10  C    0.082300
    11  C    0.021646
    12  C    0.046458
    13  C   -0.004697
    14  C    0.220988
    15  O   -0.249462
    16  O   -0.368009
    17  N   -0.471442
    18  C    0.135423
    19  C   -0.174708
    20  C   -0.065053
    21  C    0.132320
    22  C    0.055210
    23  C    0.071956
    24  O   -0.266155
    25  C   -0.023567
    26  N   -0.392040
    27  C    0.064672
    28  C   -0.055370
    29  C   -0.143436
    30  C    0.090046
    31  C    0.025065
    32  C   -0.036913
    33  C   -0.076319
    34  N   -0.445108
    35  C    0.074680
    36  C   -0.165376
    37  C   -0.095367
    38  C    0.175305
    39  C    0.069384
    40  C    0.164803
    41  O   -0.192610
    42  C   -0.213381
    43  C    0.321253
    44  O   -0.295289
    45  O   -0.359108
    46  C    0.128085
    47  C    0.198089
    48  C   -0.094491
    49  C   -0.215322
    50  C   -0.023369
    51  C    0.003813
    52  C   -0.057373
    53  C   -0.028201
    54  C   -0.218698
    55  C   -0.022282
    56  C    0.054260
    57  C   -0.090567
    58  C    0.033472
    59  C   -0.299446
    60  C    0.038604
    61  C    0.030938
    62  C   -0.076224
    63  C    0.016836
    64  C   -0.283229
    65  C    0.010798
    66  C   -0.009537
    67  H   -0.000108
    68  H    0.028513
    69  H   -0.007007
    70  H    0.088450
    71  H    0.049719
    72  H    0.044971
    73  H    0.031589
    74  H    0.043055
    75  H    0.040181
    76  H    0.047352
    77  H    0.045653
    78  H    0.058527
    79  H    0.064517
    80  H    0.055320
    81  H    0.044512
    82  H    0.045025
    83  H    0.050644
    84  H    0.077996
    85  H    0.046947
    86  H    0.047035
    87  H    0.061191
    88  H    0.053670
    89  H    0.048603
    90  H    0.033167
    91  H    0.037375
    92  H    0.062238
    93  H    0.030991
    94  H    0.050495
    95  H    0.067972
    96  H    0.065676
    97  H    0.049874
    98  H    0.086087
    99  H    0.050696
   100  H    0.076164
   101  H    0.052215
   102  H    0.059559
   103  H    0.052223
   104  H    0.027958
   105  H    0.059538
   106  H    0.036165
   107  H    0.055896
   108  H    0.041780
   109  H    0.050647
   110  H    0.041914
   111  H    0.034008
   112  H    0.033314
   113  H    0.034337
   114  H    0.036495
   115  H    0.034934
   116  H    0.031104
   117  H    0.031774
   118  H    0.026207
   119  H    0.021289
   120  H    0.033522
   121  H    0.041781
   122  H    0.021195
   123  H    0.017786
   124  H    0.041894
   125  H    0.035853
   126  H    0.011034
   127  H    0.032366
   128  H    0.026534
   129  H    0.025658
   130  H    0.025519
   131  H    0.041651
   132  H    0.029759
   133  H    0.011707
   134  H    0.030140
   135  H    0.033841
   136  H    0.042959
   137  H    0.023212
   138  H    0.023150
   139  H    0.031962
   140  H    0.036217
 Sum of Mulliken charges =  -0.00000

 Dipole moment (field-independent basis, Debye):
    X=             -4.9296    Y=              2.7031    Z=              2.3629  Tot=              6.0984
 Quadrupole moment (field-independent basis, Debye-Ang):
   XX=           -386.8987   YY=           -430.9505   ZZ=           -403.8791
   XY=             23.4415   XZ=              5.5942   YZ=              0.0821

 Normal termination of Gaussian 16 at Wed May  4 13:28:14 2022.
