 Gaussian 16, Revision A.03,
 Gaussian 16:  ES64L-G16RevA.03 25-Dec-2016

 --------------------------------
 #p wB97XD/Def2SVP td=(nstates=5)
 --------------------------------

 -----------------------------------------------------
 step_1751_chromophore_18 TDDFT with wB97XD functional
 -----------------------------------------------------
 Symbolic Z-matrix:
 Charge =  0 Multiplicity = 1

                         Standard orientation:
 ---------------------------------------------------------------------
 Center     Atomic      Atomic             Coordinates (Angstroms)
 Number     Number       Type             X           Y           Z
 ---------------------------------------------------------------------
      1         12           0        5.175347    1.186477    0.338086
      2          6           0        4.487125   -2.290957    0.260936
      3          6           0        1.841381    1.749539    0.009860
      4          6           0        5.884517    4.391133   -0.067894
      5          6           0        8.582180    0.362237   -0.033880
      6          7           0        3.350790   -0.159248    0.212870
      7          6           0        3.275187   -1.513217    0.310421
      8          6           0        1.825816   -2.028815    0.338420
      9          6           0        1.020230   -0.715637    0.167627
     10          6           0        2.128434    0.359831   -0.002588
     11          6           0       -0.091652   -0.677782   -0.926852
     12          6           0        1.544540   -2.781498    1.633133
     13          6           0        0.794117   -4.104111    1.354633
     14          6           0       -0.124681   -4.234529    0.084023
     15          8           0        0.168853   -5.062655   -0.742444
     16          8           0       -1.280078   -3.476047    0.014567
     17          7           0        4.020004    2.900905    0.147236
     18          6           0        2.664333    2.927924    0.053130
     19          6           0        2.205158    4.331550    0.005010
     20          6           0        3.335137    5.016932   -0.275645
     21          6           0        4.524027    4.106947   -0.096452
     22          6           0        0.819699    4.773599    0.258673
     23          6           0        3.463357    6.478144   -0.749961
     24          8           0        4.546772    7.122011   -0.870188
     25          6           0        2.180473    7.260444   -0.920812
     26          7           0        7.041906    2.237305    0.117873
     27          6           0        7.071538    3.599863    0.051431
     28          6           0        8.519263    4.081633   -0.073645
     29          6           0        9.334213    2.811046   -0.152140
     30          6           0        8.277987    1.688327    0.065821
     31          6           0        8.815912    5.038553   -1.249340
     32          6           0       10.560339    2.707227    0.824357
     33          6           0       10.080889    2.555372    2.316802
     34          7           0        6.368076   -0.610537    0.115309
     35          6           0        7.762781   -0.787562    0.023071
     36          6           0        8.093603   -2.216803    0.052366
     37          6           0        6.802884   -2.804338    0.209206
     38          6           0        5.806828   -1.798390    0.208403
     39          6           0        9.446442   -2.770069   -0.136927
     40          6           0        6.197761   -4.137663    0.334843
     41          8           0        6.709982   -5.234723    0.422265
     42          6           0        4.615118   -3.832328    0.330495
     43          6           0        4.022086   -4.599068   -0.871164
     44          8           0        3.514847   -4.149087   -1.941278
     45          8           0        3.995356   -5.938158   -0.522407
     46          6           0        3.386652   -6.784092   -1.561879
     47          6           0       -2.047071   -3.751336   -1.230971
     48          6           0       -3.238186   -2.858438   -1.171996
     49          6           0       -4.554047   -3.275101   -1.026094
     50          6           0       -4.837358   -4.719223   -0.564912
     51          6           0       -5.766081   -2.266696   -0.969231
     52          6           0       -6.017468   -1.778465    0.500463
     53          6           0       -6.730778   -0.436965    0.436319
     54          6           0       -8.107299   -0.344848    1.334734
     55          6           0       -7.721760   -0.641687    2.800283
     56          6           0       -8.852155    0.950375    1.016951
     57          6           0      -10.255620    0.664407    0.513359
     58          6           0      -11.249715    0.270903    1.611373
     59          6           0      -12.636246    0.920229    1.361293
     60          6           0      -13.320294    1.355048    2.598504
     61          6           0      -13.489338    0.018779    0.404106
     62          6           0      -13.114170    0.404361   -1.063472
     63          6           0      -14.263678    1.086469   -1.809732
     64          6           0      -14.511414    2.577745   -1.337201
     65          6           0      -15.693217    2.706916   -0.402389
     66          6           0      -14.366252    3.748662   -2.343691
     67          1           0        0.773785    1.954178   -0.095405
     68          1           0        6.041262    5.422169   -0.394030
     69          1           0        9.614709    0.038062   -0.178517
     70          1           0        1.748069   -2.658627   -0.548051
     71          1           0        0.553530   -0.536290    1.136018
     72          1           0       -0.205066   -1.527770   -1.600165
     73          1           0        0.176901    0.153231   -1.578385
     74          1           0       -1.054563   -0.410254   -0.491089
     75          1           0        0.977497   -2.218394    2.374079
     76          1           0        2.502236   -3.088281    2.054115
     77          1           0        0.170935   -4.267910    2.233705
     78          1           0        1.538430   -4.892207    1.473626
     79          1           0        0.354046    5.084939   -0.676903
     80          1           0        0.703808    5.558443    1.005915
     81          1           0        0.293788    4.002394    0.820143
     82          1           0        1.652042    6.792949   -1.752148
     83          1           0        2.490666    8.174080   -1.428062
     84          1           0        1.499080    7.366457   -0.076305
     85          1           0        8.784180    4.484993    0.903708
     86          1           0        9.702564    2.594501   -1.154307
     87          1           0        8.730724    6.065420   -0.891815
     88          1           0        8.015941    4.794671   -1.948490
     89          1           0        9.776113    4.750559   -1.676226
     90          1           0       11.161316    3.615767    0.774890
     91          1           0       11.291501    1.954881    0.526776
     92          1           0        9.415890    1.701649    2.448203
     93          1           0        9.446191    3.413235    2.541492
     94          1           0       10.946060    2.581478    2.978750
     95          1           0        9.632185   -2.802926   -1.209568
     96          1           0        9.444341   -3.780905    0.272744
     97          1           0       10.164304   -2.126396    0.371117
     98          1           0        4.131742   -4.260168    1.209916
     99          1           0        4.079990   -6.846735   -2.401769
    100          1           0        2.431711   -6.434166   -1.953637
    101          1           0        3.260585   -7.761067   -1.095207
    102          1           0       -2.400732   -4.758384   -1.452395
    103          1           0       -1.453196   -3.462999   -2.097729
    104          1           0       -3.084002   -1.909707   -1.686298
    105          1           0       -5.381654   -5.385751   -1.234305
    106          1           0       -5.495340   -4.531713    0.283238
    107          1           0       -3.993020   -5.275017   -0.157837
    108          1           0       -6.622971   -2.888605   -1.226109
    109          1           0       -5.487517   -1.436105   -1.618004
    110          1           0       -5.016611   -1.733040    0.931835
    111          1           0       -6.596024   -2.444507    1.140738
    112          1           0       -6.966712   -0.132764   -0.583574
    113          1           0       -5.941553    0.251841    0.738000
    114          1           0       -8.664457   -1.272647    1.202680
    115          1           0       -8.284536   -0.042741    3.516007
    116          1           0       -6.674076   -0.491523    3.060369
    117          1           0       -7.892449   -1.709262    2.936539
    118          1           0       -8.310509    1.577604    0.308932
    119          1           0       -9.010404    1.490285    1.949995
    120          1           0      -10.210582   -0.176226   -0.178888
    121          1           0      -10.445456    1.526466   -0.127362
    122          1           0      -10.881545    0.437495    2.623672
    123          1           0      -11.471784   -0.796112    1.631850
    124          1           0      -12.447593    1.839331    0.806555
    125          1           0      -13.139111    2.425580    2.694298
    126          1           0      -12.790064    0.921931    3.446411
    127          1           0      -14.334110    0.965642    2.700866
    128          1           0      -14.542218    0.215043    0.605186
    129          1           0      -13.152736   -1.009426    0.541226
    130          1           0      -12.938009   -0.521522   -1.611677
    131          1           0      -12.228681    1.038902   -1.078071
    132          1           0      -15.164660    0.475764   -1.739618
    133          1           0      -13.961014    1.243325   -2.844803
    134          1           0      -13.647086    2.830807   -0.722277
    135          1           0      -16.533977    3.046818   -1.005553
    136          1           0      -15.376373    3.319097    0.442426
    137          1           0      -15.952003    1.703474   -0.064969
    138          1           0      -13.808974    3.444837   -3.229179
    139          1           0      -13.708449    4.512750   -1.929867
    140          1           0      -15.340911    4.144205   -2.628644
 ---------------------------------------------------------------------

 SCF Done:  E(RwB97XD) =  -3007.85928621     A.U. after   20 cycles

 Excitation energies and oscillator strengths:

 Excited State   1:      Singlet-A      1.7207 eV  720.55 nm  f=0.3714  <S**2>=0.000
     245 -> 248        0.19918
     246 -> 247        0.67823
     245 <- 248        0.11617
 This state for optimization and/or second-order correction.
 Total Energy, E(TD-HF/TD-DFT) =  -3007.79605242
 Copying the excited state density for this state as the 1-particle RhoCI density.

 Excited State   2:      Singlet-A      2.2005 eV  563.44 nm  f=0.0728  <S**2>=0.000
     245 -> 247        0.62024
     246 -> 248       -0.32547

 Excited State   3:      Singlet-A      3.4829 eV  355.98 nm  f=0.6070  <S**2>=0.000
     244 -> 247        0.24903
     245 -> 247        0.28572
     246 -> 248        0.57912
     245 <- 247       -0.10758

 Excited State   4:      Singlet-A      3.5533 eV  348.93 nm  f=0.0061  <S**2>=0.000
     239 -> 249        0.12379
     240 -> 247        0.33604
     240 -> 248       -0.11936
     240 -> 249       -0.33501
     240 -> 250        0.12232
     241 -> 247        0.26492
     241 -> 249       -0.13406
     244 -> 247       -0.31588

 Excited State   5:      Singlet-A      3.6075 eV  343.68 nm  f=0.1162  <S**2>=0.000
     240 -> 247        0.21063
     240 -> 249       -0.17017
     243 -> 247        0.22978
     243 -> 249        0.12200
     243 -> 250        0.15783
     244 -> 247        0.48318
     245 -> 247       -0.11341
     246 -> 248       -0.15121

 The electronic state is 1-A.
 Alpha  occ. eigenvalues --  -46.95957 -19.30781 -19.29291 -19.24829 -19.24790
 Alpha  occ. eigenvalues --  -19.24043 -19.23698 -14.46662 -14.46289 -14.44532
 Alpha  occ. eigenvalues --  -14.43000 -10.43406 -10.42923 -10.40166 -10.38650
 Alpha  occ. eigenvalues --  -10.35764 -10.35371 -10.35121 -10.35054 -10.34759
 Alpha  occ. eigenvalues --  -10.34515 -10.33650 -10.33555 -10.33138 -10.32790
 Alpha  occ. eigenvalues --  -10.32732 -10.32643 -10.32052 -10.31924 -10.31852
 Alpha  occ. eigenvalues --  -10.31804 -10.31779 -10.31637 -10.31488 -10.31446
 Alpha  occ. eigenvalues --  -10.31309 -10.31202 -10.31178 -10.31093 -10.30982
 Alpha  occ. eigenvalues --  -10.30530 -10.30450 -10.30290 -10.30144 -10.30064
 Alpha  occ. eigenvalues --  -10.29886 -10.29867 -10.29811 -10.29636 -10.29606
 Alpha  occ. eigenvalues --  -10.29576 -10.29497 -10.29132 -10.29039 -10.28980
 Alpha  occ. eigenvalues --  -10.28942 -10.28900 -10.28804 -10.28793 -10.28644
 Alpha  occ. eigenvalues --  -10.28637 -10.28631 -10.28556 -10.28435 -10.28043
 Alpha  occ. eigenvalues --  -10.27813  -3.21733  -1.95341  -1.94825  -1.94705
 Alpha  occ. eigenvalues --   -1.18562  -1.16197  -1.11770  -1.10640  -1.10259
 Alpha  occ. eigenvalues --   -1.07069  -1.06946  -1.05832  -1.05413  -1.04207
 Alpha  occ. eigenvalues --   -0.93034  -0.92666  -0.91967  -0.91622  -0.91462
 Alpha  occ. eigenvalues --   -0.90579  -0.90530  -0.89522  -0.89354  -0.88740
 Alpha  occ. eigenvalues --   -0.88140  -0.87261  -0.86503  -0.84844  -0.84595
 Alpha  occ. eigenvalues --   -0.84350  -0.84022  -0.83553  -0.82442  -0.82032
 Alpha  occ. eigenvalues --   -0.81798  -0.80956  -0.79678  -0.78590  -0.77721
 Alpha  occ. eigenvalues --   -0.77590  -0.77457  -0.77192  -0.76552  -0.76354
 Alpha  occ. eigenvalues --   -0.74540  -0.74228  -0.73493  -0.72256  -0.71691
 Alpha  occ. eigenvalues --   -0.70552  -0.69982  -0.69052  -0.68348  -0.67676
 Alpha  occ. eigenvalues --   -0.67374  -0.66992  -0.66130  -0.65805  -0.65708
 Alpha  occ. eigenvalues --   -0.65577  -0.65516  -0.63839  -0.62984  -0.62895
 Alpha  occ. eigenvalues --   -0.61945  -0.61023  -0.60708  -0.60341  -0.59460
 Alpha  occ. eigenvalues --   -0.58633  -0.58343  -0.58279  -0.57948  -0.57563
 Alpha  occ. eigenvalues --   -0.57188  -0.56906  -0.56578  -0.56285  -0.55787
 Alpha  occ. eigenvalues --   -0.55631  -0.55384  -0.54887  -0.54868  -0.54504
 Alpha  occ. eigenvalues --   -0.54321  -0.54209  -0.53969  -0.53737  -0.53635
 Alpha  occ. eigenvalues --   -0.53450  -0.53082  -0.52980  -0.52682  -0.52543
 Alpha  occ. eigenvalues --   -0.52466  -0.52055  -0.51867  -0.51519  -0.51406
 Alpha  occ. eigenvalues --   -0.51297  -0.50982  -0.50875  -0.50746  -0.50522
 Alpha  occ. eigenvalues --   -0.50465  -0.50314  -0.50142  -0.49992  -0.49709
 Alpha  occ. eigenvalues --   -0.49413  -0.49186  -0.49176  -0.48596  -0.48405
 Alpha  occ. eigenvalues --   -0.48212  -0.48028  -0.47821  -0.47799  -0.47622
 Alpha  occ. eigenvalues --   -0.47420  -0.47373  -0.47094  -0.46840  -0.46574
 Alpha  occ. eigenvalues --   -0.46445  -0.46401  -0.46244  -0.46163  -0.45993
 Alpha  occ. eigenvalues --   -0.45715  -0.45472  -0.45269  -0.44950  -0.44880
 Alpha  occ. eigenvalues --   -0.44662  -0.44463  -0.44379  -0.44089  -0.43957
 Alpha  occ. eigenvalues --   -0.43796  -0.43707  -0.43596  -0.43309  -0.43197
 Alpha  occ. eigenvalues --   -0.42675  -0.42589  -0.42303  -0.42187  -0.42042
 Alpha  occ. eigenvalues --   -0.41827  -0.41539  -0.41225  -0.41161  -0.41011
 Alpha  occ. eigenvalues --   -0.40675  -0.40371  -0.39700  -0.39321  -0.39249
 Alpha  occ. eigenvalues --   -0.39013  -0.38705  -0.38457  -0.38189  -0.37964
 Alpha  occ. eigenvalues --   -0.37346  -0.37215  -0.36583  -0.36029  -0.35960
 Alpha  occ. eigenvalues --   -0.35888  -0.35295  -0.34897  -0.34352  -0.33409
 Alpha  occ. eigenvalues --   -0.32609  -0.32160  -0.31870  -0.31150  -0.25513
 Alpha  occ. eigenvalues --   -0.22514
 Alpha virt. eigenvalues --   -0.06208   0.00154   0.01852   0.04313   0.05623
 Alpha virt. eigenvalues --    0.05657   0.07054   0.07699   0.08801   0.09352
 Alpha virt. eigenvalues --    0.10432   0.11416   0.11996   0.12124   0.12577

 Mulliken charges:
               1
     1  Mg   0.949508
     2  C    0.012047
     3  C   -0.089708
     4  C   -0.077815
     5  C   -0.066917
     6  N   -0.324162
     7  C   -0.029356
     8  C   -0.078801
     9  C   -0.106960
    10  C    0.072161
    11  C    0.035293
    12  C    0.056323
    13  C    0.009931
    14  C    0.210285
    15  O   -0.247321
    16  O   -0.365346
    17  N   -0.439588
    18  C    0.133043
    19  C   -0.163583
    20  C   -0.056464
    21  C    0.124100
    22  C    0.065206
    23  C    0.067128
    24  O   -0.258212
    25  C   -0.011359
    26  N   -0.358094
    27  C    0.050090
    28  C   -0.029393
    29  C   -0.117688
    30  C    0.073795
    31  C    0.038077
    32  C   -0.023162
    33  C   -0.055353
    34  N   -0.405466
    35  C    0.059605
    36  C   -0.161728
    37  C   -0.091666
    38  C    0.158275
    39  C    0.080674
    40  C    0.144123
    41  O   -0.184302
    42  C   -0.176471
    43  C    0.301662
    44  O   -0.289960
    45  O   -0.359480
    46  C    0.143134
    47  C    0.211103
    48  C   -0.103161
    49  C   -0.200096
    50  C   -0.010501
    51  C    0.026002
    52  C   -0.040952
    53  C   -0.012796
    54  C   -0.190856
    55  C   -0.012461
    56  C    0.071039
    57  C   -0.068017
    58  C    0.042252
    59  C   -0.254373
    60  C    0.049023
    61  C    0.043029
    62  C   -0.048559
    63  C    0.033976
    64  C   -0.253222
    65  C    0.024125
    66  C    0.002957
    67  H   -0.008304
    68  H    0.020920
    69  H   -0.015045
    70  H    0.069722
    71  H    0.038771
    72  H    0.035776
    73  H    0.024425
    74  H    0.038168
    75  H    0.034687
    76  H    0.036012
    77  H    0.040244
    78  H    0.053417
    79  H    0.060917
    80  H    0.051592
    81  H    0.041412
    82  H    0.038889
    83  H    0.049907
    84  H    0.074656
    85  H    0.033574
    86  H    0.035930
    87  H    0.056763
    88  H    0.045866
    89  H    0.043273
    90  H    0.023996
    91  H    0.030843
    92  H    0.053167
    93  H    0.021440
    94  H    0.045574
    95  H    0.062336
    96  H    0.061386
    97  H    0.043520
    98  H    0.076582
    99  H    0.046139
   100  H    0.072292
   101  H    0.048965
   102  H    0.053880
   103  H    0.048182
   104  H    0.022494
   105  H    0.055335
   106  H    0.027579
   107  H    0.050855
   108  H    0.033218
   109  H    0.043045
   110  H    0.031774
   111  H    0.022890
   112  H    0.022458
   113  H    0.025849
   114  H    0.022450
   115  H    0.028968
   116  H    0.024652
   117  H    0.026078
   118  H    0.019853
   119  H    0.010504
   120  H    0.021918
   121  H    0.034274
   122  H    0.009936
   123  H    0.007983
   124  H    0.018645
   125  H    0.031176
   126  H    0.004107
   127  H    0.027347
   128  H    0.012213
   129  H    0.016931
   130  H    0.018452
   131  H    0.024490
   132  H    0.021627
   133  H    0.002682
   134  H    0.011608
   135  H    0.027689
   136  H    0.038403
   137  H    0.014435
   138  H    0.016749
   139  H    0.026749
   140  H    0.030095
 Sum of Mulliken charges =  -0.00000

 Dipole moment (field-independent basis, Debye):
    X=             -5.3608    Y=              3.2399    Z=              2.3373  Tot=              6.6857
 Quadrupole moment (field-independent basis, Debye-Ang):
   XX=           -391.2143   YY=           -428.0874   ZZ=           -403.4652
   XY=             24.7318   XZ=              5.7461   YZ=             -0.1933

 Normal termination of Gaussian 16 at Wed May  4 14:18:35 2022.
