 Gaussian 16, Revision A.03,
 Gaussian 16:  ES64L-G16RevA.03 25-Dec-2016

 --------------------
 #p ZINDO=(nstates=5)
 --------------------

 ------------------------------
 step_1751_chromophore_18 ZINDO
 ------------------------------
 Symbolic Z-matrix:
 Charge =  0 Multiplicity = 1

                         Standard orientation:
 ---------------------------------------------------------------------
 Center     Atomic      Atomic             Coordinates (Angstroms)
 Number     Number       Type             X           Y           Z
 ---------------------------------------------------------------------
      1         12           0        5.175347    1.186477    0.338086
      2          6           0        4.487125   -2.290957    0.260936
      3          6           0        1.841381    1.749539    0.009860
      4          6           0        5.884517    4.391133   -0.067894
      5          6           0        8.582180    0.362237   -0.033880
      6          7           0        3.350790   -0.159248    0.212870
      7          6           0        3.275187   -1.513217    0.310421
      8          6           0        1.825816   -2.028815    0.338420
      9          6           0        1.020230   -0.715637    0.167627
     10          6           0        2.128434    0.359831   -0.002588
     11          6           0       -0.091652   -0.677782   -0.926852
     12          6           0        1.544540   -2.781498    1.633133
     13          6           0        0.794117   -4.104111    1.354633
     14          6           0       -0.124681   -4.234529    0.084023
     15          8           0        0.168853   -5.062655   -0.742444
     16          8           0       -1.280078   -3.476047    0.014567
     17          7           0        4.020004    2.900905    0.147236
     18          6           0        2.664333    2.927924    0.053130
     19          6           0        2.205158    4.331550    0.005010
     20          6           0        3.335137    5.016932   -0.275645
     21          6           0        4.524027    4.106947   -0.096452
     22          6           0        0.819699    4.773599    0.258673
     23          6           0        3.463357    6.478144   -0.749961
     24          8           0        4.546772    7.122011   -0.870188
     25          6           0        2.180473    7.260444   -0.920812
     26          7           0        7.041906    2.237305    0.117873
     27          6           0        7.071538    3.599863    0.051431
     28          6           0        8.519263    4.081633   -0.073645
     29          6           0        9.334213    2.811046   -0.152140
     30          6           0        8.277987    1.688327    0.065821
     31          6           0        8.815912    5.038553   -1.249340
     32          6           0       10.560339    2.707227    0.824357
     33          6           0       10.080889    2.555372    2.316802
     34          7           0        6.368076   -0.610537    0.115309
     35          6           0        7.762781   -0.787562    0.023071
     36          6           0        8.093603   -2.216803    0.052366
     37          6           0        6.802884   -2.804338    0.209206
     38          6           0        5.806828   -1.798390    0.208403
     39          6           0        9.446442   -2.770069   -0.136927
     40          6           0        6.197761   -4.137663    0.334843
     41          8           0        6.709982   -5.234723    0.422265
     42          6           0        4.615118   -3.832328    0.330495
     43          6           0        4.022086   -4.599068   -0.871164
     44          8           0        3.514847   -4.149087   -1.941278
     45          8           0        3.995356   -5.938158   -0.522407
     46          6           0        3.386652   -6.784092   -1.561879
     47          6           0       -2.047071   -3.751336   -1.230971
     48          6           0       -3.238186   -2.858438   -1.171996
     49          6           0       -4.554047   -3.275101   -1.026094
     50          6           0       -4.837358   -4.719223   -0.564912
     51          6           0       -5.766081   -2.266696   -0.969231
     52          6           0       -6.017468   -1.778465    0.500463
     53          6           0       -6.730778   -0.436965    0.436319
     54          6           0       -8.107299   -0.344848    1.334734
     55          6           0       -7.721760   -0.641687    2.800283
     56          6           0       -8.852155    0.950375    1.016951
     57          6           0      -10.255620    0.664407    0.513359
     58          6           0      -11.249715    0.270903    1.611373
     59          6           0      -12.636246    0.920229    1.361293
     60          6           0      -13.320294    1.355048    2.598504
     61          6           0      -13.489338    0.018779    0.404106
     62          6           0      -13.114170    0.404361   -1.063472
     63          6           0      -14.263678    1.086469   -1.809732
     64          6           0      -14.511414    2.577745   -1.337201
     65          6           0      -15.693217    2.706916   -0.402389
     66          6           0      -14.366252    3.748662   -2.343691
     67          1           0        0.773785    1.954178   -0.095405
     68          1           0        6.041262    5.422169   -0.394030
     69          1           0        9.614709    0.038062   -0.178517
     70          1           0        1.748069   -2.658627   -0.548051
     71          1           0        0.553530   -0.536290    1.136018
     72          1           0       -0.205066   -1.527770   -1.600165
     73          1           0        0.176901    0.153231   -1.578385
     74          1           0       -1.054563   -0.410254   -0.491089
     75          1           0        0.977497   -2.218394    2.374079
     76          1           0        2.502236   -3.088281    2.054115
     77          1           0        0.170935   -4.267910    2.233705
     78          1           0        1.538430   -4.892207    1.473626
     79          1           0        0.354046    5.084939   -0.676903
     80          1           0        0.703808    5.558443    1.005915
     81          1           0        0.293788    4.002394    0.820143
     82          1           0        1.652042    6.792949   -1.752148
     83          1           0        2.490666    8.174080   -1.428062
     84          1           0        1.499080    7.366457   -0.076305
     85          1           0        8.784180    4.484993    0.903708
     86          1           0        9.702564    2.594501   -1.154307
     87          1           0        8.730724    6.065420   -0.891815
     88          1           0        8.015941    4.794671   -1.948490
     89          1           0        9.776113    4.750559   -1.676226
     90          1           0       11.161316    3.615767    0.774890
     91          1           0       11.291501    1.954881    0.526776
     92          1           0        9.415890    1.701649    2.448203
     93          1           0        9.446191    3.413235    2.541492
     94          1           0       10.946060    2.581478    2.978750
     95          1           0        9.632185   -2.802926   -1.209568
     96          1           0        9.444341   -3.780905    0.272744
     97          1           0       10.164304   -2.126396    0.371117
     98          1           0        4.131742   -4.260168    1.209916
     99          1           0        4.079990   -6.846735   -2.401769
    100          1           0        2.431711   -6.434166   -1.953637
    101          1           0        3.260585   -7.761067   -1.095207
    102          1           0       -2.400732   -4.758384   -1.452395
    103          1           0       -1.453196   -3.462999   -2.097729
    104          1           0       -3.084002   -1.909707   -1.686298
    105          1           0       -5.381654   -5.385751   -1.234305
    106          1           0       -5.495340   -4.531713    0.283238
    107          1           0       -3.993020   -5.275017   -0.157837
    108          1           0       -6.622971   -2.888605   -1.226109
    109          1           0       -5.487517   -1.436105   -1.618004
    110          1           0       -5.016611   -1.733040    0.931835
    111          1           0       -6.596024   -2.444507    1.140738
    112          1           0       -6.966712   -0.132764   -0.583574
    113          1           0       -5.941553    0.251841    0.738000
    114          1           0       -8.664457   -1.272647    1.202680
    115          1           0       -8.284536   -0.042741    3.516007
    116          1           0       -6.674076   -0.491523    3.060369
    117          1           0       -7.892449   -1.709262    2.936539
    118          1           0       -8.310509    1.577604    0.308932
    119          1           0       -9.010404    1.490285    1.949995
    120          1           0      -10.210582   -0.176226   -0.178888
    121          1           0      -10.445456    1.526466   -0.127362
    122          1           0      -10.881545    0.437495    2.623672
    123          1           0      -11.471784   -0.796112    1.631850
    124          1           0      -12.447593    1.839331    0.806555
    125          1           0      -13.139111    2.425580    2.694298
    126          1           0      -12.790064    0.921931    3.446411
    127          1           0      -14.334110    0.965642    2.700866
    128          1           0      -14.542218    0.215043    0.605186
    129          1           0      -13.152736   -1.009426    0.541226
    130          1           0      -12.938009   -0.521522   -1.611677
    131          1           0      -12.228681    1.038902   -1.078071
    132          1           0      -15.164660    0.475764   -1.739618
    133          1           0      -13.961014    1.243325   -2.844803
    134          1           0      -13.647086    2.830807   -0.722277
    135          1           0      -16.533977    3.046818   -1.005553
    136          1           0      -15.376373    3.319097    0.442426
    137          1           0      -15.952003    1.703474   -0.064969
    138          1           0      -13.808974    3.444837   -3.229179
    139          1           0      -13.708449    4.512750   -1.929867
    140          1           0      -15.340911    4.144205   -2.628644
 ---------------------------------------------------------------------

 SCF Done:  E(RZINDO/S) =  -474.133829640     A.U. after   19 cycles

 Excitation energies and oscillator strengths:

 Excited State   1:      Singlet-A      1.3250 eV  935.75 nm  f=0.5607  <S**2>=0.000
     175 ->178         0.19114
     176 ->177         0.66347
 This state for optimization and/or second-order correction.
 Total Energy, E(CIS/TDA) =  -474.085137592
 Copying the excited state density for this state as the 1-particle RhoCI density.

 Excited State   2:      Singlet-A      1.9106 eV  648.94 nm  f=0.0091  <S**2>=0.000
     175 ->177         0.50362
     176 ->178        -0.47066

 Excited State   3:      Singlet-A      2.8877 eV  429.35 nm  f=0.0037  <S**2>=0.000
     167 ->177         0.15606
     167 ->179        -0.28412
     167 ->180         0.10418
     167 ->186         0.10575
     168 ->177         0.17919
     168 ->179        -0.30442
     168 ->180         0.11077
     168 ->186         0.11519
     169 ->179        -0.10107
     176 ->179         0.36302

 Excited State   4:      Singlet-A      2.9388 eV  421.88 nm  f=0.0192  <S**2>=0.000
     167 ->177        -0.10561
     167 ->179         0.18788
     168 ->177        -0.12241
     168 ->179         0.20015
     176 ->179         0.54595
     176 ->180         0.14794

 Excited State   5:      Singlet-A      3.0080 eV  412.19 nm  f=1.2099  <S**2>=0.000
     175 ->177         0.44510
     176 ->178         0.49572
     176 ->180        -0.12964

 The electronic state is 1-A.
 Alpha  occ. eigenvalues --   -1.83134  -1.81615  -1.80531  -1.73226  -1.70887
 Alpha  occ. eigenvalues --   -1.69206  -1.68858  -1.61265  -1.56719  -1.55734
 Alpha  occ. eigenvalues --   -1.54977  -1.51433  -1.48417  -1.46956  -1.46280
 Alpha  occ. eigenvalues --   -1.45064  -1.41663  -1.40372  -1.38741  -1.38183
 Alpha  occ. eigenvalues --   -1.35910  -1.33827  -1.33493  -1.31739  -1.28932
 Alpha  occ. eigenvalues --   -1.27991  -1.24617  -1.22016  -1.19927  -1.17137
 Alpha  occ. eigenvalues --   -1.17045  -1.16969  -1.15729  -1.14952  -1.12661
 Alpha  occ. eigenvalues --   -1.11767  -1.11028  -1.10259  -1.04120  -1.02067
 Alpha  occ. eigenvalues --   -1.01446  -1.00643  -0.99342  -0.98458  -0.96796
 Alpha  occ. eigenvalues --   -0.96059  -0.94702  -0.93731  -0.92946  -0.92426
 Alpha  occ. eigenvalues --   -0.91132  -0.89557  -0.89009  -0.88586  -0.86000
 Alpha  occ. eigenvalues --   -0.85451  -0.84429  -0.83102  -0.81884  -0.81031
 Alpha  occ. eigenvalues --   -0.80004  -0.78854  -0.77745  -0.77195  -0.76344
 Alpha  occ. eigenvalues --   -0.75792  -0.74865  -0.74565  -0.73907  -0.73481
 Alpha  occ. eigenvalues --   -0.73286  -0.72700  -0.71780  -0.71049  -0.70612
 Alpha  occ. eigenvalues --   -0.70325  -0.69763  -0.68519  -0.68293  -0.67551
 Alpha  occ. eigenvalues --   -0.67206  -0.67114  -0.66205  -0.65405  -0.65010
 Alpha  occ. eigenvalues --   -0.64603  -0.64138  -0.63810  -0.63635  -0.63487
 Alpha  occ. eigenvalues --   -0.63317  -0.63295  -0.62528  -0.62260  -0.61533
 Alpha  occ. eigenvalues --   -0.61169  -0.61060  -0.60444  -0.60263  -0.60107
 Alpha  occ. eigenvalues --   -0.59273  -0.59064  -0.58772  -0.58639  -0.58263
 Alpha  occ. eigenvalues --   -0.57979  -0.57372  -0.56734  -0.56550  -0.56439
 Alpha  occ. eigenvalues --   -0.56330  -0.55805  -0.55377  -0.55081  -0.54684
 Alpha  occ. eigenvalues --   -0.54079  -0.53922  -0.53789  -0.53272  -0.52901
 Alpha  occ. eigenvalues --   -0.52786  -0.52275  -0.51793  -0.51547  -0.51219
 Alpha  occ. eigenvalues --   -0.51086  -0.50496  -0.50190  -0.49992  -0.49861
 Alpha  occ. eigenvalues --   -0.49751  -0.49722  -0.49448  -0.49081  -0.48915
 Alpha  occ. eigenvalues --   -0.48306  -0.48229  -0.48080  -0.47815  -0.47417
 Alpha  occ. eigenvalues --   -0.47048  -0.46767  -0.46691  -0.46443  -0.46322
 Alpha  occ. eigenvalues --   -0.45996  -0.45770  -0.45628  -0.45517  -0.45305
 Alpha  occ. eigenvalues --   -0.45022  -0.44712  -0.44655  -0.44055  -0.43988
 Alpha  occ. eigenvalues --   -0.43503  -0.43410  -0.42527  -0.42271  -0.42024
 Alpha  occ. eigenvalues --   -0.41932  -0.41503  -0.40536  -0.38502  -0.38484
 Alpha  occ. eigenvalues --   -0.37876  -0.36905  -0.36128  -0.34546  -0.34346
 Alpha  occ. eigenvalues --   -0.33962  -0.32231  -0.32136  -0.31403  -0.26313
 Alpha  occ. eigenvalues --   -0.21287
 Alpha virt. eigenvalues --   -0.07604  -0.02124  -0.01016   0.01124   0.02077
 Alpha virt. eigenvalues --    0.02349   0.02917   0.03341   0.03499   0.04447
 Alpha virt. eigenvalues --    0.06351   0.06756   0.07038   0.07868   0.07930

 Mulliken charges:
               1
     1  Mg   0.428423
     2  C   -0.051414
     3  C   -0.098078
     4  C   -0.079976
     5  C   -0.051748
     6  N   -0.271434
     7  C    0.100357
     8  C    0.010911
     9  C    0.008815
    10  C    0.144742
    11  C   -0.055117
    12  C   -0.019332
    13  C   -0.002069
    14  C    0.463739
    15  O   -0.501787
    16  O   -0.263315
    17  N   -0.309986
    18  C    0.125338
    19  C    0.043886
    20  C   -0.027359
    21  C    0.146270
    22  C   -0.037911
    23  C    0.322096
    24  O   -0.521723
    25  C   -0.038481
    26  N   -0.264809
    27  C    0.156161
    28  C    0.013076
    29  C    0.000234
    30  C    0.092427
    31  C   -0.052216
    32  C   -0.033587
    33  C   -0.059486
    34  N   -0.321690
    35  C    0.049417
    36  C    0.021045
    37  C   -0.071628
    38  C    0.119302
    39  C   -0.030364
    40  C    0.323830
    41  O   -0.515978
    42  C    0.050171
    43  C    0.475804
    44  O   -0.530933
    45  O   -0.255413
    46  C    0.076169
    47  C    0.107877
    48  C   -0.109251
    49  C   -0.008791
    50  C   -0.050128
    51  C   -0.021974
    52  C   -0.032284
    53  C   -0.044885
    54  C   -0.020392
    55  C   -0.059211
    56  C   -0.028250
    57  C   -0.032165
    58  C   -0.030179
    59  C   -0.017182
    60  C   -0.058522
    61  C   -0.041862
    62  C   -0.039234
    63  C   -0.031651
    64  C   -0.026918
    65  C   -0.056950
    66  C   -0.055194
    67  H    0.015249
    68  H    0.036801
    69  H    0.018067
    70  H    0.056260
    71  H    0.029650
    72  H    0.038487
    73  H    0.013733
    74  H    0.019937
    75  H    0.028790
    76  H    0.025440
    77  H    0.023194
    78  H    0.043922
    79  H    0.041493
    80  H    0.030163
    81  H    0.024045
    82  H    0.026698
    83  H    0.037512
    84  H    0.052786
    85  H    0.034937
    86  H    0.024807
    87  H    0.030791
    88  H    0.028100
    89  H    0.028247
    90  H    0.009940
    91  H    0.022584
    92  H    0.030178
    93  H    0.015607
    94  H    0.020646
    95  H    0.038721
    96  H    0.033995
    97  H    0.027628
    98  H    0.058142
    99  H    0.041535
   100  H    0.054431
   101  H    0.027196
   102  H    0.056825
   103  H    0.041529
   104  H    0.022778
   105  H    0.034871
   106  H    0.015330
   107  H    0.028642
   108  H    0.029823
   109  H    0.037585
   110  H    0.020891
   111  H    0.026692
   112  H    0.015322
   113  H    0.017882
   114  H    0.028215
   115  H    0.017253
   116  H    0.015027
   117  H    0.015586
   118  H    0.021273
   119  H    0.017592
   120  H    0.011629
   121  H    0.022152
   122  H    0.020796
   123  H    0.016615
   124  H    0.014708
   125  H    0.022843
   126  H    0.006827
   127  H    0.025523
   128  H    0.029958
   129  H    0.024475
   130  H    0.008432
   131  H    0.031375
   132  H    0.026279
   133  H    0.010935
   134  H    0.006712
   135  H    0.023032
   136  H    0.025822
   137  H    0.015045
   138  H    0.014151
   139  H    0.018267
   140  H    0.022368
 Sum of Mulliken charges =  -0.00000

 Dipole moment (field-independent basis, Debye):
    X=             -8.0619    Y=              5.6864    Z=              3.5837  Tot=             10.4963
 N-N= 4.318917847784D+03 E-N= 0.000000000000D+00  KE=-9.312433893653D+03
 Leave Link  601 at Wed May  4 14:36:28 2022, MaxMem=  6710886400 cpu:               0.7 elap:               0.0
 (Enter /sw/apps/gaussian-16.0/g16/l9999.exe)
 1\1\GINC-BP1-COMPUTE164\SP\RZINDO CIS\STO-3G\C55H74Mg1N4O6\OF15641\04-
 May-2022\0\\#p ZINDO=(nstates=5)\\step_1751_chromophore_18 ZINDO\\0,1\
 Mg,0,35.432,49.389,25.371\C,0,35.397,47.375,28.289\C,0,33.955,51.856,2
 7.18\C,0,35.042,51.057,22.542\C,0,36.297,46.487,23.567\N,0,34.803,49.5
 95,27.543\C,0,34.974,48.723,28.572\C,0,34.551,49.312,29.929\C,0,34.017
 ,50.707,29.515\C,0,34.148,50.691,27.967\C,0,32.612,51.137,30.041\C,0,3
 5.729,49.345,30.895\C,0,35.317,48.824,32.291\C,0,33.825,48.959,32.772\

 Normal termination of Gaussian 16 at Wed May  4 14:36:28 2022.
