 Gaussian 16, Revision A.03,
 Gaussian 16:  ES64L-G16RevA.03 25-Dec-2016

 ------------------------------
 #p blyp/Def2SVP td=(nstates=5)
 ------------------------------

 ------------------------------------------------
 step_51_chromophore_7 TDDFT with blyp functional
 ------------------------------------------------
 Symbolic Z-matrix:
 Charge =  0 Multiplicity = 1

                         Standard orientation:
 ---------------------------------------------------------------------
 Center     Atomic      Atomic             Coordinates (Angstroms)
 Number     Number       Type             X           Y           Z
 ---------------------------------------------------------------------
      1         12           0        5.954217    0.708698    0.183482
      2          6           0        3.636499   -2.054175    0.021004
      3          6           0        3.419665    2.777267   -0.924934
      4          6           0        8.206158    3.082430    0.225320
      5          6           0        8.483364   -1.815210    0.740066
      6          7           0        3.778372    0.381454   -0.251908
      7          6           0        3.075835   -0.813496   -0.253715
      8          6           0        1.597352   -0.573090   -0.430441
      9          6           0        1.552489    0.853397   -1.053801
     10          6           0        3.005231    1.410444   -0.776818
     11          6           0        1.215568    0.956210   -2.586846
     12          6           0        0.740219   -0.842411    0.884617
     13          6           0       -0.395113   -1.887486    0.830202
     14          6           0       -1.875302   -1.437154    1.212956
     15          8           0       -2.190511   -0.570586    1.985785
     16          8           0       -2.835627   -2.176064    0.562208
     17          7           0        5.912828    2.582764   -0.432881
     18          6           0        4.761843    3.309441   -0.818733
     19          6           0        5.241170    4.661337   -1.178005
     20          6           0        6.646910    4.752230   -0.882954
     21          6           0        6.978612    3.422950   -0.351546
     22          6           0        4.365374    5.689721   -1.713754
     23          6           0        7.736209    5.876708   -0.993021
     24          8           0        8.946138    5.639864   -0.983998
     25          6           0        7.242025    7.255575   -1.272578
     26          7           0        7.974043    0.625969    0.495319
     27          6           0        8.678242    1.789778    0.539970
     28          6           0       10.091925    1.521984    1.198749
     29          6           0       10.165386   -0.078301    1.273469
     30          6           0        8.806364   -0.427800    0.866695
     31          6           0       11.211689    2.236633    0.366922
     32          6           0       10.512444   -0.532072    2.769644
     33          6           0       11.473396   -1.804718    2.889323
     34          7           0        6.069385   -1.436762    0.264597
     35          6           0        7.213274   -2.235181    0.517212
     36          6           0        6.716657   -3.607275    0.415450
     37          6           0        5.334081   -3.590859    0.188767
     38          6           0        4.977735   -2.261880    0.211508
     39          6           0        7.522416   -4.874907    0.408574
     40          6           0        4.154476   -4.403499    0.129907
     41          8           0        4.025761   -5.651096    0.195816
     42          6           0        2.930106   -3.439712    0.070816
     43          6           0        2.100560   -3.839437   -1.091356
     44          8           0        2.244725   -3.599797   -2.275372
     45          8           0        1.062580   -4.628898   -0.555712
     46          6           0        0.056128   -5.122768   -1.471212
     47          6           0       -4.257839   -1.862023    0.937857
     48          6           0       -5.259679   -1.950866   -0.224102
     49          6           0       -6.167505   -2.988066   -0.355234
     50          6           0       -6.187005   -4.319863    0.258687
     51          6           0       -7.259077   -2.807774   -1.311982
     52          6           0       -8.057774   -1.502734   -1.077365
     53          6           0       -8.213816   -0.706650   -2.409355
     54          6           0       -9.645206   -0.252492   -2.766551
     55          6           0       -9.555696    0.361825   -4.251428
     56          6           0      -10.194586    0.895226   -1.822820
     57          6           0      -11.738274    0.831333   -1.680091
     58          6           0      -12.297824    1.113658   -0.264952
     59          6           0      -13.712808    0.479593   -0.047506
     60          6           0      -14.826716    0.979730   -1.015060
     61          6           0      -14.113753    0.508571    1.431851
     62          6           0      -14.548620    1.854903    2.014279
     63          6           0      -13.782445    2.359791    3.247828
     64          6           0      -12.505809    3.100783    2.877349
     65          6           0      -11.222191    2.292157    3.123523
     66          6           0      -12.340460    4.363007    3.700742
     67          1           0        2.617783    3.508563   -1.048765
     68          1           0        8.966622    3.843645    0.409871
     69          1           0        9.175057   -2.633054    0.950630
     70          1           0        1.274001   -1.293714   -1.181573
     71          1           0        0.851959    1.478030   -0.499622
     72          1           0        0.213347    1.385626   -2.565535
     73          1           0        1.099266   -0.002191   -3.093513
     74          1           0        1.785611    1.737430   -3.089513
     75          1           0        0.394919    0.178335    1.051028
     76          1           0        1.494288   -1.032844    1.648778
     77          1           0       -0.086947   -2.731363    1.447002
     78          1           0       -0.462575   -2.292949   -0.178872
     79          1           0        4.260739    6.547140   -1.050084
     80          1           0        3.361617    5.280624   -1.828769
     81          1           0        4.724134    5.986010   -2.699197
     82          1           0        6.644926    7.672258   -0.461495
     83          1           0        6.637753    7.356188   -2.174307
     84          1           0        8.001828    7.977361   -1.574095
     85          1           0       10.145338    1.913274    2.214732
     86          1           0       10.860951   -0.500643    0.547958
     87          1           0       11.648865    2.892223    1.120148
     88          1           0       10.795624    2.786711   -0.476977
     89          1           0       11.979080    1.610748   -0.087874
     90          1           0        9.496223   -0.694672    3.127575
     91          1           0       10.848397    0.260109    3.438741
     92          1           0       10.850942   -2.590157    3.317712
     93          1           0       12.268805   -1.561427    3.592691
     94          1           0       11.872506   -2.141067    1.932464
     95          1           0        6.882311   -5.747100    0.281213
     96          1           0        7.996271   -5.093275    1.365989
     97          1           0        8.272958   -4.804511   -0.378453
     98          1           0        2.491705   -3.386899    1.067680
     99          1           0       -0.335500   -6.051741   -1.056899
    100          1           0        0.559921   -5.428428   -2.388303
    101          1           0       -0.747819   -4.402324   -1.620635
    102          1           0       -4.448410   -0.878619    1.366202
    103          1           0       -4.592298   -2.581835    1.684737
    104          1           0       -5.396115   -1.013700   -0.763185
    105          1           0       -5.422551   -4.494256    1.016224
    106          1           0       -6.181682   -5.164252   -0.430547
    107          1           0       -7.045531   -4.453378    0.916496
    108          1           0       -7.930580   -3.666143   -1.312867
    109          1           0       -6.791908   -2.746308   -2.294682
    110          1           0       -7.604456   -0.959471   -0.247456
    111          1           0       -9.046793   -1.824953   -0.751871
    112          1           0       -7.689870   -1.196930   -3.229827
    113          1           0       -7.611364    0.198628   -2.344247
    114          1           0      -10.312434   -1.112521   -2.820766
    115          1           0       -9.897897   -0.434870   -4.911659
    116          1           0       -8.590318    0.745691   -4.583062
    117          1           0      -10.296770    1.158965   -4.309032
    118          1           0      -10.003567    1.902855   -2.191930
    119          1           0       -9.726845    0.830274   -0.840441
    120          1           0      -12.177588   -0.069687   -2.109606
    121          1           0      -12.163600    1.662867   -2.242034
    122          1           0      -12.496672    2.180960   -0.169253
    123          1           0      -11.625664    0.789343    0.529996
    124          1           0      -13.646425   -0.596830   -0.207811
    125          1           0      -15.701190    1.433528   -0.550202
    126          1           0      -15.261459    0.143782   -1.562756
    127          1           0      -14.434086    1.696368   -1.737000
    128          1           0      -13.383954   -0.008403    2.055170
    129          1           0      -14.984542   -0.083457    1.712198
    130          1           0      -15.586794    1.677573    2.295321
    131          1           0      -14.516309    2.668544    1.289942
    132          1           0      -13.637657    1.564860    3.979597
    133          1           0      -14.464058    3.021282    3.782782
    134          1           0      -12.453636    3.382234    1.825648
    135          1           0      -10.590534    2.544272    3.975312
    136          1           0      -10.615075    2.393988    2.223227
    137          1           0      -11.400546    1.217637    3.136544
    138          1           0      -12.837154    4.385884    4.670499
    139          1           0      -12.772699    5.204766    3.158309
    140          1           0      -11.270848    4.540969    3.812047
 ---------------------------------------------------------------------

 SCF Done:  E(RB-LYP) =  -3007.37415787     A.U. after   21 cycles

 Excitation energies and oscillator strengths:

 Excited State   1:      Singlet-A      1.7605 eV  704.27 nm  f=0.2984  <S**2>=0.000
     245 -> 248       -0.17875
     246 -> 247        0.69052
     246 <- 247       -0.15417
 This state for optimization and/or second-order correction.
 Total Energy, E(TD-HF/TD-DFT) =  -3007.30946217
 Copying the excited state density for this state as the 1-particle RhoCI density.

 Excited State   2:      Singlet-A      2.0053 eV  618.29 nm  f=0.0389  <S**2>=0.000
     243 -> 247       -0.13827
     244 -> 247        0.32289
     245 -> 247        0.55541
     246 -> 248        0.21354

 Excited State   3:      Singlet-A      2.0305 eV  610.60 nm  f=0.0095  <S**2>=0.000
     244 -> 247        0.62548
     245 -> 247       -0.27968
     246 -> 248       -0.12996

 Excited State   4:      Singlet-A      2.1994 eV  563.72 nm  f=0.0049  <S**2>=0.000
     243 -> 247        0.68300
     245 -> 247        0.11973
     246 -> 248        0.10056

 Excited State   5:      Singlet-A      2.3385 eV  530.18 nm  f=0.0002  <S**2>=0.000
     241 -> 247        0.68404
     242 -> 247       -0.17782

 The electronic state is 1-A.
 Alpha  occ. eigenvalues --  -46.25590 -18.81491 -18.81290 -18.77670 -18.76477
 Alpha  occ. eigenvalues --  -18.76402 -18.75603 -14.03254 -14.03144 -14.01113
 Alpha  occ. eigenvalues --  -14.00178 -10.04446 -10.04037 -10.00917  -9.99728
 Alpha  occ. eigenvalues --   -9.97523  -9.97014  -9.96984  -9.96555  -9.96468
 Alpha  occ. eigenvalues --   -9.96274  -9.96149  -9.95602  -9.94960  -9.94487
 Alpha  occ. eigenvalues --   -9.94234  -9.94225  -9.94007  -9.93912  -9.93805
 Alpha  occ. eigenvalues --   -9.93667  -9.93569  -9.93547  -9.93499  -9.93381
 Alpha  occ. eigenvalues --   -9.93269  -9.93201  -9.93040  -9.92867  -9.92774
 Alpha  occ. eigenvalues --   -9.92681  -9.92604  -9.92596  -9.92506  -9.92205
 Alpha  occ. eigenvalues --   -9.92183  -9.92169  -9.92002  -9.92001  -9.91676
 Alpha  occ. eigenvalues --   -9.91609  -9.91591  -9.91566  -9.91479  -9.91449
 Alpha  occ. eigenvalues --   -9.91426  -9.91357  -9.91234  -9.91142  -9.91001
 Alpha  occ. eigenvalues --   -9.90580  -9.90535  -9.90483  -9.90401  -9.90265
 Alpha  occ. eigenvalues --   -9.90229  -2.90478  -1.70899  -1.70358  -1.70197
 Alpha  occ. eigenvalues --   -0.97360  -0.96983  -0.91606  -0.90098  -0.89606
 Alpha  occ. eigenvalues --   -0.89204  -0.85723  -0.84920  -0.84503  -0.83764
 Alpha  occ. eigenvalues --   -0.75843  -0.74551  -0.73085  -0.72223  -0.71981
 Alpha  occ. eigenvalues --   -0.71887  -0.71042  -0.70827  -0.70279  -0.70090
 Alpha  occ. eigenvalues --   -0.69250  -0.68484  -0.67960  -0.67466  -0.66812
 Alpha  occ. eigenvalues --   -0.66282  -0.65913  -0.65556  -0.65203  -0.64490
 Alpha  occ. eigenvalues --   -0.64188  -0.62477  -0.62187  -0.61816  -0.60557
 Alpha  occ. eigenvalues --   -0.60463  -0.60034  -0.59454  -0.59148  -0.59122
 Alpha  occ. eigenvalues --   -0.57783  -0.56946  -0.56517  -0.55385  -0.54663
 Alpha  occ. eigenvalues --   -0.54209  -0.53555  -0.53200  -0.52028  -0.51374
 Alpha  occ. eigenvalues --   -0.51204  -0.50813  -0.50645  -0.50406  -0.49875
 Alpha  occ. eigenvalues --   -0.49413  -0.49099  -0.47940  -0.47580  -0.46522
 Alpha  occ. eigenvalues --   -0.46306  -0.45861  -0.45566  -0.45103  -0.44622
 Alpha  occ. eigenvalues --   -0.44268  -0.43854  -0.42746  -0.42668  -0.42407
 Alpha  occ. eigenvalues --   -0.41806  -0.41714  -0.41474  -0.41174  -0.40692
 Alpha  occ. eigenvalues --   -0.40527  -0.40392  -0.40175  -0.40007  -0.39841
 Alpha  occ. eigenvalues --   -0.39765  -0.39660  -0.39211  -0.39127  -0.39017
 Alpha  occ. eigenvalues --   -0.38730  -0.38581  -0.38420  -0.38333  -0.38106
 Alpha  occ. eigenvalues --   -0.38054  -0.37936  -0.37552  -0.37415  -0.37271
 Alpha  occ. eigenvalues --   -0.37173  -0.37062  -0.36725  -0.36627  -0.36506
 Alpha  occ. eigenvalues --   -0.36238  -0.36060  -0.35852  -0.35793  -0.35560
 Alpha  occ. eigenvalues --   -0.35383  -0.35186  -0.35012  -0.34657  -0.34592
 Alpha  occ. eigenvalues --   -0.34362  -0.34121  -0.33956  -0.33765  -0.33669
 Alpha  occ. eigenvalues --   -0.33415  -0.33279  -0.33229  -0.33051  -0.32771
 Alpha  occ. eigenvalues --   -0.32668  -0.32641  -0.32393  -0.32344  -0.32084
 Alpha  occ. eigenvalues --   -0.31990  -0.31784  -0.31690  -0.31433  -0.31253
 Alpha  occ. eigenvalues --   -0.31095  -0.30810  -0.30774  -0.30590  -0.30405
 Alpha  occ. eigenvalues --   -0.30362  -0.30179  -0.30108  -0.29751  -0.29737
 Alpha  occ. eigenvalues --   -0.29599  -0.29518  -0.29208  -0.29019  -0.28917
 Alpha  occ. eigenvalues --   -0.28715  -0.28601  -0.28481  -0.28082  -0.28021
 Alpha  occ. eigenvalues --   -0.27637  -0.27041  -0.26738  -0.26662  -0.26191
 Alpha  occ. eigenvalues --   -0.26176  -0.25756  -0.25679  -0.25356  -0.25143
 Alpha  occ. eigenvalues --   -0.24918  -0.24516  -0.24276  -0.23898  -0.23885
 Alpha  occ. eigenvalues --   -0.22844  -0.22633  -0.21982  -0.21744  -0.20579
 Alpha  occ. eigenvalues --   -0.20009  -0.19935  -0.19337  -0.18724  -0.17386
 Alpha  occ. eigenvalues --   -0.15520
 Alpha virt. eigenvalues --   -0.11412  -0.07160  -0.06542  -0.05327  -0.03975
 Alpha virt. eigenvalues --   -0.03127  -0.02415  -0.01835  -0.01197  -0.00012
 Alpha virt. eigenvalues --    0.01056   0.01908   0.02427   0.02846   0.03261

 Mulliken charges:
               1
     1  Mg   0.704601
     2  C   -0.048921
     3  C   -0.071922
     4  C   -0.033751
     5  C   -0.096386
     6  N   -0.215959
     7  C   -0.105953
     8  C   -0.014437
     9  C   -0.024732
    10  C    0.047942
    11  C    0.140861
    12  C    0.153539
    13  C    0.103503
    14  C    0.074753
    15  O   -0.170996
    16  O   -0.277219
    17  N   -0.357728
    18  C    0.144098
    19  C   -0.153191
    20  C    0.008769
    21  C    0.138934
    22  C    0.171492
    23  C   -0.016455
    24  O   -0.167536
    25  C    0.116051
    26  N   -0.250396
    27  C    0.026020
    28  C   -0.020750
    29  C    0.060103
    30  C    0.031070
    31  C    0.106142
    32  C    0.053073
    33  C    0.071100
    34  N   -0.270464
    35  C    0.164083
    36  C   -0.199410
    37  C    0.126309
    38  C    0.090920
    39  C    0.165611
    40  C   -0.086764
    41  O   -0.164994
    42  C    0.131788
    43  C    0.164414
    44  O   -0.162642
    45  O   -0.296849
    46  C    0.209120
    47  C    0.302481
    48  C   -0.105090
    49  C   -0.139287
    50  C    0.152947
    51  C    0.139464
    52  C    0.077106
    53  C    0.084860
    54  C   -0.071680
    55  C    0.086516
    56  C    0.120869
    57  C    0.067800
    58  C    0.063540
    59  C   -0.032765
    60  C    0.101074
    61  C    0.092460
    62  C    0.046674
    63  C    0.137625
    64  C   -0.073428
    65  C    0.095720
    66  C    0.106375
    67  H   -0.039478
    68  H   -0.036620
    69  H   -0.059876
    70  H   -0.025099
    71  H   -0.020192
    72  H   -0.025825
    73  H    0.016425
    74  H   -0.006560
    75  H   -0.021085
    76  H   -0.020755
    77  H    0.021010
    78  H   -0.000771
    79  H    0.004199
    80  H   -0.032991
    81  H    0.010473
    82  H    0.012686
    83  H   -0.002313
    84  H   -0.016646
    85  H   -0.010862
    86  H   -0.018154
    87  H   -0.006918
    88  H    0.014932
    89  H   -0.014469
    90  H   -0.022536
    91  H   -0.016858
    92  H    0.001738
    93  H   -0.001195
    94  H    0.003567
    95  H   -0.000017
    96  H   -0.011090
    97  H    0.004630
    98  H    0.013110
    99  H    0.010018
   100  H    0.014645
   101  H    0.023528
   102  H    0.006385
   103  H   -0.017564
   104  H   -0.027484
   105  H   -0.027542
   106  H    0.012539
   107  H   -0.010940
   108  H   -0.040426
   109  H   -0.005140
   110  H   -0.011432
   111  H   -0.032710
   112  H   -0.034388
   113  H   -0.041662
   114  H   -0.027395
   115  H   -0.019500
   116  H   -0.004446
   117  H   -0.021105
   118  H   -0.029054
   119  H   -0.028596
   120  H   -0.025781
   121  H   -0.031414
   122  H   -0.023462
   123  H   -0.023663
   124  H   -0.045395
   125  H   -0.014338
   126  H   -0.019426
   127  H   -0.019734
   128  H   -0.047431
   129  H   -0.053299
   130  H   -0.042635
   131  H   -0.026634
   132  H   -0.042812
   133  H   -0.050460
   134  H   -0.033179
   135  H   -0.012644
   136  H   -0.025116
   137  H   -0.026974
   138  H   -0.011708
   139  H   -0.029841
   140  H   -0.024344
 Sum of Mulliken charges =  -0.00000

 Dipole moment (field-independent basis, Debye):
    X=             -3.1654    Y=              2.1229    Z=              0.9432  Tot=              3.9264
 Quadrupole moment (field-independent basis, Debye-Ang):
   XX=           -371.7560   YY=           -411.4195   ZZ=           -408.1004
   XY=             12.4529   XZ=             28.2968   YZ=             -6.6969

 Normal termination of Gaussian 16 at Sat Apr 30 02:53:45 2022.
