 Gaussian 16, Revision A.03,
 Gaussian 16:  ES64L-G16RevA.03 25-Dec-2016

 -----------------------------------
 #p cam-b3lyp/Def2SVP td=(nstates=5)
 -----------------------------------

 -----------------------------------------------------
 step_51_chromophore_7 TDDFT with cam-b3lyp functional
 -----------------------------------------------------
 Symbolic Z-matrix:
 Charge =  0 Multiplicity = 1

                         Standard orientation:
 ---------------------------------------------------------------------
 Center     Atomic      Atomic             Coordinates (Angstroms)
 Number     Number       Type             X           Y           Z
 ---------------------------------------------------------------------
      1         12           0        5.954217    0.708698    0.183482
      2          6           0        3.636499   -2.054175    0.021004
      3          6           0        3.419665    2.777267   -0.924934
      4          6           0        8.206158    3.082430    0.225320
      5          6           0        8.483364   -1.815210    0.740066
      6          7           0        3.778372    0.381454   -0.251908
      7          6           0        3.075835   -0.813496   -0.253715
      8          6           0        1.597352   -0.573090   -0.430441
      9          6           0        1.552489    0.853397   -1.053801
     10          6           0        3.005231    1.410444   -0.776818
     11          6           0        1.215568    0.956210   -2.586846
     12          6           0        0.740219   -0.842411    0.884617
     13          6           0       -0.395113   -1.887486    0.830202
     14          6           0       -1.875302   -1.437154    1.212956
     15          8           0       -2.190511   -0.570586    1.985785
     16          8           0       -2.835627   -2.176064    0.562208
     17          7           0        5.912828    2.582764   -0.432881
     18          6           0        4.761843    3.309441   -0.818733
     19          6           0        5.241170    4.661337   -1.178005
     20          6           0        6.646910    4.752230   -0.882954
     21          6           0        6.978612    3.422950   -0.351546
     22          6           0        4.365374    5.689721   -1.713754
     23          6           0        7.736209    5.876708   -0.993021
     24          8           0        8.946138    5.639864   -0.983998
     25          6           0        7.242025    7.255575   -1.272578
     26          7           0        7.974043    0.625969    0.495319
     27          6           0        8.678242    1.789778    0.539970
     28          6           0       10.091925    1.521984    1.198749
     29          6           0       10.165386   -0.078301    1.273469
     30          6           0        8.806364   -0.427800    0.866695
     31          6           0       11.211689    2.236633    0.366922
     32          6           0       10.512444   -0.532072    2.769644
     33          6           0       11.473396   -1.804718    2.889323
     34          7           0        6.069385   -1.436762    0.264597
     35          6           0        7.213274   -2.235181    0.517212
     36          6           0        6.716657   -3.607275    0.415450
     37          6           0        5.334081   -3.590859    0.188767
     38          6           0        4.977735   -2.261880    0.211508
     39          6           0        7.522416   -4.874907    0.408574
     40          6           0        4.154476   -4.403499    0.129907
     41          8           0        4.025761   -5.651096    0.195816
     42          6           0        2.930106   -3.439712    0.070816
     43          6           0        2.100560   -3.839437   -1.091356
     44          8           0        2.244725   -3.599797   -2.275372
     45          8           0        1.062580   -4.628898   -0.555712
     46          6           0        0.056128   -5.122768   -1.471212
     47          6           0       -4.257839   -1.862023    0.937857
     48          6           0       -5.259679   -1.950866   -0.224102
     49          6           0       -6.167505   -2.988066   -0.355234
     50          6           0       -6.187005   -4.319863    0.258687
     51          6           0       -7.259077   -2.807774   -1.311982
     52          6           0       -8.057774   -1.502734   -1.077365
     53          6           0       -8.213816   -0.706650   -2.409355
     54          6           0       -9.645206   -0.252492   -2.766551
     55          6           0       -9.555696    0.361825   -4.251428
     56          6           0      -10.194586    0.895226   -1.822820
     57          6           0      -11.738274    0.831333   -1.680091
     58          6           0      -12.297824    1.113658   -0.264952
     59          6           0      -13.712808    0.479593   -0.047506
     60          6           0      -14.826716    0.979730   -1.015060
     61          6           0      -14.113753    0.508571    1.431851
     62          6           0      -14.548620    1.854903    2.014279
     63          6           0      -13.782445    2.359791    3.247828
     64          6           0      -12.505809    3.100783    2.877349
     65          6           0      -11.222191    2.292157    3.123523
     66          6           0      -12.340460    4.363007    3.700742
     67          1           0        2.617783    3.508563   -1.048765
     68          1           0        8.966622    3.843645    0.409871
     69          1           0        9.175057   -2.633054    0.950630
     70          1           0        1.274001   -1.293714   -1.181573
     71          1           0        0.851959    1.478030   -0.499622
     72          1           0        0.213347    1.385626   -2.565535
     73          1           0        1.099266   -0.002191   -3.093513
     74          1           0        1.785611    1.737430   -3.089513
     75          1           0        0.394919    0.178335    1.051028
     76          1           0        1.494288   -1.032844    1.648778
     77          1           0       -0.086947   -2.731363    1.447002
     78          1           0       -0.462575   -2.292949   -0.178872
     79          1           0        4.260739    6.547140   -1.050084
     80          1           0        3.361617    5.280624   -1.828769
     81          1           0        4.724134    5.986010   -2.699197
     82          1           0        6.644926    7.672258   -0.461495
     83          1           0        6.637753    7.356188   -2.174307
     84          1           0        8.001828    7.977361   -1.574095
     85          1           0       10.145338    1.913274    2.214732
     86          1           0       10.860951   -0.500643    0.547958
     87          1           0       11.648865    2.892223    1.120148
     88          1           0       10.795624    2.786711   -0.476977
     89          1           0       11.979080    1.610748   -0.087874
     90          1           0        9.496223   -0.694672    3.127575
     91          1           0       10.848397    0.260109    3.438741
     92          1           0       10.850942   -2.590157    3.317712
     93          1           0       12.268805   -1.561427    3.592691
     94          1           0       11.872506   -2.141067    1.932464
     95          1           0        6.882311   -5.747100    0.281213
     96          1           0        7.996271   -5.093275    1.365989
     97          1           0        8.272958   -4.804511   -0.378453
     98          1           0        2.491705   -3.386899    1.067680
     99          1           0       -0.335500   -6.051741   -1.056899
    100          1           0        0.559921   -5.428428   -2.388303
    101          1           0       -0.747819   -4.402324   -1.620635
    102          1           0       -4.448410   -0.878619    1.366202
    103          1           0       -4.592298   -2.581835    1.684737
    104          1           0       -5.396115   -1.013700   -0.763185
    105          1           0       -5.422551   -4.494256    1.016224
    106          1           0       -6.181682   -5.164252   -0.430547
    107          1           0       -7.045531   -4.453378    0.916496
    108          1           0       -7.930580   -3.666143   -1.312867
    109          1           0       -6.791908   -2.746308   -2.294682
    110          1           0       -7.604456   -0.959471   -0.247456
    111          1           0       -9.046793   -1.824953   -0.751871
    112          1           0       -7.689870   -1.196930   -3.229827
    113          1           0       -7.611364    0.198628   -2.344247
    114          1           0      -10.312434   -1.112521   -2.820766
    115          1           0       -9.897897   -0.434870   -4.911659
    116          1           0       -8.590318    0.745691   -4.583062
    117          1           0      -10.296770    1.158965   -4.309032
    118          1           0      -10.003567    1.902855   -2.191930
    119          1           0       -9.726845    0.830274   -0.840441
    120          1           0      -12.177588   -0.069687   -2.109606
    121          1           0      -12.163600    1.662867   -2.242034
    122          1           0      -12.496672    2.180960   -0.169253
    123          1           0      -11.625664    0.789343    0.529996
    124          1           0      -13.646425   -0.596830   -0.207811
    125          1           0      -15.701190    1.433528   -0.550202
    126          1           0      -15.261459    0.143782   -1.562756
    127          1           0      -14.434086    1.696368   -1.737000
    128          1           0      -13.383954   -0.008403    2.055170
    129          1           0      -14.984542   -0.083457    1.712198
    130          1           0      -15.586794    1.677573    2.295321
    131          1           0      -14.516309    2.668544    1.289942
    132          1           0      -13.637657    1.564860    3.979597
    133          1           0      -14.464058    3.021282    3.782782
    134          1           0      -12.453636    3.382234    1.825648
    135          1           0      -10.590534    2.544272    3.975312
    136          1           0      -10.615075    2.393988    2.223227
    137          1           0      -11.400546    1.217637    3.136544
    138          1           0      -12.837154    4.385884    4.670499
    139          1           0      -12.772699    5.204766    3.158309
    140          1           0      -11.270848    4.540969    3.812047
 ---------------------------------------------------------------------

 SCF Done:  E(RCAM-B3LYP) =  -3007.15652133     A.U. after   19 cycles

 Excitation energies and oscillator strengths:

 Excited State   1:      Singlet-A      1.6461 eV  753.18 nm  f=0.3726  <S**2>=0.000
     245 -> 248       -0.18242
     246 -> 247        0.68518
     245 <- 248       -0.11193
 This state for optimization and/or second-order correction.
 Total Energy, E(TD-HF/TD-DFT) =  -3007.09602647
 Copying the excited state density for this state as the 1-particle RhoCI density.

 Excited State   2:      Singlet-A      2.2529 eV  550.33 nm  f=0.0620  <S**2>=0.000
     245 -> 247        0.60878
     246 -> 248        0.34650

 Excited State   3:      Singlet-A      3.3009 eV  375.61 nm  f=0.0110  <S**2>=0.000
     244 -> 247        0.67494
     246 -> 248       -0.14200

 Excited State   4:      Singlet-A      3.4071 eV  363.90 nm  f=0.6067  <S**2>=0.000
     242 -> 247       -0.29545
     244 -> 247        0.10567
     245 -> 247       -0.29849
     246 -> 248        0.55046
     245 <- 247        0.10219

 Excited State   5:      Singlet-A      3.4865 eV  355.61 nm  f=0.0249  <S**2>=0.000
     240 -> 247        0.41610
     240 -> 249       -0.29919
     240 -> 250        0.15042
     241 -> 247        0.25617
     241 -> 249       -0.17467
     242 -> 247       -0.26364

 The electronic state is 1-A.
 Alpha  occ. eigenvalues --  -46.87040 -19.24336 -19.24284 -19.20966 -19.19665
 Alpha  occ. eigenvalues --  -19.19450 -19.18905 -14.42176 -14.42020 -14.39545
 Alpha  occ. eigenvalues --  -14.38548 -10.40157 -10.39343 -10.36215 -10.35243
 Alpha  occ. eigenvalues --  -10.31681 -10.31554 -10.31032 -10.30952 -10.30836
 Alpha  occ. eigenvalues --  -10.30710 -10.30680 -10.29932 -10.29245 -10.28962
 Alpha  occ. eigenvalues --  -10.28557 -10.28320 -10.28276 -10.28050 -10.27999
 Alpha  occ. eigenvalues --  -10.27857 -10.27802 -10.27660 -10.27609 -10.27481
 Alpha  occ. eigenvalues --  -10.27326 -10.27266 -10.27186 -10.27000 -10.26813
 Alpha  occ. eigenvalues --  -10.26650 -10.26422 -10.26223 -10.26206 -10.26164
 Alpha  occ. eigenvalues --  -10.26130 -10.26026 -10.25855 -10.25730 -10.25370
 Alpha  occ. eigenvalues --  -10.25331 -10.25291 -10.25174 -10.25154 -10.25099
 Alpha  occ. eigenvalues --  -10.25071 -10.25058 -10.24899 -10.24758 -10.24604
 Alpha  occ. eigenvalues --  -10.24489 -10.24205 -10.24188 -10.24144 -10.23822
 Alpha  occ. eigenvalues --  -10.23821  -3.15842  -1.90734  -1.90298  -1.90158
 Alpha  occ. eigenvalues --   -1.15840  -1.15662  -1.10023  -1.08125  -1.08043
 Alpha  occ. eigenvalues --   -1.07005  -1.03426  -1.02583  -1.02033  -1.01235
 Alpha  occ. eigenvalues --   -0.93042  -0.91454  -0.89909  -0.88937  -0.88695
 Alpha  occ. eigenvalues --   -0.88596  -0.87651  -0.87393  -0.86851  -0.86686
 Alpha  occ. eigenvalues --   -0.85749  -0.84817  -0.84217  -0.83697  -0.82984
 Alpha  occ. eigenvalues --   -0.82389  -0.82042  -0.81470  -0.81056  -0.80353
 Alpha  occ. eigenvalues --   -0.79977  -0.78176  -0.77825  -0.77380  -0.75953
 Alpha  occ. eigenvalues --   -0.75822  -0.75392  -0.74740  -0.74389  -0.74342
 Alpha  occ. eigenvalues --   -0.72757  -0.71916  -0.71401  -0.70149  -0.69284
 Alpha  occ. eigenvalues --   -0.68846  -0.68211  -0.67632  -0.66460  -0.65646
 Alpha  occ. eigenvalues --   -0.65272  -0.64896  -0.64622  -0.64546  -0.63842
 Alpha  occ. eigenvalues --   -0.63400  -0.62762  -0.61664  -0.61308  -0.60144
 Alpha  occ. eigenvalues --   -0.59710  -0.59451  -0.59161  -0.58698  -0.58028
 Alpha  occ. eigenvalues --   -0.57697  -0.57377  -0.55905  -0.55790  -0.55503
 Alpha  occ. eigenvalues --   -0.54907  -0.54576  -0.54487  -0.54125  -0.53852
 Alpha  occ. eigenvalues --   -0.53539  -0.53160  -0.53086  -0.52993  -0.52782
 Alpha  occ. eigenvalues --   -0.52399  -0.52296  -0.51949  -0.51786  -0.51545
 Alpha  occ. eigenvalues --   -0.51346  -0.51013  -0.50937  -0.50628  -0.50557
 Alpha  occ. eigenvalues --   -0.50388  -0.50356  -0.49865  -0.49796  -0.49515
 Alpha  occ. eigenvalues --   -0.49475  -0.49399  -0.49203  -0.48965  -0.48723
 Alpha  occ. eigenvalues --   -0.48621  -0.48531  -0.48176  -0.47836  -0.47644
 Alpha  occ. eigenvalues --   -0.47466  -0.47380  -0.46943  -0.46734  -0.46528
 Alpha  occ. eigenvalues --   -0.46287  -0.46036  -0.45628  -0.45553  -0.45476
 Alpha  occ. eigenvalues --   -0.45419  -0.45049  -0.44932  -0.44682  -0.44568
 Alpha  occ. eigenvalues --   -0.44430  -0.44241  -0.44107  -0.43880  -0.43608
 Alpha  occ. eigenvalues --   -0.43484  -0.43338  -0.43179  -0.43031  -0.42767
 Alpha  occ. eigenvalues --   -0.42427  -0.42283  -0.42178  -0.42125  -0.41969
 Alpha  occ. eigenvalues --   -0.41738  -0.41580  -0.41442  -0.41074  -0.40943
 Alpha  occ. eigenvalues --   -0.40865  -0.40815  -0.40662  -0.40561  -0.40082
 Alpha  occ. eigenvalues --   -0.39798  -0.39750  -0.39736  -0.39122  -0.38939
 Alpha  occ. eigenvalues --   -0.38517  -0.37801  -0.37548  -0.37505  -0.37012
 Alpha  occ. eigenvalues --   -0.36919  -0.36827  -0.36576  -0.36414  -0.36117
 Alpha  occ. eigenvalues --   -0.35945  -0.35682  -0.35250  -0.34737  -0.34349
 Alpha  occ. eigenvalues --   -0.34004  -0.33572  -0.33404  -0.31677  -0.31095
 Alpha  occ. eigenvalues --   -0.30688  -0.29853  -0.29542  -0.29164  -0.24233
 Alpha  occ. eigenvalues --   -0.20659
 Alpha virt. eigenvalues --   -0.08461  -0.02057  -0.00139   0.01637   0.02890
 Alpha virt. eigenvalues --    0.03344   0.04520   0.05733   0.06111   0.07127
 Alpha virt. eigenvalues --    0.07673   0.08416   0.08668   0.09109   0.09464

 Mulliken charges:
               1
     1  Mg   0.837908
     2  C   -0.078580
     3  C   -0.086293
     4  C   -0.053040
     5  C   -0.097634
     6  N   -0.285297
     7  C   -0.054916
     8  C   -0.062287
     9  C   -0.074308
    10  C    0.062501
    11  C    0.082016
    12  C    0.097540
    13  C    0.036411
    14  C    0.158809
    15  O   -0.213807
    16  O   -0.342794
    17  N   -0.446531
    18  C    0.151796
    19  C   -0.161128
    20  C   -0.051880
    21  C    0.161722
    22  C    0.110951
    23  C    0.060941
    24  O   -0.206166
    25  C    0.032542
    26  N   -0.324664
    27  C    0.042815
    28  C   -0.065712
    29  C   -0.003719
    30  C    0.050353
    31  C    0.046596
    32  C    0.003633
    33  C    0.007845
    34  N   -0.355552
    35  C    0.164273
    36  C   -0.187320
    37  C    0.042854
    38  C    0.131513
    39  C    0.107577
    40  C    0.014043
    41  O   -0.202577
    42  C    0.054525
    43  C    0.244621
    44  O   -0.197529
    45  O   -0.359640
    46  C    0.171339
    47  C    0.270534
    48  C   -0.124272
    49  C   -0.157355
    50  C    0.083542
    51  C    0.077174
    52  C    0.016275
    53  C    0.034527
    54  C   -0.126597
    55  C    0.031073
    56  C    0.066106
    57  C    0.018114
    58  C    0.016621
    59  C   -0.089901
    60  C    0.038340
    61  C    0.041856
    62  C   -0.010663
    63  C    0.081082
    64  C   -0.136838
    65  C    0.036239
    66  C    0.047767
    67  H   -0.006042
    68  H    0.002425
    69  H   -0.022774
    70  H    0.007841
    71  H    0.013704
    72  H   -0.000857
    73  H    0.040568
    74  H    0.020146
    75  H    0.012389
    76  H    0.011611
    77  H    0.051382
    78  H    0.027321
    79  H    0.029711
    80  H   -0.004556
    81  H    0.035788
    82  H    0.040354
    83  H    0.026058
    84  H    0.018834
    85  H    0.021651
    86  H    0.016177
    87  H    0.016330
    88  H    0.040138
    89  H    0.010942
    90  H    0.007234
    91  H    0.011180
    92  H    0.023604
    93  H    0.022831
    94  H    0.024738
    95  H    0.030501
    96  H    0.015188
    97  H    0.029903
    98  H    0.055688
    99  H    0.033506
   100  H    0.039565
   101  H    0.042423
   102  H    0.037681
   103  H    0.009445
   104  H    0.003577
   105  H   -0.000377
   106  H    0.037956
   107  H    0.015333
   108  H   -0.007727
   109  H    0.024637
   110  H    0.017564
   111  H   -0.003581
   112  H   -0.004664
   113  H   -0.013897
   114  H    0.003000
   115  H    0.004988
   116  H    0.018641
   117  H    0.001860
   118  H    0.000297
   119  H   -0.002520
   120  H    0.001101
   121  H   -0.005801
   122  H    0.000143
   123  H    0.000872
   124  H   -0.012059
   125  H    0.010216
   126  H    0.006139
   127  H    0.003971
   128  H   -0.018194
   129  H   -0.020920
   130  H   -0.011716
   131  H   -0.000484
   132  H   -0.013222
   133  H   -0.018311
   134  H   -0.001426
   135  H    0.013157
   136  H   -0.001715
   137  H   -0.004889
   138  H    0.012018
   139  H   -0.004706
   140  H    0.000739
 Sum of Mulliken charges =  -0.00000

 Dipole moment (field-independent basis, Debye):
    X=             -3.1973    Y=              2.4543    Z=              0.9998  Tot=              4.1529
 Quadrupole moment (field-independent basis, Debye-Ang):
   XX=           -369.9440   YY=           -406.4017   ZZ=           -408.1060
   XY=             14.3681   XZ=             28.7301   YZ=             -7.7658

 Normal termination of Gaussian 16 at Sat Apr 30 01:36:03 2022.
