 Gaussian 16, Revision A.03,
 Gaussian 16:  ES64L-G16RevA.03 25-Dec-2016

 ---------------------------------
 #p PBE1PBE/Def2SVP td=(nstates=5)
 ---------------------------------

 ---------------------------------------------------
 step_51_chromophore_7 TDDFT with PBE1PBE functional
 ---------------------------------------------------
 Symbolic Z-matrix:
 Charge =  0 Multiplicity = 1

                         Standard orientation:
 ---------------------------------------------------------------------
 Center     Atomic      Atomic             Coordinates (Angstroms)
 Number     Number       Type             X           Y           Z
 ---------------------------------------------------------------------
      1         12           0        5.954217    0.708698    0.183482
      2          6           0        3.636499   -2.054175    0.021004
      3          6           0        3.419665    2.777267   -0.924934
      4          6           0        8.206158    3.082430    0.225320
      5          6           0        8.483364   -1.815210    0.740066
      6          7           0        3.778372    0.381454   -0.251908
      7          6           0        3.075835   -0.813496   -0.253715
      8          6           0        1.597352   -0.573090   -0.430441
      9          6           0        1.552489    0.853397   -1.053801
     10          6           0        3.005231    1.410444   -0.776818
     11          6           0        1.215568    0.956210   -2.586846
     12          6           0        0.740219   -0.842411    0.884617
     13          6           0       -0.395113   -1.887486    0.830202
     14          6           0       -1.875302   -1.437154    1.212956
     15          8           0       -2.190511   -0.570586    1.985785
     16          8           0       -2.835627   -2.176064    0.562208
     17          7           0        5.912828    2.582764   -0.432881
     18          6           0        4.761843    3.309441   -0.818733
     19          6           0        5.241170    4.661337   -1.178005
     20          6           0        6.646910    4.752230   -0.882954
     21          6           0        6.978612    3.422950   -0.351546
     22          6           0        4.365374    5.689721   -1.713754
     23          6           0        7.736209    5.876708   -0.993021
     24          8           0        8.946138    5.639864   -0.983998
     25          6           0        7.242025    7.255575   -1.272578
     26          7           0        7.974043    0.625969    0.495319
     27          6           0        8.678242    1.789778    0.539970
     28          6           0       10.091925    1.521984    1.198749
     29          6           0       10.165386   -0.078301    1.273469
     30          6           0        8.806364   -0.427800    0.866695
     31          6           0       11.211689    2.236633    0.366922
     32          6           0       10.512444   -0.532072    2.769644
     33          6           0       11.473396   -1.804718    2.889323
     34          7           0        6.069385   -1.436762    0.264597
     35          6           0        7.213274   -2.235181    0.517212
     36          6           0        6.716657   -3.607275    0.415450
     37          6           0        5.334081   -3.590859    0.188767
     38          6           0        4.977735   -2.261880    0.211508
     39          6           0        7.522416   -4.874907    0.408574
     40          6           0        4.154476   -4.403499    0.129907
     41          8           0        4.025761   -5.651096    0.195816
     42          6           0        2.930106   -3.439712    0.070816
     43          6           0        2.100560   -3.839437   -1.091356
     44          8           0        2.244725   -3.599797   -2.275372
     45          8           0        1.062580   -4.628898   -0.555712
     46          6           0        0.056128   -5.122768   -1.471212
     47          6           0       -4.257839   -1.862023    0.937857
     48          6           0       -5.259679   -1.950866   -0.224102
     49          6           0       -6.167505   -2.988066   -0.355234
     50          6           0       -6.187005   -4.319863    0.258687
     51          6           0       -7.259077   -2.807774   -1.311982
     52          6           0       -8.057774   -1.502734   -1.077365
     53          6           0       -8.213816   -0.706650   -2.409355
     54          6           0       -9.645206   -0.252492   -2.766551
     55          6           0       -9.555696    0.361825   -4.251428
     56          6           0      -10.194586    0.895226   -1.822820
     57          6           0      -11.738274    0.831333   -1.680091
     58          6           0      -12.297824    1.113658   -0.264952
     59          6           0      -13.712808    0.479593   -0.047506
     60          6           0      -14.826716    0.979730   -1.015060
     61          6           0      -14.113753    0.508571    1.431851
     62          6           0      -14.548620    1.854903    2.014279
     63          6           0      -13.782445    2.359791    3.247828
     64          6           0      -12.505809    3.100783    2.877349
     65          6           0      -11.222191    2.292157    3.123523
     66          6           0      -12.340460    4.363007    3.700742
     67          1           0        2.617783    3.508563   -1.048765
     68          1           0        8.966622    3.843645    0.409871
     69          1           0        9.175057   -2.633054    0.950630
     70          1           0        1.274001   -1.293714   -1.181573
     71          1           0        0.851959    1.478030   -0.499622
     72          1           0        0.213347    1.385626   -2.565535
     73          1           0        1.099266   -0.002191   -3.093513
     74          1           0        1.785611    1.737430   -3.089513
     75          1           0        0.394919    0.178335    1.051028
     76          1           0        1.494288   -1.032844    1.648778
     77          1           0       -0.086947   -2.731363    1.447002
     78          1           0       -0.462575   -2.292949   -0.178872
     79          1           0        4.260739    6.547140   -1.050084
     80          1           0        3.361617    5.280624   -1.828769
     81          1           0        4.724134    5.986010   -2.699197
     82          1           0        6.644926    7.672258   -0.461495
     83          1           0        6.637753    7.356188   -2.174307
     84          1           0        8.001828    7.977361   -1.574095
     85          1           0       10.145338    1.913274    2.214732
     86          1           0       10.860951   -0.500643    0.547958
     87          1           0       11.648865    2.892223    1.120148
     88          1           0       10.795624    2.786711   -0.476977
     89          1           0       11.979080    1.610748   -0.087874
     90          1           0        9.496223   -0.694672    3.127575
     91          1           0       10.848397    0.260109    3.438741
     92          1           0       10.850942   -2.590157    3.317712
     93          1           0       12.268805   -1.561427    3.592691
     94          1           0       11.872506   -2.141067    1.932464
     95          1           0        6.882311   -5.747100    0.281213
     96          1           0        7.996271   -5.093275    1.365989
     97          1           0        8.272958   -4.804511   -0.378453
     98          1           0        2.491705   -3.386899    1.067680
     99          1           0       -0.335500   -6.051741   -1.056899
    100          1           0        0.559921   -5.428428   -2.388303
    101          1           0       -0.747819   -4.402324   -1.620635
    102          1           0       -4.448410   -0.878619    1.366202
    103          1           0       -4.592298   -2.581835    1.684737
    104          1           0       -5.396115   -1.013700   -0.763185
    105          1           0       -5.422551   -4.494256    1.016224
    106          1           0       -6.181682   -5.164252   -0.430547
    107          1           0       -7.045531   -4.453378    0.916496
    108          1           0       -7.930580   -3.666143   -1.312867
    109          1           0       -6.791908   -2.746308   -2.294682
    110          1           0       -7.604456   -0.959471   -0.247456
    111          1           0       -9.046793   -1.824953   -0.751871
    112          1           0       -7.689870   -1.196930   -3.229827
    113          1           0       -7.611364    0.198628   -2.344247
    114          1           0      -10.312434   -1.112521   -2.820766
    115          1           0       -9.897897   -0.434870   -4.911659
    116          1           0       -8.590318    0.745691   -4.583062
    117          1           0      -10.296770    1.158965   -4.309032
    118          1           0      -10.003567    1.902855   -2.191930
    119          1           0       -9.726845    0.830274   -0.840441
    120          1           0      -12.177588   -0.069687   -2.109606
    121          1           0      -12.163600    1.662867   -2.242034
    122          1           0      -12.496672    2.180960   -0.169253
    123          1           0      -11.625664    0.789343    0.529996
    124          1           0      -13.646425   -0.596830   -0.207811
    125          1           0      -15.701190    1.433528   -0.550202
    126          1           0      -15.261459    0.143782   -1.562756
    127          1           0      -14.434086    1.696368   -1.737000
    128          1           0      -13.383954   -0.008403    2.055170
    129          1           0      -14.984542   -0.083457    1.712198
    130          1           0      -15.586794    1.677573    2.295321
    131          1           0      -14.516309    2.668544    1.289942
    132          1           0      -13.637657    1.564860    3.979597
    133          1           0      -14.464058    3.021282    3.782782
    134          1           0      -12.453636    3.382234    1.825648
    135          1           0      -10.590534    2.544272    3.975312
    136          1           0      -10.615075    2.393988    2.223227
    137          1           0      -11.400546    1.217637    3.136544
    138          1           0      -12.837154    4.385884    4.670499
    139          1           0      -12.772699    5.204766    3.158309
    140          1           0      -11.270848    4.540969    3.812047
 ---------------------------------------------------------------------

 SCF Done:  E(RPBE1PBE) =  -3005.34598710     A.U. after   16 cycles

 Excitation energies and oscillator strengths:

 Excited State   1:      Singlet-A      1.8080 eV  685.73 nm  f=0.3635  <S**2>=0.000
     245 -> 248       -0.17301
     246 -> 247        0.69332
     246 <- 247       -0.11119
 This state for optimization and/or second-order correction.
 Total Energy, E(TD-HF/TD-DFT) =  -3005.27954253
 Copying the excited state density for this state as the 1-particle RhoCI density.

 Excited State   2:      Singlet-A      2.2589 eV  548.87 nm  f=0.0668  <S**2>=0.000
     245 -> 247        0.62592
     246 -> 248        0.31168

 Excited State   3:      Singlet-A      2.9741 eV  416.88 nm  f=0.0021  <S**2>=0.000
     241 -> 247       -0.14199
     244 -> 247        0.67519

 Excited State   4:      Singlet-A      3.0652 eV  404.49 nm  f=0.0020  <S**2>=0.000
     241 -> 247        0.51581
     241 -> 249       -0.18102
     242 -> 247       -0.39337
     244 -> 247        0.13236

 Excited State   5:      Singlet-A      3.1653 eV  391.69 nm  f=0.0792  <S**2>=0.000
     241 -> 247        0.29952
     242 -> 247        0.46842
     245 -> 247        0.11958
     246 -> 248       -0.37395

 The electronic state is 1-A.
 Alpha  occ. eigenvalues --  -46.90455 -19.25045 -19.24908 -19.21107 -19.19892
 Alpha  occ. eigenvalues --  -19.19731 -19.19094 -14.41692 -14.41573 -14.39242
 Alpha  occ. eigenvalues --  -14.38259 -10.37091 -10.36395 -10.33364 -10.32333
 Alpha  occ. eigenvalues --  -10.29350 -10.29105 -10.28772 -10.28628 -10.28497
 Alpha  occ. eigenvalues --  -10.28387 -10.28135 -10.27645 -10.26928 -10.26540
 Alpha  occ. eigenvalues --  -10.26254 -10.26099 -10.25800 -10.25758 -10.25665
 Alpha  occ. eigenvalues --  -10.25604 -10.25473 -10.25421 -10.25334 -10.25298
 Alpha  occ. eigenvalues --  -10.25059 -10.24959 -10.24957 -10.24693 -10.24396
 Alpha  occ. eigenvalues --  -10.24383 -10.23841 -10.23760 -10.23708 -10.23626
 Alpha  occ. eigenvalues --  -10.23592 -10.23501 -10.23427 -10.23341 -10.22925
 Alpha  occ. eigenvalues --  -10.22873 -10.22753 -10.22748 -10.22744 -10.22743
 Alpha  occ. eigenvalues --  -10.22607 -10.22579 -10.22444 -10.22197 -10.22152
 Alpha  occ. eigenvalues --  -10.21991 -10.21738 -10.21714 -10.21689 -10.21216
 Alpha  occ. eigenvalues --  -10.21202  -3.12829  -1.85664  -1.85205  -1.85071
 Alpha  occ. eigenvalues --   -1.10662  -1.10342  -1.04754  -1.02903  -1.02699
 Alpha  occ. eigenvalues --   -1.01902  -0.98015  -0.97171  -0.96689  -0.95884
 Alpha  occ. eigenvalues --   -0.87390  -0.85616  -0.83970  -0.83252  -0.82896
 Alpha  occ. eigenvalues --   -0.82721  -0.81949  -0.81506  -0.81151  -0.80992
 Alpha  occ. eigenvalues --   -0.80073  -0.79039  -0.78396  -0.77954  -0.77200
 Alpha  occ. eigenvalues --   -0.76564  -0.76233  -0.75706  -0.75321  -0.74697
 Alpha  occ. eigenvalues --   -0.74125  -0.72510  -0.72080  -0.71702  -0.70231
 Alpha  occ. eigenvalues --   -0.70022  -0.69475  -0.68848  -0.68720  -0.68548
 Alpha  occ. eigenvalues --   -0.67100  -0.66341  -0.65845  -0.64450  -0.63610
 Alpha  occ. eigenvalues --   -0.63064  -0.62639  -0.61875  -0.60918  -0.59811
 Alpha  occ. eigenvalues --   -0.59704  -0.59355  -0.59210  -0.59075  -0.57992
 Alpha  occ. eigenvalues --   -0.57553  -0.57344  -0.56220  -0.55548  -0.54690
 Alpha  occ. eigenvalues --   -0.54096  -0.53984  -0.53597  -0.53167  -0.52656
 Alpha  occ. eigenvalues --   -0.52293  -0.51766  -0.50437  -0.50313  -0.49949
 Alpha  occ. eigenvalues --   -0.49508  -0.49043  -0.48831  -0.48681  -0.48445
 Alpha  occ. eigenvalues --   -0.48049  -0.47665  -0.47618  -0.47452  -0.47367
 Alpha  occ. eigenvalues --   -0.46809  -0.46763  -0.46514  -0.46397  -0.46014
 Alpha  occ. eigenvalues --   -0.45958  -0.45547  -0.45482  -0.45179  -0.45158
 Alpha  occ. eigenvalues --   -0.44931  -0.44907  -0.44438  -0.44425  -0.44091
 Alpha  occ. eigenvalues --   -0.44030  -0.43918  -0.43820  -0.43555  -0.43296
 Alpha  occ. eigenvalues --   -0.43265  -0.43171  -0.42826  -0.42446  -0.42259
 Alpha  occ. eigenvalues --   -0.42151  -0.42025  -0.41663  -0.41438  -0.41174
 Alpha  occ. eigenvalues --   -0.40961  -0.40726  -0.40319  -0.40255  -0.40129
 Alpha  occ. eigenvalues --   -0.40091  -0.39749  -0.39658  -0.39462  -0.39263
 Alpha  occ. eigenvalues --   -0.39183  -0.38951  -0.38869  -0.38526  -0.38407
 Alpha  occ. eigenvalues --   -0.38246  -0.38180  -0.37922  -0.37784  -0.37536
 Alpha  occ. eigenvalues --   -0.37198  -0.37107  -0.37030  -0.36807  -0.36752
 Alpha  occ. eigenvalues --   -0.36544  -0.36425  -0.36252  -0.35859  -0.35824
 Alpha  occ. eigenvalues --   -0.35685  -0.35640  -0.35356  -0.35342  -0.35031
 Alpha  occ. eigenvalues --   -0.34716  -0.34667  -0.34501  -0.34043  -0.33761
 Alpha  occ. eigenvalues --   -0.33278  -0.32584  -0.32520  -0.32321  -0.32061
 Alpha  occ. eigenvalues --   -0.31940  -0.31697  -0.31460  -0.31338  -0.31052
 Alpha  occ. eigenvalues --   -0.31006  -0.30642  -0.29978  -0.29656  -0.29229
 Alpha  occ. eigenvalues --   -0.28995  -0.28871  -0.28707  -0.26766  -0.26283
 Alpha  occ. eigenvalues --   -0.25800  -0.25427  -0.24931  -0.24793  -0.21133
 Alpha  occ. eigenvalues --   -0.18368
 Alpha virt. eigenvalues --   -0.10959  -0.05512  -0.04329  -0.02759  -0.01101
 Alpha virt. eigenvalues --   -0.00353   0.00232   0.01439   0.01516   0.03005
 Alpha virt. eigenvalues --    0.04108   0.04393   0.05398   0.05763   0.06215

 Mulliken charges:
               1
     1  Mg   0.992155
     2  C   -0.087932
     3  C   -0.082987
     4  C   -0.043718
     5  C   -0.077300
     6  N   -0.385084
     7  C    0.019063
     8  C   -0.121419
     9  C   -0.155013
    10  C    0.098063
    11  C    0.025601
    12  C    0.049353
    13  C   -0.047350
    14  C    0.227380
    15  O   -0.247315
    16  O   -0.372216
    17  N   -0.563828
    18  C    0.177145
    19  C   -0.201573
    20  C   -0.081598
    21  C    0.187940
    22  C    0.051331
    23  C    0.102907
    24  O   -0.241695
    25  C   -0.034137
    26  N   -0.432089
    27  C    0.073202
    28  C   -0.137703
    29  C   -0.083244
    30  C    0.082718
    31  C   -0.009474
    32  C   -0.047464
    33  C   -0.066870
    34  N   -0.476092
    35  C    0.178383
    36  C   -0.207398
    37  C    0.002815
    38  C    0.179944
    39  C    0.053076
    40  C    0.104694
    41  O   -0.247345
    42  C   -0.052230
    43  C    0.321461
    44  O   -0.234673
    45  O   -0.389650
    46  C    0.118220
    47  C    0.226221
    48  C   -0.136652
    49  C   -0.200183
    50  C    0.018600
    51  C    0.018190
    52  C   -0.049856
    53  C   -0.015043
    54  C   -0.216359
    55  C   -0.028140
    56  C    0.011206
    57  C   -0.039943
    58  C   -0.043136
    59  C   -0.180672
    60  C   -0.019500
    61  C   -0.004896
    62  C   -0.078497
    63  C    0.028558
    64  C   -0.233833
    65  C   -0.024192
    66  C   -0.011614
    67  H    0.025095
    68  H    0.034050
    69  H    0.009464
    70  H    0.051797
    71  H    0.049141
    72  H    0.027693
    73  H    0.066524
    74  H    0.047990
    75  H    0.045419
    76  H    0.044994
    77  H    0.082760
    78  H    0.063293
    79  H    0.057312
    80  H    0.024267
    81  H    0.063576
    82  H    0.066491
    83  H    0.051728
    84  H    0.045902
    85  H    0.057645
    86  H    0.052287
    87  H    0.043538
    88  H    0.067152
    89  H    0.038551
    90  H    0.040922
    91  H    0.042016
    92  H    0.051016
    93  H    0.050733
    94  H    0.050816
    95  H    0.057922
    96  H    0.042857
    97  H    0.057096
    98  H    0.092617
    99  H    0.055505
   100  H    0.060815
   101  H    0.063194
   102  H    0.064183
   103  H    0.037392
   104  H    0.033737
   105  H    0.027142
   106  H    0.064982
   107  H    0.044165
   108  H    0.024084
   109  H    0.058007
   110  H    0.049332
   111  H    0.030942
   112  H    0.026869
   113  H    0.019264
   114  H    0.039115
   115  H    0.033689
   116  H    0.044703
   117  H    0.030507
   118  H    0.032625
   119  H    0.030503
   120  H    0.031867
   121  H    0.026848
   122  H    0.034673
   123  H    0.034419
   124  H    0.027198
   125  H    0.037077
   126  H    0.033605
   127  H    0.031190
   128  H    0.013771
   129  H    0.012087
   130  H    0.021371
   131  H    0.032075
   132  H    0.018766
   133  H    0.015203
   134  H    0.037158
   135  H    0.040036
   136  H    0.026483
   137  H    0.022728
   138  H    0.038765
   139  H    0.024108
   140  H    0.028843
 Sum of Mulliken charges =  -0.00000

 Dipole moment (field-independent basis, Debye):
    X=             -3.2354    Y=              2.5027    Z=              1.0311  Tot=              4.2183
 Quadrupole moment (field-independent basis, Debye-Ang):
   XX=           -363.4805   YY=           -403.4716   ZZ=           -405.4919
   XY=             14.2613   XZ=             29.7781   YZ=             -8.0227

 Normal termination of Gaussian 16 at Sat Apr 30 02:07:29 2022.
