 Gaussian 16, Revision A.03,
 Gaussian 16:  ES64L-G16RevA.03 25-Dec-2016

 --------------------------------
 #p wB97XD/Def2SVP td=(nstates=5)
 --------------------------------

 --------------------------------------------------
 step_51_chromophore_7 TDDFT with wB97XD functional
 --------------------------------------------------
 Symbolic Z-matrix:
 Charge =  0 Multiplicity = 1

                         Standard orientation:
 ---------------------------------------------------------------------
 Center     Atomic      Atomic             Coordinates (Angstroms)
 Number     Number       Type             X           Y           Z
 ---------------------------------------------------------------------
      1         12           0        5.954217    0.708698    0.183482
      2          6           0        3.636499   -2.054175    0.021004
      3          6           0        3.419665    2.777267   -0.924934
      4          6           0        8.206158    3.082430    0.225320
      5          6           0        8.483364   -1.815210    0.740066
      6          7           0        3.778372    0.381454   -0.251908
      7          6           0        3.075835   -0.813496   -0.253715
      8          6           0        1.597352   -0.573090   -0.430441
      9          6           0        1.552489    0.853397   -1.053801
     10          6           0        3.005231    1.410444   -0.776818
     11          6           0        1.215568    0.956210   -2.586846
     12          6           0        0.740219   -0.842411    0.884617
     13          6           0       -0.395113   -1.887486    0.830202
     14          6           0       -1.875302   -1.437154    1.212956
     15          8           0       -2.190511   -0.570586    1.985785
     16          8           0       -2.835627   -2.176064    0.562208
     17          7           0        5.912828    2.582764   -0.432881
     18          6           0        4.761843    3.309441   -0.818733
     19          6           0        5.241170    4.661337   -1.178005
     20          6           0        6.646910    4.752230   -0.882954
     21          6           0        6.978612    3.422950   -0.351546
     22          6           0        4.365374    5.689721   -1.713754
     23          6           0        7.736209    5.876708   -0.993021
     24          8           0        8.946138    5.639864   -0.983998
     25          6           0        7.242025    7.255575   -1.272578
     26          7           0        7.974043    0.625969    0.495319
     27          6           0        8.678242    1.789778    0.539970
     28          6           0       10.091925    1.521984    1.198749
     29          6           0       10.165386   -0.078301    1.273469
     30          6           0        8.806364   -0.427800    0.866695
     31          6           0       11.211689    2.236633    0.366922
     32          6           0       10.512444   -0.532072    2.769644
     33          6           0       11.473396   -1.804718    2.889323
     34          7           0        6.069385   -1.436762    0.264597
     35          6           0        7.213274   -2.235181    0.517212
     36          6           0        6.716657   -3.607275    0.415450
     37          6           0        5.334081   -3.590859    0.188767
     38          6           0        4.977735   -2.261880    0.211508
     39          6           0        7.522416   -4.874907    0.408574
     40          6           0        4.154476   -4.403499    0.129907
     41          8           0        4.025761   -5.651096    0.195816
     42          6           0        2.930106   -3.439712    0.070816
     43          6           0        2.100560   -3.839437   -1.091356
     44          8           0        2.244725   -3.599797   -2.275372
     45          8           0        1.062580   -4.628898   -0.555712
     46          6           0        0.056128   -5.122768   -1.471212
     47          6           0       -4.257839   -1.862023    0.937857
     48          6           0       -5.259679   -1.950866   -0.224102
     49          6           0       -6.167505   -2.988066   -0.355234
     50          6           0       -6.187005   -4.319863    0.258687
     51          6           0       -7.259077   -2.807774   -1.311982
     52          6           0       -8.057774   -1.502734   -1.077365
     53          6           0       -8.213816   -0.706650   -2.409355
     54          6           0       -9.645206   -0.252492   -2.766551
     55          6           0       -9.555696    0.361825   -4.251428
     56          6           0      -10.194586    0.895226   -1.822820
     57          6           0      -11.738274    0.831333   -1.680091
     58          6           0      -12.297824    1.113658   -0.264952
     59          6           0      -13.712808    0.479593   -0.047506
     60          6           0      -14.826716    0.979730   -1.015060
     61          6           0      -14.113753    0.508571    1.431851
     62          6           0      -14.548620    1.854903    2.014279
     63          6           0      -13.782445    2.359791    3.247828
     64          6           0      -12.505809    3.100783    2.877349
     65          6           0      -11.222191    2.292157    3.123523
     66          6           0      -12.340460    4.363007    3.700742
     67          1           0        2.617783    3.508563   -1.048765
     68          1           0        8.966622    3.843645    0.409871
     69          1           0        9.175057   -2.633054    0.950630
     70          1           0        1.274001   -1.293714   -1.181573
     71          1           0        0.851959    1.478030   -0.499622
     72          1           0        0.213347    1.385626   -2.565535
     73          1           0        1.099266   -0.002191   -3.093513
     74          1           0        1.785611    1.737430   -3.089513
     75          1           0        0.394919    0.178335    1.051028
     76          1           0        1.494288   -1.032844    1.648778
     77          1           0       -0.086947   -2.731363    1.447002
     78          1           0       -0.462575   -2.292949   -0.178872
     79          1           0        4.260739    6.547140   -1.050084
     80          1           0        3.361617    5.280624   -1.828769
     81          1           0        4.724134    5.986010   -2.699197
     82          1           0        6.644926    7.672258   -0.461495
     83          1           0        6.637753    7.356188   -2.174307
     84          1           0        8.001828    7.977361   -1.574095
     85          1           0       10.145338    1.913274    2.214732
     86          1           0       10.860951   -0.500643    0.547958
     87          1           0       11.648865    2.892223    1.120148
     88          1           0       10.795624    2.786711   -0.476977
     89          1           0       11.979080    1.610748   -0.087874
     90          1           0        9.496223   -0.694672    3.127575
     91          1           0       10.848397    0.260109    3.438741
     92          1           0       10.850942   -2.590157    3.317712
     93          1           0       12.268805   -1.561427    3.592691
     94          1           0       11.872506   -2.141067    1.932464
     95          1           0        6.882311   -5.747100    0.281213
     96          1           0        7.996271   -5.093275    1.365989
     97          1           0        8.272958   -4.804511   -0.378453
     98          1           0        2.491705   -3.386899    1.067680
     99          1           0       -0.335500   -6.051741   -1.056899
    100          1           0        0.559921   -5.428428   -2.388303
    101          1           0       -0.747819   -4.402324   -1.620635
    102          1           0       -4.448410   -0.878619    1.366202
    103          1           0       -4.592298   -2.581835    1.684737
    104          1           0       -5.396115   -1.013700   -0.763185
    105          1           0       -5.422551   -4.494256    1.016224
    106          1           0       -6.181682   -5.164252   -0.430547
    107          1           0       -7.045531   -4.453378    0.916496
    108          1           0       -7.930580   -3.666143   -1.312867
    109          1           0       -6.791908   -2.746308   -2.294682
    110          1           0       -7.604456   -0.959471   -0.247456
    111          1           0       -9.046793   -1.824953   -0.751871
    112          1           0       -7.689870   -1.196930   -3.229827
    113          1           0       -7.611364    0.198628   -2.344247
    114          1           0      -10.312434   -1.112521   -2.820766
    115          1           0       -9.897897   -0.434870   -4.911659
    116          1           0       -8.590318    0.745691   -4.583062
    117          1           0      -10.296770    1.158965   -4.309032
    118          1           0      -10.003567    1.902855   -2.191930
    119          1           0       -9.726845    0.830274   -0.840441
    120          1           0      -12.177588   -0.069687   -2.109606
    121          1           0      -12.163600    1.662867   -2.242034
    122          1           0      -12.496672    2.180960   -0.169253
    123          1           0      -11.625664    0.789343    0.529996
    124          1           0      -13.646425   -0.596830   -0.207811
    125          1           0      -15.701190    1.433528   -0.550202
    126          1           0      -15.261459    0.143782   -1.562756
    127          1           0      -14.434086    1.696368   -1.737000
    128          1           0      -13.383954   -0.008403    2.055170
    129          1           0      -14.984542   -0.083457    1.712198
    130          1           0      -15.586794    1.677573    2.295321
    131          1           0      -14.516309    2.668544    1.289942
    132          1           0      -13.637657    1.564860    3.979597
    133          1           0      -14.464058    3.021282    3.782782
    134          1           0      -12.453636    3.382234    1.825648
    135          1           0      -10.590534    2.544272    3.975312
    136          1           0      -10.615075    2.393988    2.223227
    137          1           0      -11.400546    1.217637    3.136544
    138          1           0      -12.837154    4.385884    4.670499
    139          1           0      -12.772699    5.204766    3.158309
    140          1           0      -11.270848    4.540969    3.812047
 ---------------------------------------------------------------------

 SCF Done:  E(RwB97XD) =  -3007.85512111     A.U. after   19 cycles

 Excitation energies and oscillator strengths:

 Excited State   1:      Singlet-A      1.5851 eV  782.18 nm  f=0.3707  <S**2>=0.000
     245 -> 248       -0.18854
     246 -> 247        0.68287
     245 <- 248       -0.12204
 This state for optimization and/or second-order correction.
 Total Energy, E(TD-HF/TD-DFT) =  -3007.79686904
 Copying the excited state density for this state as the 1-particle RhoCI density.

 Excited State   2:      Singlet-A      2.1941 eV  565.08 nm  f=0.0606  <S**2>=0.000
     245 -> 247        0.60765
     246 -> 248        0.34704

 Excited State   3:      Singlet-A      3.3081 eV  374.79 nm  f=0.0263  <S**2>=0.000
     244 -> 247        0.65768
     246 -> 248       -0.18729

 Excited State   4:      Singlet-A      3.4207 eV  362.45 nm  f=0.5984  <S**2>=0.000
     242 -> 247       -0.30834
     244 -> 247        0.15369
     245 -> 247       -0.29209
     246 -> 248        0.53505
     245 <- 247        0.10513

 Excited State   5:      Singlet-A      3.5055 eV  353.69 nm  f=0.0251  <S**2>=0.000
     240 -> 247        0.31510
     240 -> 249       -0.24400
     240 -> 250        0.12394
     241 -> 247        0.35996
     241 -> 249       -0.26778
     241 -> 250        0.12908
     242 -> 247       -0.25045

 The electronic state is 1-A.
 Alpha  occ. eigenvalues --  -46.93390 -19.29617 -19.29523 -19.25903 -19.24694
 Alpha  occ. eigenvalues --  -19.24407 -19.23989 -14.46788 -14.46631 -14.44164
 Alpha  occ. eigenvalues --  -14.43182 -10.44025 -10.43183 -10.40198 -10.39288
 Alpha  occ. eigenvalues --  -10.35621 -10.35604 -10.35031 -10.34908 -10.34735
 Alpha  occ. eigenvalues --  -10.34708 -10.34679 -10.33948 -10.33272 -10.33018
 Alpha  occ. eigenvalues --  -10.32681 -10.32321 -10.32264 -10.32130 -10.32006
 Alpha  occ. eigenvalues --  -10.31988 -10.31853 -10.31671 -10.31653 -10.31516
 Alpha  occ. eigenvalues --  -10.31369 -10.31316 -10.31295 -10.30958 -10.30828
 Alpha  occ. eigenvalues --  -10.30665 -10.30327 -10.30102 -10.30091 -10.30076
 Alpha  occ. eigenvalues --  -10.30043 -10.30000 -10.29716 -10.29704 -10.29285
 Alpha  occ. eigenvalues --  -10.29263 -10.29240 -10.29106 -10.29098 -10.29040
 Alpha  occ. eigenvalues --  -10.29004 -10.28927 -10.28837 -10.28609 -10.28526
 Alpha  occ. eigenvalues --  -10.28435 -10.28109 -10.28096 -10.28064 -10.27654
 Alpha  occ. eigenvalues --  -10.27632  -3.19597  -1.93186  -1.92728  -1.92587
 Alpha  occ. eigenvalues --   -1.18038  -1.17816  -1.12239  -1.10337  -1.10284
 Alpha  occ. eigenvalues --   -1.09247  -1.05418  -1.04588  -1.04060  -1.03268
 Alpha  occ. eigenvalues --   -0.95042  -0.93274  -0.91649  -0.90842  -0.90536
 Alpha  occ. eigenvalues --   -0.90387  -0.89560  -0.89170  -0.88776  -0.88606
 Alpha  occ. eigenvalues --   -0.87710  -0.86699  -0.86060  -0.85611  -0.84876
 Alpha  occ. eigenvalues --   -0.84251  -0.83920  -0.83366  -0.82970  -0.82309
 Alpha  occ. eigenvalues --   -0.81796  -0.80135  -0.79728  -0.79309  -0.77889
 Alpha  occ. eigenvalues --   -0.77685  -0.77175  -0.76532  -0.76288  -0.76222
 Alpha  occ. eigenvalues --   -0.74700  -0.73904  -0.73370  -0.72069  -0.71188
 Alpha  occ. eigenvalues --   -0.70710  -0.70208  -0.69512  -0.68468  -0.67481
 Alpha  occ. eigenvalues --   -0.67203  -0.66856  -0.66644  -0.66543  -0.65666
 Alpha  occ. eigenvalues --   -0.65209  -0.64786  -0.63663  -0.63156  -0.62134
 Alpha  occ. eigenvalues --   -0.61614  -0.61415  -0.61119  -0.60660  -0.60037
 Alpha  occ. eigenvalues --   -0.59676  -0.59278  -0.57838  -0.57733  -0.57396
 Alpha  occ. eigenvalues --   -0.56886  -0.56477  -0.56331  -0.56075  -0.55809
 Alpha  occ. eigenvalues --   -0.55466  -0.55074  -0.55008  -0.54868  -0.54719
 Alpha  occ. eigenvalues --   -0.54322  -0.54177  -0.53881  -0.53721  -0.53409
 Alpha  occ. eigenvalues --   -0.53308  -0.52918  -0.52833  -0.52516  -0.52491
 Alpha  occ. eigenvalues --   -0.52310  -0.52261  -0.51800  -0.51726  -0.51419
 Alpha  occ. eigenvalues --   -0.51384  -0.51264  -0.51088  -0.50895  -0.50614
 Alpha  occ. eigenvalues --   -0.50553  -0.50431  -0.50069  -0.49740  -0.49562
 Alpha  occ. eigenvalues --   -0.49390  -0.49291  -0.48876  -0.48646  -0.48462
 Alpha  occ. eigenvalues --   -0.48216  -0.47955  -0.47491  -0.47459  -0.47403
 Alpha  occ. eigenvalues --   -0.47311  -0.46906  -0.46879  -0.46607  -0.46496
 Alpha  occ. eigenvalues --   -0.46378  -0.46119  -0.46025  -0.45732  -0.45513
 Alpha  occ. eigenvalues --   -0.45367  -0.45274  -0.45088  -0.44916  -0.44695
 Alpha  occ. eigenvalues --   -0.44412  -0.44180  -0.44099  -0.43982  -0.43916
 Alpha  occ. eigenvalues --   -0.43702  -0.43473  -0.43346  -0.43020  -0.42900
 Alpha  occ. eigenvalues --   -0.42737  -0.42696  -0.42488  -0.42435  -0.42011
 Alpha  occ. eigenvalues --   -0.41731  -0.41640  -0.41595  -0.41006  -0.40784
 Alpha  occ. eigenvalues --   -0.40346  -0.39645  -0.39511  -0.39377  -0.39054
 Alpha  occ. eigenvalues --   -0.38861  -0.38678  -0.38584  -0.38318  -0.38049
 Alpha  occ. eigenvalues --   -0.37852  -0.37578  -0.37191  -0.36574  -0.36178
 Alpha  occ. eigenvalues --   -0.35956  -0.35664  -0.35553  -0.33679  -0.33142
 Alpha  occ. eigenvalues --   -0.32822  -0.32025  -0.31595  -0.31341  -0.26156
 Alpha  occ. eigenvalues --   -0.22450
 Alpha virt. eigenvalues --   -0.06812  -0.00142   0.01907   0.03751   0.05530
 Alpha virt. eigenvalues --    0.05869   0.06720   0.08040   0.08406   0.09732
 Alpha virt. eigenvalues --    0.10465   0.10940   0.12118   0.12521   0.13039

 Mulliken charges:
               1
     1  Mg   0.978649
     2  C   -0.093107
     3  C   -0.099600
     4  C   -0.062446
     5  C   -0.100163
     6  N   -0.354276
     7  C   -0.010971
     8  C   -0.095786
     9  C   -0.125908
    10  C    0.083749
    11  C    0.035290
    12  C    0.058615
    13  C   -0.024126
    14  C    0.218798
    15  O   -0.245377
    16  O   -0.372103
    17  N   -0.531056
    18  C    0.168394
    19  C   -0.184047
    20  C   -0.085123
    21  C    0.182118
    22  C    0.061510
    23  C    0.103205
    24  O   -0.236208
    25  C   -0.026841
    26  N   -0.400494
    27  C    0.065037
    28  C   -0.114126
    29  C   -0.059464
    30  C    0.074788
    31  C    0.000322
    32  C   -0.036017
    33  C   -0.049776
    34  N   -0.439194
    35  C    0.173807
    36  C   -0.200685
    37  C    0.003976
    38  C    0.166346
    39  C    0.061654
    40  C    0.086466
    41  O   -0.236344
    42  C   -0.012071
    43  C    0.299796
    44  O   -0.226645
    45  O   -0.387880
    46  C    0.132456
    47  C    0.241573
    48  C   -0.147116
    49  C   -0.182113
    50  C    0.030852
    51  C    0.032528
    52  C   -0.033163
    53  C    0.000682
    54  C   -0.186639
    55  C   -0.016098
    56  C    0.025907
    57  C   -0.023303
    58  C   -0.018940
    59  C   -0.147757
    60  C   -0.010962
    61  C    0.004922
    62  C   -0.059431
    63  C    0.040169
    64  C   -0.201521
    65  C   -0.011025
    66  C    0.000622
    67  H    0.019788
    68  H    0.027908
    69  H    0.004569
    70  H    0.030528
    71  H    0.039313
    72  H    0.021351
    73  H    0.062602
    74  H    0.041831
    75  H    0.037028
    76  H    0.036954
    77  H    0.077453
    78  H    0.049399
    79  H    0.052663
    80  H    0.018840
    81  H    0.058370
    82  H    0.062597
    83  H    0.046383
    84  H    0.044678
    85  H    0.046990
    86  H    0.041657
    87  H    0.038161
    88  H    0.060555
    89  H    0.033762
    90  H    0.030582
    91  H    0.034956
    92  H    0.044483
    93  H    0.045796
    94  H    0.044757
    95  H    0.054725
    96  H    0.038125
    97  H    0.052440
    98  H    0.084621
    99  H    0.052038
   100  H    0.056616
   101  H    0.060129
   102  H    0.060107
   103  H    0.030884
   104  H    0.029623
   105  H    0.021273
   106  H    0.060635
   107  H    0.038048
   108  H    0.018321
   109  H    0.047874
   110  H    0.039504
   111  H    0.022025
   112  H    0.017315
   113  H    0.008839
   114  H    0.028048
   115  H    0.027963
   116  H    0.039502
   117  H    0.022871
   118  H    0.024904
   119  H    0.019951
   120  H    0.022119
   121  H    0.016540
   122  H    0.019990
   123  H    0.019693
   124  H    0.015763
   125  H    0.031394
   126  H    0.028905
   127  H    0.024285
   128  H    0.003968
   129  H    0.005211
   130  H    0.014648
   131  H    0.020160
   132  H    0.011039
   133  H    0.007102
   134  H    0.022676
   135  H    0.035209
   136  H    0.019217
   137  H    0.014067
   138  H    0.032996
   139  H    0.018379
   140  H    0.021976
 Sum of Mulliken charges =  -0.00000

 Dipole moment (field-independent basis, Debye):
    X=             -3.2594    Y=              2.4854    Z=              1.0211  Tot=              4.2241
 Quadrupole moment (field-independent basis, Debye-Ang):
   XX=           -364.5302   YY=           -401.5528   ZZ=           -405.1632
   XY=             14.5563   XZ=             29.4379   YZ=             -8.1831

 Normal termination of Gaussian 16 at Sat Apr 30 02:41:45 2022.
