 Gaussian 16, Revision A.03,
 Gaussian 16:  ES64L-G16RevA.03 25-Dec-2016

 --------------------
 #p ZINDO=(nstates=5)
 --------------------

 ---------------------------
 step_51_chromophore_7 ZINDO
 ---------------------------
 Symbolic Z-matrix:
 Charge =  0 Multiplicity = 1

                         Standard orientation:
 ---------------------------------------------------------------------
 Center     Atomic      Atomic             Coordinates (Angstroms)
 Number     Number       Type             X           Y           Z
 ---------------------------------------------------------------------
      1         12           0        5.954217    0.708698    0.183482
      2          6           0        3.636499   -2.054175    0.021004
      3          6           0        3.419665    2.777267   -0.924934
      4          6           0        8.206158    3.082430    0.225320
      5          6           0        8.483364   -1.815210    0.740066
      6          7           0        3.778372    0.381454   -0.251908
      7          6           0        3.075835   -0.813496   -0.253715
      8          6           0        1.597352   -0.573090   -0.430441
      9          6           0        1.552489    0.853397   -1.053801
     10          6           0        3.005231    1.410444   -0.776818
     11          6           0        1.215568    0.956210   -2.586846
     12          6           0        0.740219   -0.842411    0.884617
     13          6           0       -0.395113   -1.887486    0.830202
     14          6           0       -1.875302   -1.437154    1.212956
     15          8           0       -2.190511   -0.570586    1.985785
     16          8           0       -2.835627   -2.176064    0.562208
     17          7           0        5.912828    2.582764   -0.432881
     18          6           0        4.761843    3.309441   -0.818733
     19          6           0        5.241170    4.661337   -1.178005
     20          6           0        6.646910    4.752230   -0.882954
     21          6           0        6.978612    3.422950   -0.351546
     22          6           0        4.365374    5.689721   -1.713754
     23          6           0        7.736209    5.876708   -0.993021
     24          8           0        8.946138    5.639864   -0.983998
     25          6           0        7.242025    7.255575   -1.272578
     26          7           0        7.974043    0.625969    0.495319
     27          6           0        8.678242    1.789778    0.539970
     28          6           0       10.091925    1.521984    1.198749
     29          6           0       10.165386   -0.078301    1.273469
     30          6           0        8.806364   -0.427800    0.866695
     31          6           0       11.211689    2.236633    0.366922
     32          6           0       10.512444   -0.532072    2.769644
     33          6           0       11.473396   -1.804718    2.889323
     34          7           0        6.069385   -1.436762    0.264597
     35          6           0        7.213274   -2.235181    0.517212
     36          6           0        6.716657   -3.607275    0.415450
     37          6           0        5.334081   -3.590859    0.188767
     38          6           0        4.977735   -2.261880    0.211508
     39          6           0        7.522416   -4.874907    0.408574
     40          6           0        4.154476   -4.403499    0.129907
     41          8           0        4.025761   -5.651096    0.195816
     42          6           0        2.930106   -3.439712    0.070816
     43          6           0        2.100560   -3.839437   -1.091356
     44          8           0        2.244725   -3.599797   -2.275372
     45          8           0        1.062580   -4.628898   -0.555712
     46          6           0        0.056128   -5.122768   -1.471212
     47          6           0       -4.257839   -1.862023    0.937857
     48          6           0       -5.259679   -1.950866   -0.224102
     49          6           0       -6.167505   -2.988066   -0.355234
     50          6           0       -6.187005   -4.319863    0.258687
     51          6           0       -7.259077   -2.807774   -1.311982
     52          6           0       -8.057774   -1.502734   -1.077365
     53          6           0       -8.213816   -0.706650   -2.409355
     54          6           0       -9.645206   -0.252492   -2.766551
     55          6           0       -9.555696    0.361825   -4.251428
     56          6           0      -10.194586    0.895226   -1.822820
     57          6           0      -11.738274    0.831333   -1.680091
     58          6           0      -12.297824    1.113658   -0.264952
     59          6           0      -13.712808    0.479593   -0.047506
     60          6           0      -14.826716    0.979730   -1.015060
     61          6           0      -14.113753    0.508571    1.431851
     62          6           0      -14.548620    1.854903    2.014279
     63          6           0      -13.782445    2.359791    3.247828
     64          6           0      -12.505809    3.100783    2.877349
     65          6           0      -11.222191    2.292157    3.123523
     66          6           0      -12.340460    4.363007    3.700742
     67          1           0        2.617783    3.508563   -1.048765
     68          1           0        8.966622    3.843645    0.409871
     69          1           0        9.175057   -2.633054    0.950630
     70          1           0        1.274001   -1.293714   -1.181573
     71          1           0        0.851959    1.478030   -0.499622
     72          1           0        0.213347    1.385626   -2.565535
     73          1           0        1.099266   -0.002191   -3.093513
     74          1           0        1.785611    1.737430   -3.089513
     75          1           0        0.394919    0.178335    1.051028
     76          1           0        1.494288   -1.032844    1.648778
     77          1           0       -0.086947   -2.731363    1.447002
     78          1           0       -0.462575   -2.292949   -0.178872
     79          1           0        4.260739    6.547140   -1.050084
     80          1           0        3.361617    5.280624   -1.828769
     81          1           0        4.724134    5.986010   -2.699197
     82          1           0        6.644926    7.672258   -0.461495
     83          1           0        6.637753    7.356188   -2.174307
     84          1           0        8.001828    7.977361   -1.574095
     85          1           0       10.145338    1.913274    2.214732
     86          1           0       10.860951   -0.500643    0.547958
     87          1           0       11.648865    2.892223    1.120148
     88          1           0       10.795624    2.786711   -0.476977
     89          1           0       11.979080    1.610748   -0.087874
     90          1           0        9.496223   -0.694672    3.127575
     91          1           0       10.848397    0.260109    3.438741
     92          1           0       10.850942   -2.590157    3.317712
     93          1           0       12.268805   -1.561427    3.592691
     94          1           0       11.872506   -2.141067    1.932464
     95          1           0        6.882311   -5.747100    0.281213
     96          1           0        7.996271   -5.093275    1.365989
     97          1           0        8.272958   -4.804511   -0.378453
     98          1           0        2.491705   -3.386899    1.067680
     99          1           0       -0.335500   -6.051741   -1.056899
    100          1           0        0.559921   -5.428428   -2.388303
    101          1           0       -0.747819   -4.402324   -1.620635
    102          1           0       -4.448410   -0.878619    1.366202
    103          1           0       -4.592298   -2.581835    1.684737
    104          1           0       -5.396115   -1.013700   -0.763185
    105          1           0       -5.422551   -4.494256    1.016224
    106          1           0       -6.181682   -5.164252   -0.430547
    107          1           0       -7.045531   -4.453378    0.916496
    108          1           0       -7.930580   -3.666143   -1.312867
    109          1           0       -6.791908   -2.746308   -2.294682
    110          1           0       -7.604456   -0.959471   -0.247456
    111          1           0       -9.046793   -1.824953   -0.751871
    112          1           0       -7.689870   -1.196930   -3.229827
    113          1           0       -7.611364    0.198628   -2.344247
    114          1           0      -10.312434   -1.112521   -2.820766
    115          1           0       -9.897897   -0.434870   -4.911659
    116          1           0       -8.590318    0.745691   -4.583062
    117          1           0      -10.296770    1.158965   -4.309032
    118          1           0      -10.003567    1.902855   -2.191930
    119          1           0       -9.726845    0.830274   -0.840441
    120          1           0      -12.177588   -0.069687   -2.109606
    121          1           0      -12.163600    1.662867   -2.242034
    122          1           0      -12.496672    2.180960   -0.169253
    123          1           0      -11.625664    0.789343    0.529996
    124          1           0      -13.646425   -0.596830   -0.207811
    125          1           0      -15.701190    1.433528   -0.550202
    126          1           0      -15.261459    0.143782   -1.562756
    127          1           0      -14.434086    1.696368   -1.737000
    128          1           0      -13.383954   -0.008403    2.055170
    129          1           0      -14.984542   -0.083457    1.712198
    130          1           0      -15.586794    1.677573    2.295321
    131          1           0      -14.516309    2.668544    1.289942
    132          1           0      -13.637657    1.564860    3.979597
    133          1           0      -14.464058    3.021282    3.782782
    134          1           0      -12.453636    3.382234    1.825648
    135          1           0      -10.590534    2.544272    3.975312
    136          1           0      -10.615075    2.393988    2.223227
    137          1           0      -11.400546    1.217637    3.136544
    138          1           0      -12.837154    4.385884    4.670499
    139          1           0      -12.772699    5.204766    3.158309
    140          1           0      -11.270848    4.540969    3.812047
 ---------------------------------------------------------------------

 SCF Done:  E(RZINDO/S) =  -474.026652980     A.U. after   19 cycles

 Excitation energies and oscillator strengths:

 Excited State   1:      Singlet-A      1.2098 eV 1024.81 nm  f=0.5915  <S**2>=0.000
     175 ->178        -0.19607
     176 ->177         0.66155
 This state for optimization and/or second-order correction.
 Total Energy, E(CIS/TDA) =  -473.982192722
 Copying the excited state density for this state as the 1-particle RhoCI density.

 Excited State   2:      Singlet-A      1.9180 eV  646.43 nm  f=0.0054  <S**2>=0.000
     175 ->177         0.49779
     176 ->178         0.48159

 Excited State   3:      Singlet-A      2.8774 eV  430.89 nm  f=0.0341  <S**2>=0.000
     169 ->179        -0.10526
     176 ->178         0.13365
     176 ->179         0.62978

 Excited State   4:      Singlet-A      2.9460 eV  420.85 nm  f=0.0766  <S**2>=0.000
     167 ->179         0.11220
     168 ->179        -0.11282
     169 ->177         0.29534
     169 ->178        -0.10234
     169 ->179        -0.40128
     169 ->180         0.16773
     169 ->186        -0.15270
     169 ->187         0.12272
     176 ->178        -0.11494
     176 ->179        -0.15587

 Excited State   5:      Singlet-A      2.9976 eV  413.61 nm  f=0.9789  <S**2>=0.000
     168 ->180         0.13524
     170 ->180         0.10335
     175 ->177        -0.39745
     176 ->178         0.41958
     176 ->179        -0.14762
     176 ->180        -0.19526

 The electronic state is 1-A.
 Alpha  occ. eigenvalues --   -1.83667  -1.79827  -1.77633  -1.71458  -1.71054
 Alpha  occ. eigenvalues --   -1.69271  -1.65426  -1.61881  -1.57978  -1.57305
 Alpha  occ. eigenvalues --   -1.55942  -1.51292  -1.48149  -1.46863  -1.45463
 Alpha  occ. eigenvalues --   -1.44839  -1.42681  -1.39936  -1.39524  -1.38199
 Alpha  occ. eigenvalues --   -1.35332  -1.32865  -1.32718  -1.30601  -1.27952
 Alpha  occ. eigenvalues --   -1.26821  -1.25413  -1.23264  -1.22425  -1.18575
 Alpha  occ. eigenvalues --   -1.17676  -1.16647  -1.15532  -1.13492  -1.12934
 Alpha  occ. eigenvalues --   -1.12312  -1.11632  -1.10171  -1.04474  -1.02780
 Alpha  occ. eigenvalues --   -1.01290  -0.99982  -0.99287  -0.97742  -0.97363
 Alpha  occ. eigenvalues --   -0.97115  -0.94034  -0.93549  -0.92747  -0.91411
 Alpha  occ. eigenvalues --   -0.91118  -0.90160  -0.89266  -0.87985  -0.85503
 Alpha  occ. eigenvalues --   -0.84212  -0.84143  -0.82971  -0.81460  -0.79615
 Alpha  occ. eigenvalues --   -0.79563  -0.78660  -0.78267  -0.77331  -0.76707
 Alpha  occ. eigenvalues --   -0.76670  -0.75355  -0.74625  -0.74296  -0.73413
 Alpha  occ. eigenvalues --   -0.73196  -0.72598  -0.71980  -0.71251  -0.71120
 Alpha  occ. eigenvalues --   -0.69492  -0.68715  -0.68469  -0.68281  -0.67991
 Alpha  occ. eigenvalues --   -0.67643  -0.67454  -0.66531  -0.65999  -0.65771
 Alpha  occ. eigenvalues --   -0.65276  -0.64986  -0.64598  -0.64524  -0.63786
 Alpha  occ. eigenvalues --   -0.63558  -0.63225  -0.62559  -0.62444  -0.62058
 Alpha  occ. eigenvalues --   -0.61786  -0.61347  -0.61050  -0.59983  -0.59648
 Alpha  occ. eigenvalues --   -0.59222  -0.58762  -0.58485  -0.58014  -0.57866
 Alpha  occ. eigenvalues --   -0.57558  -0.57320  -0.56761  -0.56634  -0.56338
 Alpha  occ. eigenvalues --   -0.56103  -0.56042  -0.55484  -0.55302  -0.54481
 Alpha  occ. eigenvalues --   -0.54399  -0.53990  -0.53355  -0.53243  -0.52868
 Alpha  occ. eigenvalues --   -0.52448  -0.52248  -0.52240  -0.51769  -0.51516
 Alpha  occ. eigenvalues --   -0.51138  -0.50994  -0.50700  -0.50594  -0.50343
 Alpha  occ. eigenvalues --   -0.50017  -0.49871  -0.49516  -0.49397  -0.49254
 Alpha  occ. eigenvalues --   -0.48900  -0.48779  -0.48437  -0.47878  -0.47519
 Alpha  occ. eigenvalues --   -0.47438  -0.47272  -0.46915  -0.46874  -0.46497
 Alpha  occ. eigenvalues --   -0.46295  -0.45743  -0.45479  -0.45359  -0.45297
 Alpha  occ. eigenvalues --   -0.44852  -0.44770  -0.44180  -0.44066  -0.43904
 Alpha  occ. eigenvalues --   -0.43146  -0.42854  -0.42459  -0.42300  -0.42156
 Alpha  occ. eigenvalues --   -0.42084  -0.41579  -0.41302  -0.39640  -0.39081
 Alpha  occ. eigenvalues --   -0.38836  -0.36899  -0.36020  -0.35575  -0.34685
 Alpha  occ. eigenvalues --   -0.32868  -0.32417  -0.31959  -0.31484  -0.26789
 Alpha  occ. eigenvalues --   -0.21255
 Alpha virt. eigenvalues --   -0.08236  -0.02297  -0.00904   0.00885   0.02166
 Alpha virt. eigenvalues --    0.02316   0.02471   0.03073   0.03854   0.04660
 Alpha virt. eigenvalues --    0.06060   0.06902   0.07041   0.07444   0.08059

 Mulliken charges:
               1
     1  Mg   0.418697
     2  C   -0.057862
     3  C   -0.080798
     4  C   -0.058884
     5  C   -0.060100
     6  N   -0.293184
     7  C    0.140950
     8  C   -0.001736
     9  C    0.007018
    10  C    0.116277
    11  C   -0.054608
    12  C   -0.026520
    13  C    0.010780
    14  C    0.462978
    15  O   -0.505031
    16  O   -0.270582
    17  N   -0.316644
    18  C    0.085535
    19  C    0.012855
    20  C   -0.070447
    21  C    0.139218
    22  C   -0.038497
    23  C    0.341131
    24  O   -0.513229
    25  C   -0.031784
    26  N   -0.256625
    27  C    0.115313
    28  C   -0.009731
    29  C    0.000744
    30  C    0.142059
    31  C   -0.059341
    32  C   -0.043168
    33  C   -0.059319
    34  N   -0.358043
    35  C    0.099346
    36  C    0.046640
    37  C   -0.048995
    38  C    0.133953
    39  C   -0.043075
    40  C    0.336519
    41  O   -0.534447
    42  C    0.054011
    43  C    0.498416
    44  O   -0.507345
    45  O   -0.284249
    46  C    0.074425
    47  C    0.097425
    48  C   -0.119127
    49  C    0.027223
    50  C   -0.034834
    51  C   -0.023410
    52  C   -0.037217
    53  C   -0.035404
    54  C   -0.013208
    55  C   -0.068450
    56  C   -0.031581
    57  C   -0.041234
    58  C   -0.032071
    59  C   -0.006350
    60  C   -0.056087
    61  C   -0.036195
    62  C   -0.035471
    63  C   -0.026291
    64  C   -0.001786
    65  C   -0.059967
    66  C   -0.055944
    67  H    0.032456
    68  H    0.049905
    69  H    0.039013
    70  H    0.029023
    71  H    0.030861
    72  H    0.006621
    73  H    0.038879
    74  H    0.033227
    75  H    0.032883
    76  H    0.028623
    77  H    0.047269
    78  H    0.038155
    79  H    0.029320
    80  H    0.018177
    81  H    0.032141
    82  H    0.037047
    83  H    0.033330
    84  H    0.031048
    85  H    0.036882
    86  H    0.040980
    87  H    0.020361
    88  H    0.033296
    89  H    0.020857
    90  H    0.020571
    91  H    0.027254
    92  H    0.020473
    93  H    0.024149
    94  H    0.028468
    95  H    0.033773
    96  H    0.026861
    97  H    0.032221
    98  H    0.065502
    99  H    0.031532
   100  H    0.048707
   101  H    0.042215
   102  H    0.054816
   103  H    0.036522
   104  H    0.035272
   105  H    0.012543
   106  H    0.034821
   107  H    0.025924
   108  H    0.016590
   109  H    0.029290
   110  H    0.031648
   111  H    0.012336
   112  H    0.021575
   113  H    0.010307
   114  H    0.030747
   115  H    0.012905
   116  H    0.029870
   117  H    0.014698
   118  H    0.024422
   119  H    0.017710
   120  H    0.024621
   121  H    0.012722
   122  H    0.020435
   123  H    0.024481
   124  H    0.009187
   125  H    0.020376
   126  H    0.014927
   127  H    0.019326
   128  H    0.013943
   129  H    0.008950
   130  H    0.010241
   131  H    0.020153
   132  H    0.020438
   133  H    0.007462
   134  H    0.026936
   135  H    0.026753
   136  H    0.007939
   137  H    0.008899
   138  H    0.022897
   139  H    0.006520
   140  H    0.016077
 Sum of Mulliken charges =  -0.00000

 Dipole moment (field-independent basis, Debye):
    X=             -3.8498    Y=              3.1045    Z=              2.2153  Tot=              5.4191
 N-N= 4.233524844230D+03 E-N= 0.000000000000D+00  KE=-9.141277480309D+03
 Leave Link  601 at Sat Apr 30 02:53:59 2022, MaxMem=  6710886400 cpu:               1.9 elap:               0.1
 (Enter /sw/apps/gaussian-16.0/g16/l9999.exe)
 1\1\GINC-BP1-COMPUTE156\SP\RZINDO CIS\STO-3G\C55H74Mg1N4O6\OF15641\30-
 Apr-2022\0\\#p ZINDO=(nstates=5)\\step_51_chromophore_7 ZINDO\\0,1\Mg,
 0,25.661,0.875,28.939\C,0,27.817,0.393,31.794\C,0,23.037,1.388,31.126\
 C,0,23.799,1.127,26.26\C,0,28.468,-0.291,26.98\N,0,25.521,1.002,31.174
 \C,0,26.517,0.767,32.109\C,0,26.053,1.128,33.498\C,0,24.502,1.112,33.3
 58\C,0,24.284,1.139,31.793\C,0,23.737,-0.108,33.991\C,0,26.738,2.441,3
 4.084\C,0,27.526,2.34,35.408\C,0,27.103,3.273,36.629\O,0,26.602,4.365,

 Normal termination of Gaussian 16 at Sat Apr 30 02:53:59 2022.
