 Gaussian 16, Revision A.03,
 Gaussian 16:  ES64L-G16RevA.03 25-Dec-2016

 ------------------------------
 #p blyp/Def2SVP td=(nstates=5)
 ------------------------------

 --------------------------------------------------
 step_451_chromophore_15 TDDFT with blyp functional
 --------------------------------------------------
 Symbolic Z-matrix:
 Charge =  0 Multiplicity = 1

                         Standard orientation:
 ---------------------------------------------------------------------
 Center     Atomic      Atomic             Coordinates (Angstroms)
 Number     Number       Type             X           Y           Z
 ---------------------------------------------------------------------
      1         12           0       -4.757979    0.955372    0.067517
      2          6           0       -4.383988   -2.502238    0.224594
      3          6           0       -1.223908    1.158472   -0.162720
      4          6           0       -4.968093    4.250866    0.164818
      5          6           0       -8.135526    0.602821    0.939193
      6          7           0       -3.018209   -0.511251    0.036113
      7          6           0       -3.173255   -1.822319   -0.046533
      8          6           0       -1.817722   -2.508370   -0.329323
      9          6           0       -0.758892   -1.419063    0.123398
     10          6           0       -1.697016   -0.169185    0.069903
     11          6           0       -0.101904   -1.626792    1.524469
     12          6           0       -1.804144   -2.928452   -1.826640
     13          6           0       -0.400831   -3.294611   -2.360092
     14          6           0        0.699350   -3.862398   -1.453962
     15          8           0        0.552991   -4.551355   -0.488452
     16          8           0        1.929923   -3.348972   -1.953419
     17          7           0       -3.355523    2.513222   -0.097385
     18          6           0       -2.001185    2.389781   -0.261593
     19          6           0       -1.416277    3.638918   -0.438932
     20          6           0       -2.445870    4.577069   -0.541401
     21          6           0       -3.644705    3.833091   -0.151510
     22          6           0        0.033013    3.811070   -0.735230
     23          6           0       -2.504862    5.982784   -0.910578
     24          8           0       -3.539401    6.647637   -0.921784
     25          6           0       -1.281628    6.745283   -1.253071
     26          7           0       -6.294722    2.243768    0.558691
     27          6           0       -6.111586    3.598434    0.663387
     28          6           0       -7.421631    4.342846    0.961495
     29          6           0       -8.433868    3.109188    1.036178
     30          6           0       -7.545711    1.890280    0.890542
     31          6           0       -7.386930    5.325507    2.159492
     32          6           0       -9.472973    3.047219   -0.184122
     33          6           0      -11.002170    2.883099    0.163171
     34          7           0       -6.063445   -0.556520    0.395868
     35          6           0       -7.408778   -0.594120    0.726076
     36          6           0       -7.871840   -1.972607    0.908536
     37          6           0       -6.718249   -2.725750    0.737295
     38          6           0       -5.644167   -1.833108    0.438050
     39          6           0       -9.316874   -2.384166    1.348163
     40          6           0       -6.278901   -4.115553    0.735767
     41          8           0       -6.791394   -5.234595    0.864758
     42          6           0       -4.698736   -3.938110    0.703839
     43          6           0       -4.183080   -5.076283   -0.172742
     44          8           0       -4.301114   -5.207928   -1.363949
     45          8           0       -3.429404   -5.959625    0.590650
     46          6           0       -2.439597   -6.748579   -0.101887
     47          6           0        3.062098   -3.636316   -1.111490
     48          6           0        4.316126   -3.028342   -1.702334
     49          6           0        5.550840   -3.099015   -1.149705
     50          6           0        5.871379   -3.948938   -0.054255
     51          6           0        6.666888   -2.204035   -1.797115
     52          6           0        6.709396   -0.848166   -1.215497
     53          6           0        6.317346    0.239889   -2.250876
     54          6           0        6.957196    1.577023   -1.986918
     55          6           0        5.886559    2.663467   -2.275539
     56          6           0        8.201013    1.863283   -2.850286
     57          6           0        9.436173    2.549492   -2.080028
     58          6           0       10.483586    1.434662   -1.571534
     59          6           0       11.202680    1.963426   -0.285230
     60          6           0       12.086597    3.097147   -0.728113
     61          6           0       11.902584    0.850828    0.437873
     62          6           0       12.071203    1.108097    1.921158
     63          6           0       11.395287    0.050258    2.785330
     64          6           0       11.593639    0.287960    4.309248
     65          6           0       12.790273   -0.554102    4.783916
     66          6           0       10.327772    0.008062    5.079641
     67          1           0       -0.140856    1.286544   -0.223400
     68          1           0       -5.117174    5.328312    0.257907
     69          1           0       -9.204418    0.587829    1.163426
     70          1           0       -1.777888   -3.387378    0.314356
     71          1           0        0.010689   -1.284300   -0.635839
     72          1           0       -0.193321   -2.678554    1.797272
     73          1           0       -0.518998   -0.994597    2.308952
     74          1           0        0.943190   -1.384223    1.335545
     75          1           0       -2.190066   -2.120027   -2.448608
     76          1           0       -2.455643   -3.786308   -1.987490
     77          1           0       -0.111583   -2.446213   -2.979693
     78          1           0       -0.545679   -4.086245   -3.094873
     79          1           0        0.187915    3.172684   -1.605218
     80          1           0        0.603155    3.449359    0.121093
     81          1           0        0.358500    4.841171   -0.882337
     82          1           0       -0.746330    6.251786   -2.064099
     83          1           0       -0.651639    6.784948   -0.363931
     84          1           0       -1.448278    7.789455   -1.518352
     85          1           0       -7.578054    5.046780    0.144382
     86          1           0       -9.014984    3.158792    1.956784
     87          1           0       -6.378484    5.494793    2.536872
     88          1           0       -8.088897    4.940723    2.899469
     89          1           0       -7.732290    6.340620    1.962186
     90          1           0       -9.081357    2.314513   -0.889881
     91          1           0       -9.370240    3.966573   -0.760751
     92          1           0      -11.213325    2.936215    1.231035
     93          1           0      -11.356955    1.934536   -0.240219
     94          1           0      -11.623873    3.573959   -0.406523
     95          1           0      -10.067382   -1.597332    1.266366
     96          1           0       -9.372157   -2.869789    2.323410
     97          1           0       -9.663349   -3.139340    0.642950
     98          1           0       -4.255008   -4.059871    1.691481
     99          1           0       -2.869489   -7.628330   -0.579856
    100          1           0       -1.777283   -7.082405    0.696258
    101          1           0       -1.907682   -6.197686   -0.877757
    102          1           0        3.105525   -4.723627   -1.167580
    103          1           0        2.940033   -3.268955   -0.092748
    104          1           0        4.122042   -2.480672   -2.625270
    105          1           0        6.739927   -3.565516    0.481387
    106          1           0        6.055968   -4.950426   -0.441647
    107          1           0        4.985124   -4.023017    0.576429
    108          1           0        6.489759   -2.092647   -2.866681
    109          1           0        7.566426   -2.811972   -1.702068
    110          1           0        7.658073   -0.681197   -0.703971
    111          1           0        5.930514   -0.802158   -0.455085
    112          1           0        5.227761    0.264717   -2.228143
    113          1           0        6.647931   -0.100255   -3.231876
    114          1           0        7.156256    1.705085   -0.923053
    115          1           0        5.262452    2.904791   -1.416392
    116          1           0        5.209899    2.383650   -3.083624
    117          1           0        6.407523    3.568424   -2.587312
    118          1           0        8.036395    2.452290   -3.753171
    119          1           0        8.492187    0.906134   -3.282531
    120          1           0        9.189955    3.194194   -1.235544
    121          1           0        9.920535    3.260948   -2.749071
    122          1           0       11.201431    1.415835   -2.390749
    123          1           0        9.985879    0.467462   -1.491136
    124          1           0       10.367287    2.340445    0.305279
    125          1           0       11.484867    3.961749   -0.446067
    126          1           0       12.136715    3.135946   -1.815747
    127          1           0       13.032896    3.170041   -0.191807
    128          1           0       12.898527    0.776243    0.001503
    129          1           0       11.527325   -0.139984    0.180842
    130          1           0       11.717834    2.111018    2.160627
    131          1           0       13.155846    1.057866    2.021892
    132          1           0       11.822169   -0.909226    2.493764
    133          1           0       10.352700   -0.171174    2.556099
    134          1           0       11.862689    1.329433    4.482314
    135          1           0       13.510190   -0.804430    4.005468
    136          1           0       12.426300   -1.441831    5.301463
    137          1           0       13.378729   -0.060586    5.557106
    138          1           0       10.489302    0.277623    6.123145
    139          1           0        9.949857   -1.009719    4.979459
    140          1           0        9.554026    0.607982    4.600275
 ---------------------------------------------------------------------

 SCF Done:  E(RB-LYP) =  -3007.40327710     A.U. after   21 cycles

 Excitation energies and oscillator strengths:

 Excited State   1:      Singlet-A      1.7155 eV  722.73 nm  f=0.0121  <S**2>=0.000
     244 -> 247        0.65445
     245 -> 247       -0.21441
     246 -> 247       -0.15183
 This state for optimization and/or second-order correction.
 Total Energy, E(TD-HF/TD-DFT) =  -3007.34023327
 Copying the excited state density for this state as the 1-particle RhoCI density.

 Excited State   2:      Singlet-A      1.7994 eV  689.03 nm  f=0.2776  <S**2>=0.000
     244 -> 247        0.16398
     245 -> 248        0.20817
     246 -> 247        0.66625
     246 <- 247       -0.14182

 Excited State   3:      Singlet-A      1.9372 eV  640.03 nm  f=0.0767  <S**2>=0.000
     243 -> 247       -0.19637
     244 -> 247        0.20065
     245 -> 247        0.60271
     246 -> 248       -0.21423

 Excited State   4:      Singlet-A      2.1096 eV  587.72 nm  f=0.0061  <S**2>=0.000
     243 -> 247        0.67484
     245 -> 247        0.15852
     246 -> 248       -0.11966

 Excited State   5:      Singlet-A      2.2383 eV  553.92 nm  f=0.0000  <S**2>=0.000
     242 -> 247        0.70710

 The electronic state is 1-A.
 Alpha  occ. eigenvalues --  -46.26936 -18.82106 -18.80501 -18.79118 -18.76407
 Alpha  occ. eigenvalues --  -18.76393 -18.74561 -14.03310 -14.03100 -14.01448
 Alpha  occ. eigenvalues --  -14.00967 -10.05336 -10.03180 -10.00067  -9.98838
 Alpha  occ. eigenvalues --   -9.97850  -9.96725  -9.96653  -9.96516  -9.96478
 Alpha  occ. eigenvalues --   -9.96271  -9.95998  -9.95524  -9.95286  -9.95059
 Alpha  occ. eigenvalues --   -9.94358  -9.94280  -9.94146  -9.94106  -9.93925
 Alpha  occ. eigenvalues --   -9.93913  -9.93688  -9.93657  -9.93411  -9.93096
 Alpha  occ. eigenvalues --   -9.93094  -9.93058  -9.93034  -9.92985  -9.92851
 Alpha  occ. eigenvalues --   -9.92562  -9.92512  -9.92500  -9.92456  -9.92083
 Alpha  occ. eigenvalues --   -9.92050  -9.91982  -9.91934  -9.91933  -9.91806
 Alpha  occ. eigenvalues --   -9.91787  -9.91717  -9.91705  -9.91474  -9.91388
 Alpha  occ. eigenvalues --   -9.91367  -9.91354  -9.91313  -9.91310  -9.91135
 Alpha  occ. eigenvalues --   -9.90973  -9.90956  -9.90831  -9.90764  -9.90616
 Alpha  occ. eigenvalues --   -9.90312  -2.91673  -1.72103  -1.71546  -1.71390
 Alpha  occ. eigenvalues --   -0.98521  -0.96987  -0.92033  -0.90831  -0.90790
 Alpha  occ. eigenvalues --   -0.89433  -0.87108  -0.86440  -0.86229  -0.85546
 Alpha  occ. eigenvalues --   -0.74810  -0.74605  -0.73712  -0.72736  -0.72373
 Alpha  occ. eigenvalues --   -0.72186  -0.71664  -0.71304  -0.70836  -0.70568
 Alpha  occ. eigenvalues --   -0.69565  -0.69081  -0.68385  -0.67279  -0.67009
 Alpha  occ. eigenvalues --   -0.66793  -0.65784  -0.65484  -0.64605  -0.64301
 Alpha  occ. eigenvalues --   -0.64159  -0.62675  -0.62459  -0.61858  -0.60598
 Alpha  occ. eigenvalues --   -0.60446  -0.60353  -0.59883  -0.59750  -0.58932
 Alpha  occ. eigenvalues --   -0.58373  -0.57728  -0.56638  -0.55529  -0.54533
 Alpha  occ. eigenvalues --   -0.54364  -0.54094  -0.53062  -0.52304  -0.51620
 Alpha  occ. eigenvalues --   -0.51408  -0.51034  -0.50524  -0.50153  -0.50039
 Alpha  occ. eigenvalues --   -0.49796  -0.49508  -0.49144  -0.47833  -0.46602
 Alpha  occ. eigenvalues --   -0.46445  -0.46180  -0.45480  -0.45343  -0.44872
 Alpha  occ. eigenvalues --   -0.43889  -0.43686  -0.43196  -0.42832  -0.42092
 Alpha  occ. eigenvalues --   -0.41845  -0.41786  -0.41524  -0.41431  -0.41203
 Alpha  occ. eigenvalues --   -0.40994  -0.40885  -0.40599  -0.40349  -0.40257
 Alpha  occ. eigenvalues --   -0.40187  -0.39631  -0.39566  -0.39186  -0.39035
 Alpha  occ. eigenvalues --   -0.38932  -0.38764  -0.38664  -0.38433  -0.38294
 Alpha  occ. eigenvalues --   -0.38119  -0.38027  -0.37895  -0.37779  -0.37624
 Alpha  occ. eigenvalues --   -0.37551  -0.37029  -0.36996  -0.36897  -0.36694
 Alpha  occ. eigenvalues --   -0.36305  -0.36154  -0.36116  -0.36045  -0.35975
 Alpha  occ. eigenvalues --   -0.35755  -0.35424  -0.35139  -0.35088  -0.34930
 Alpha  occ. eigenvalues --   -0.34833  -0.34449  -0.34336  -0.34121  -0.33814
 Alpha  occ. eigenvalues --   -0.33784  -0.33601  -0.33533  -0.33176  -0.33121
 Alpha  occ. eigenvalues --   -0.33042  -0.32867  -0.32790  -0.32627  -0.32587
 Alpha  occ. eigenvalues --   -0.32156  -0.31971  -0.31819  -0.31658  -0.31520
 Alpha  occ. eigenvalues --   -0.31314  -0.31000  -0.30885  -0.30834  -0.30523
 Alpha  occ. eigenvalues --   -0.30433  -0.30382  -0.30201  -0.30172  -0.29884
 Alpha  occ. eigenvalues --   -0.29739  -0.29520  -0.29452  -0.29034  -0.29026
 Alpha  occ. eigenvalues --   -0.28957  -0.28899  -0.28779  -0.27949  -0.27766
 Alpha  occ. eigenvalues --   -0.27598  -0.27583  -0.27122  -0.26925  -0.26797
 Alpha  occ. eigenvalues --   -0.26536  -0.25979  -0.25937  -0.25879  -0.25610
 Alpha  occ. eigenvalues --   -0.25479  -0.25205  -0.23955  -0.23861  -0.23666
 Alpha  occ. eigenvalues --   -0.23622  -0.23424  -0.22225  -0.21698  -0.21252
 Alpha  occ. eigenvalues --   -0.20561  -0.19827  -0.19144  -0.17877  -0.17038
 Alpha  occ. eigenvalues --   -0.15893
 Alpha virt. eigenvalues --   -0.11601  -0.07078  -0.06471  -0.04595  -0.03539
 Alpha virt. eigenvalues --   -0.02379  -0.02226  -0.01812  -0.01054   0.00210
 Alpha virt. eigenvalues --    0.00725   0.01293   0.02083   0.02417   0.02987

 Mulliken charges:
               1
     1  Mg   0.717863
     2  C    0.035339
     3  C   -0.067666
     4  C   -0.039671
     5  C   -0.081840
     6  N   -0.169553
     7  C   -0.085081
     8  C    0.006957
     9  C   -0.029226
    10  C    0.013880
    11  C    0.145019
    12  C    0.125668
    13  C    0.101198
    14  C    0.101084
    15  O   -0.152924
    16  O   -0.308559
    17  N   -0.256980
    18  C    0.113227
    19  C   -0.162739
    20  C    0.097489
    21  C    0.069824
    22  C    0.183895
    23  C   -0.115676
    24  O   -0.171285
    25  C    0.133001
    26  N   -0.235801
    27  C    0.030289
    28  C    0.006834
    29  C    0.015153
    30  C    0.042798
    31  C    0.115286
    32  C    0.064846
    33  C    0.069254
    34  N   -0.285481
    35  C    0.129889
    36  C   -0.158406
    37  C    0.064559
    38  C    0.077954
    39  C    0.160943
    40  C    0.016411
    41  O   -0.137799
    42  C    0.006616
    43  C    0.108338
    44  O   -0.164071
    45  O   -0.280032
    46  C    0.230148
    47  C    0.297077
    48  C   -0.120804
    49  C   -0.213724
    50  C    0.202061
    51  C    0.151061
    52  C    0.088639
    53  C    0.092228
    54  C   -0.036150
    55  C    0.084434
    56  C    0.123470
    57  C    0.032493
    58  C    0.062508
    59  C   -0.117679
    60  C    0.153818
    61  C    0.144191
    62  C    0.106824
    63  C    0.077296
    64  C   -0.051114
    65  C    0.100385
    66  C    0.109471
    67  H   -0.065251
    68  H   -0.039546
    69  H   -0.062618
    70  H   -0.028473
    71  H   -0.020818
    72  H    0.005861
    73  H    0.002741
    74  H   -0.007408
    75  H   -0.024663
    76  H    0.008213
    77  H   -0.002765
    78  H    0.000070
    79  H    0.013425
    80  H   -0.002343
    81  H   -0.023211
    82  H    0.006691
    83  H    0.006134
    84  H   -0.015942
    85  H   -0.004446
    86  H   -0.026949
    87  H    0.000192
    88  H   -0.018259
    89  H   -0.014188
    90  H   -0.007932
    91  H   -0.026962
    92  H    0.001860
    93  H   -0.008595
    94  H   -0.008477
    95  H   -0.014363
    96  H    0.016111
    97  H    0.003796
    98  H    0.011502
    99  H    0.003595
   100  H    0.010934
   101  H    0.003391
   102  H   -0.008474
   103  H    0.014403
   104  H   -0.031344
   105  H   -0.010701
   106  H    0.011825
   107  H   -0.012656
   108  H   -0.033259
   109  H   -0.044987
   110  H   -0.021739
   111  H   -0.031528
   112  H   -0.026996
   113  H   -0.031895
   114  H   -0.034708
   115  H   -0.022199
   116  H   -0.018593
   117  H   -0.025342
   118  H   -0.037866
   119  H   -0.042997
   120  H   -0.030158
   121  H   -0.036051
   122  H   -0.030366
   123  H   -0.019955
   124  H   -0.033551
   125  H   -0.027892
   126  H   -0.012448
   127  H   -0.011837
   128  H   -0.060865
   129  H   -0.052605
   130  H   -0.026111
   131  H   -0.036085
   132  H   -0.046073
   133  H   -0.050703
   134  H   -0.035836
   135  H   -0.013250
   136  H   -0.024953
   137  H   -0.029997
   138  H   -0.012690
   139  H   -0.018754
   140  H   -0.019530
 Sum of Mulliken charges =  -0.00000

 Dipole moment (field-independent basis, Debye):
    X=              4.2338    Y=              2.8202    Z=              0.5137  Tot=              5.1130
 Quadrupole moment (field-independent basis, Debye-Ang):
   XX=           -377.1223   YY=           -445.0719   ZZ=           -404.9721
   XY=            -32.1072   XZ=             -8.3275   YZ=              5.7792

 Normal termination of Gaussian 16 at Wed May  4 22:33:42 2022.
