 Gaussian 16, Revision A.03,
 Gaussian 16:  ES64L-G16RevA.03 25-Dec-2016

 -----------------------------------
 #p cam-b3lyp/Def2SVP td=(nstates=5)
 -----------------------------------

 -------------------------------------------------------
 step_451_chromophore_15 TDDFT with cam-b3lyp functional
 -------------------------------------------------------
 Symbolic Z-matrix:
 Charge =  0 Multiplicity = 1

                         Standard orientation:
 ---------------------------------------------------------------------
 Center     Atomic      Atomic             Coordinates (Angstroms)
 Number     Number       Type             X           Y           Z
 ---------------------------------------------------------------------
      1         12           0       -4.757979    0.955372    0.067517
      2          6           0       -4.383988   -2.502238    0.224594
      3          6           0       -1.223908    1.158472   -0.162720
      4          6           0       -4.968093    4.250866    0.164818
      5          6           0       -8.135526    0.602821    0.939193
      6          7           0       -3.018209   -0.511251    0.036113
      7          6           0       -3.173255   -1.822319   -0.046533
      8          6           0       -1.817722   -2.508370   -0.329323
      9          6           0       -0.758892   -1.419063    0.123398
     10          6           0       -1.697016   -0.169185    0.069903
     11          6           0       -0.101904   -1.626792    1.524469
     12          6           0       -1.804144   -2.928452   -1.826640
     13          6           0       -0.400831   -3.294611   -2.360092
     14          6           0        0.699350   -3.862398   -1.453962
     15          8           0        0.552991   -4.551355   -0.488452
     16          8           0        1.929923   -3.348972   -1.953419
     17          7           0       -3.355523    2.513222   -0.097385
     18          6           0       -2.001185    2.389781   -0.261593
     19          6           0       -1.416277    3.638918   -0.438932
     20          6           0       -2.445870    4.577069   -0.541401
     21          6           0       -3.644705    3.833091   -0.151510
     22          6           0        0.033013    3.811070   -0.735230
     23          6           0       -2.504862    5.982784   -0.910578
     24          8           0       -3.539401    6.647637   -0.921784
     25          6           0       -1.281628    6.745283   -1.253071
     26          7           0       -6.294722    2.243768    0.558691
     27          6           0       -6.111586    3.598434    0.663387
     28          6           0       -7.421631    4.342846    0.961495
     29          6           0       -8.433868    3.109188    1.036178
     30          6           0       -7.545711    1.890280    0.890542
     31          6           0       -7.386930    5.325507    2.159492
     32          6           0       -9.472973    3.047219   -0.184122
     33          6           0      -11.002170    2.883099    0.163171
     34          7           0       -6.063445   -0.556520    0.395868
     35          6           0       -7.408778   -0.594120    0.726076
     36          6           0       -7.871840   -1.972607    0.908536
     37          6           0       -6.718249   -2.725750    0.737295
     38          6           0       -5.644167   -1.833108    0.438050
     39          6           0       -9.316874   -2.384166    1.348163
     40          6           0       -6.278901   -4.115553    0.735767
     41          8           0       -6.791394   -5.234595    0.864758
     42          6           0       -4.698736   -3.938110    0.703839
     43          6           0       -4.183080   -5.076283   -0.172742
     44          8           0       -4.301114   -5.207928   -1.363949
     45          8           0       -3.429404   -5.959625    0.590650
     46          6           0       -2.439597   -6.748579   -0.101887
     47          6           0        3.062098   -3.636316   -1.111490
     48          6           0        4.316126   -3.028342   -1.702334
     49          6           0        5.550840   -3.099015   -1.149705
     50          6           0        5.871379   -3.948938   -0.054255
     51          6           0        6.666888   -2.204035   -1.797115
     52          6           0        6.709396   -0.848166   -1.215497
     53          6           0        6.317346    0.239889   -2.250876
     54          6           0        6.957196    1.577023   -1.986918
     55          6           0        5.886559    2.663467   -2.275539
     56          6           0        8.201013    1.863283   -2.850286
     57          6           0        9.436173    2.549492   -2.080028
     58          6           0       10.483586    1.434662   -1.571534
     59          6           0       11.202680    1.963426   -0.285230
     60          6           0       12.086597    3.097147   -0.728113
     61          6           0       11.902584    0.850828    0.437873
     62          6           0       12.071203    1.108097    1.921158
     63          6           0       11.395287    0.050258    2.785330
     64          6           0       11.593639    0.287960    4.309248
     65          6           0       12.790273   -0.554102    4.783916
     66          6           0       10.327772    0.008062    5.079641
     67          1           0       -0.140856    1.286544   -0.223400
     68          1           0       -5.117174    5.328312    0.257907
     69          1           0       -9.204418    0.587829    1.163426
     70          1           0       -1.777888   -3.387378    0.314356
     71          1           0        0.010689   -1.284300   -0.635839
     72          1           0       -0.193321   -2.678554    1.797272
     73          1           0       -0.518998   -0.994597    2.308952
     74          1           0        0.943190   -1.384223    1.335545
     75          1           0       -2.190066   -2.120027   -2.448608
     76          1           0       -2.455643   -3.786308   -1.987490
     77          1           0       -0.111583   -2.446213   -2.979693
     78          1           0       -0.545679   -4.086245   -3.094873
     79          1           0        0.187915    3.172684   -1.605218
     80          1           0        0.603155    3.449359    0.121093
     81          1           0        0.358500    4.841171   -0.882337
     82          1           0       -0.746330    6.251786   -2.064099
     83          1           0       -0.651639    6.784948   -0.363931
     84          1           0       -1.448278    7.789455   -1.518352
     85          1           0       -7.578054    5.046780    0.144382
     86          1           0       -9.014984    3.158792    1.956784
     87          1           0       -6.378484    5.494793    2.536872
     88          1           0       -8.088897    4.940723    2.899469
     89          1           0       -7.732290    6.340620    1.962186
     90          1           0       -9.081357    2.314513   -0.889881
     91          1           0       -9.370240    3.966573   -0.760751
     92          1           0      -11.213325    2.936215    1.231035
     93          1           0      -11.356955    1.934536   -0.240219
     94          1           0      -11.623873    3.573959   -0.406523
     95          1           0      -10.067382   -1.597332    1.266366
     96          1           0       -9.372157   -2.869789    2.323410
     97          1           0       -9.663349   -3.139340    0.642950
     98          1           0       -4.255008   -4.059871    1.691481
     99          1           0       -2.869489   -7.628330   -0.579856
    100          1           0       -1.777283   -7.082405    0.696258
    101          1           0       -1.907682   -6.197686   -0.877757
    102          1           0        3.105525   -4.723627   -1.167580
    103          1           0        2.940033   -3.268955   -0.092748
    104          1           0        4.122042   -2.480672   -2.625270
    105          1           0        6.739927   -3.565516    0.481387
    106          1           0        6.055968   -4.950426   -0.441647
    107          1           0        4.985124   -4.023017    0.576429
    108          1           0        6.489759   -2.092647   -2.866681
    109          1           0        7.566426   -2.811972   -1.702068
    110          1           0        7.658073   -0.681197   -0.703971
    111          1           0        5.930514   -0.802158   -0.455085
    112          1           0        5.227761    0.264717   -2.228143
    113          1           0        6.647931   -0.100255   -3.231876
    114          1           0        7.156256    1.705085   -0.923053
    115          1           0        5.262452    2.904791   -1.416392
    116          1           0        5.209899    2.383650   -3.083624
    117          1           0        6.407523    3.568424   -2.587312
    118          1           0        8.036395    2.452290   -3.753171
    119          1           0        8.492187    0.906134   -3.282531
    120          1           0        9.189955    3.194194   -1.235544
    121          1           0        9.920535    3.260948   -2.749071
    122          1           0       11.201431    1.415835   -2.390749
    123          1           0        9.985879    0.467462   -1.491136
    124          1           0       10.367287    2.340445    0.305279
    125          1           0       11.484867    3.961749   -0.446067
    126          1           0       12.136715    3.135946   -1.815747
    127          1           0       13.032896    3.170041   -0.191807
    128          1           0       12.898527    0.776243    0.001503
    129          1           0       11.527325   -0.139984    0.180842
    130          1           0       11.717834    2.111018    2.160627
    131          1           0       13.155846    1.057866    2.021892
    132          1           0       11.822169   -0.909226    2.493764
    133          1           0       10.352700   -0.171174    2.556099
    134          1           0       11.862689    1.329433    4.482314
    135          1           0       13.510190   -0.804430    4.005468
    136          1           0       12.426300   -1.441831    5.301463
    137          1           0       13.378729   -0.060586    5.557106
    138          1           0       10.489302    0.277623    6.123145
    139          1           0        9.949857   -1.009719    4.979459
    140          1           0        9.554026    0.607982    4.600275
 ---------------------------------------------------------------------

 SCF Done:  E(RCAM-B3LYP) =  -3007.20398670     A.U. after   19 cycles

 Excitation energies and oscillator strengths:

 Excited State   1:      Singlet-A      1.6988 eV  729.84 nm  f=0.3748  <S**2>=0.000
     245 -> 248       -0.19162
     246 -> 247        0.68279
     245 <- 248       -0.11017
 This state for optimization and/or second-order correction.
 Total Energy, E(TD-HF/TD-DFT) =  -3007.14155778
 Copying the excited state density for this state as the 1-particle RhoCI density.

 Excited State   2:      Singlet-A      2.1725 eV  570.69 nm  f=0.1192  <S**2>=0.000
     245 -> 247        0.64324
     246 -> 248        0.28659

 Excited State   3:      Singlet-A      3.4350 eV  360.94 nm  f=0.4038  <S**2>=0.000
     239 -> 247        0.18983
     239 -> 249       -0.13247
     240 -> 247        0.22954
     240 -> 249       -0.13108
     241 -> 247       -0.17567
     245 -> 247       -0.21863
     246 -> 248        0.50721

 Excited State   4:      Singlet-A      3.4582 eV  358.53 nm  f=0.0562  <S**2>=0.000
     239 -> 247        0.13808
     243 -> 247        0.59787
     246 -> 248       -0.24597

 Excited State   5:      Singlet-A      3.4870 eV  355.56 nm  f=0.0117  <S**2>=0.000
     239 -> 247       -0.13230
     240 -> 247       -0.14159
     240 -> 249        0.10608
     242 -> 247        0.51316
     242 -> 248        0.13520
     242 -> 249        0.23837
     242 -> 250        0.22984

 The electronic state is 1-A.
 Alpha  occ. eigenvalues --  -46.88460 -19.24970 -19.23473 -19.22224 -19.19953
 Alpha  occ. eigenvalues --  -19.19655 -19.17516 -14.42140 -14.42004 -14.40042
 Alpha  occ. eigenvalues --  -14.39317 -10.40794 -10.38743 -10.35796 -10.33747
 Alpha  occ. eigenvalues --  -10.31830 -10.31340 -10.31058 -10.31044 -10.30624
 Alpha  occ. eigenvalues --  -10.30535 -10.30500 -10.29970 -10.29627 -10.29231
 Alpha  occ. eigenvalues --  -10.28982 -10.28537 -10.28527 -10.28387 -10.28090
 Alpha  occ. eigenvalues --  -10.27815 -10.27793 -10.27628 -10.27530 -10.27305
 Alpha  occ. eigenvalues --  -10.27243 -10.27156 -10.27028 -10.26765 -10.26690
 Alpha  occ. eigenvalues --  -10.26564 -10.26220 -10.26157 -10.26125 -10.26082
 Alpha  occ. eigenvalues --  -10.25992 -10.25943 -10.25712 -10.25677 -10.25652
 Alpha  occ. eigenvalues --  -10.25523 -10.25449 -10.25439 -10.25439 -10.25183
 Alpha  occ. eigenvalues --  -10.25045 -10.25040 -10.25008 -10.24967 -10.24733
 Alpha  occ. eigenvalues --  -10.24611 -10.24510 -10.24388 -10.24358 -10.24178
 Alpha  occ. eigenvalues --  -10.23910  -3.17107  -1.92012  -1.91556  -1.91421
 Alpha  occ. eigenvalues --   -1.17078  -1.15670  -1.09932  -1.09517  -1.08958
 Alpha  occ. eigenvalues --   -1.07463  -1.04948  -1.04161  -1.03812  -1.03068
 Alpha  occ. eigenvalues --   -0.92116  -0.91540  -0.90550  -0.89481  -0.89128
 Alpha  occ. eigenvalues --   -0.88858  -0.88290  -0.87858  -0.87389  -0.87256
 Alpha  occ. eigenvalues --   -0.86174  -0.85397  -0.84658  -0.83420  -0.83219
 Alpha  occ. eigenvalues --   -0.82917  -0.81782  -0.81368  -0.80547  -0.80111
 Alpha  occ. eigenvalues --   -0.79960  -0.78377  -0.78112  -0.77362  -0.76029
 Alpha  occ. eigenvalues --   -0.75800  -0.75717  -0.75219  -0.75037  -0.74140
 Alpha  occ. eigenvalues --   -0.73475  -0.72848  -0.71527  -0.70317  -0.69139
 Alpha  occ. eigenvalues --   -0.69028  -0.68801  -0.67471  -0.66622  -0.65683
 Alpha  occ. eigenvalues --   -0.65549  -0.65213  -0.64568  -0.64177  -0.64049
 Alpha  occ. eigenvalues --   -0.63779  -0.63375  -0.63063  -0.61609  -0.60333
 Alpha  occ. eigenvalues --   -0.59992  -0.59715  -0.58897  -0.58818  -0.58331
 Alpha  occ. eigenvalues --   -0.57415  -0.57350  -0.56497  -0.55981  -0.55371
 Alpha  occ. eigenvalues --   -0.55054  -0.54815  -0.54423  -0.54306  -0.54160
 Alpha  occ. eigenvalues --   -0.53800  -0.53693  -0.53455  -0.53232  -0.52956
 Alpha  occ. eigenvalues --   -0.52916  -0.52427  -0.52215  -0.52059  -0.51572
 Alpha  occ. eigenvalues --   -0.51404  -0.51282  -0.51277  -0.50827  -0.50660
 Alpha  occ. eigenvalues --   -0.50525  -0.50303  -0.50250  -0.50201  -0.50023
 Alpha  occ. eigenvalues --   -0.49788  -0.49567  -0.49415  -0.49190  -0.49007
 Alpha  occ. eigenvalues --   -0.48943  -0.48566  -0.48317  -0.48079  -0.47991
 Alpha  occ. eigenvalues --   -0.47816  -0.47670  -0.47313  -0.47097  -0.47055
 Alpha  occ. eigenvalues --   -0.46831  -0.46467  -0.46137  -0.46007  -0.45658
 Alpha  occ. eigenvalues --   -0.45455  -0.45337  -0.45287  -0.45111  -0.44759
 Alpha  occ. eigenvalues --   -0.44652  -0.44563  -0.44503  -0.44220  -0.44112
 Alpha  occ. eigenvalues --   -0.44045  -0.43623  -0.43428  -0.43128  -0.43046
 Alpha  occ. eigenvalues --   -0.42844  -0.42463  -0.42410  -0.42216  -0.42142
 Alpha  occ. eigenvalues --   -0.41942  -0.41808  -0.41488  -0.41355  -0.41189
 Alpha  occ. eigenvalues --   -0.41065  -0.41021  -0.40637  -0.40513  -0.40146
 Alpha  occ. eigenvalues --   -0.40011  -0.39947  -0.39936  -0.38893  -0.38788
 Alpha  occ. eigenvalues --   -0.38598  -0.38453  -0.38297  -0.37917  -0.37590
 Alpha  occ. eigenvalues --   -0.37492  -0.37256  -0.36649  -0.36621  -0.36536
 Alpha  occ. eigenvalues --   -0.36101  -0.35736  -0.35584  -0.35273  -0.34736
 Alpha  occ. eigenvalues --   -0.33994  -0.33944  -0.32820  -0.31857  -0.31183
 Alpha  occ. eigenvalues --   -0.30979  -0.30066  -0.29711  -0.29427  -0.23802
 Alpha  occ. eigenvalues --   -0.21239
 Alpha virt. eigenvalues --   -0.08768  -0.01935  -0.00057   0.02314   0.02858
 Alpha virt. eigenvalues --    0.04383   0.05345   0.05724   0.05823   0.06241
 Alpha virt. eigenvalues --    0.07617   0.07917   0.08266   0.09031   0.09212

 Mulliken charges:
               1
     1  Mg   0.852379
     2  C    0.012469
     3  C   -0.074656
     4  C   -0.050074
     5  C   -0.087220
     6  N   -0.238709
     7  C   -0.038879
     8  C   -0.050267
     9  C   -0.080447
    10  C    0.028199
    11  C    0.092017
    12  C    0.082193
    13  C    0.028047
    14  C    0.177348
    15  O   -0.191365
    16  O   -0.372507
    17  N   -0.342803
    18  C    0.114898
    19  C   -0.161704
    20  C    0.021080
    21  C    0.089678
    22  C    0.117350
    23  C   -0.036649
    24  O   -0.215414
    25  C    0.049417
    26  N   -0.309662
    27  C    0.051106
    28  C   -0.048314
    29  C   -0.040779
    30  C    0.058967
    31  C    0.059117
    32  C    0.009492
    33  C    0.005360
    34  N   -0.377278
    35  C    0.133022
    36  C   -0.150087
    37  C   -0.021479
    38  C    0.114785
    39  C    0.116495
    40  C    0.120663
    41  O   -0.174046
    42  C   -0.071795
    43  C    0.196908
    44  O   -0.200584
    45  O   -0.343546
    46  C    0.192687
    47  C    0.264309
    48  C   -0.137510
    49  C   -0.231043
    50  C    0.129025
    51  C    0.089059
    52  C    0.035223
    53  C    0.040625
    54  C   -0.097488
    55  C    0.030569
    56  C    0.065950
    57  C   -0.013988
    58  C    0.014124
    59  C   -0.170055
    60  C    0.086816
    61  C    0.086772
    62  C    0.051183
    63  C    0.019946
    64  C   -0.112964
    65  C    0.040996
    66  C    0.049624
    67  H   -0.028318
    68  H   -0.002987
    69  H   -0.026011
    70  H    0.005116
    71  H    0.012738
    72  H    0.029062
    73  H    0.028519
    74  H    0.014376
    75  H    0.008475
    76  H    0.036678
    77  H    0.032325
    78  H    0.033293
    79  H    0.039353
    80  H    0.024110
    81  H    0.005970
    82  H    0.032845
    83  H    0.032525
    84  H    0.019983
    85  H    0.029905
    86  H    0.006789
    87  H    0.025588
    88  H    0.004842
    89  H    0.011159
    90  H    0.022049
    91  H    0.003219
    92  H    0.023389
    93  H    0.013544
    94  H    0.016953
    95  H    0.011606
    96  H    0.043230
    97  H    0.031128
    98  H    0.055492
    99  H    0.027520
   100  H    0.034989
   101  H    0.022280
   102  H    0.020244
   103  H    0.036219
   104  H    0.003994
   105  H    0.014844
   106  H    0.037965
   107  H    0.011743
   108  H   -0.001239
   109  H   -0.012768
   110  H    0.003919
   111  H   -0.000975
   112  H    0.002227
   113  H   -0.005087
   114  H   -0.002421
   115  H    0.002500
   116  H    0.004797
   117  H   -0.001094
   118  H   -0.007116
   119  H   -0.014040
   120  H   -0.004749
   121  H   -0.007541
   122  H   -0.002319
   123  H    0.004299
   124  H   -0.003876
   125  H   -0.002689
   126  H    0.012129
   127  H    0.013802
   128  H   -0.028734
   129  H   -0.021534
   130  H    0.000846
   131  H   -0.007416
   132  H   -0.016547
   133  H   -0.020749
   134  H   -0.003946
   135  H    0.010431
   136  H   -0.000514
   137  H   -0.004590
   138  H    0.012068
   139  H    0.004722
   140  H    0.004871
 Sum of Mulliken charges =  -0.00000

 Dipole moment (field-independent basis, Debye):
    X=              4.1057    Y=              2.6645    Z=              0.5144  Tot=              4.9215
 Quadrupole moment (field-independent basis, Debye-Ang):
   XX=           -372.8643   YY=           -443.9050   ZZ=           -404.7848
   XY=            -30.7308   XZ=             -9.7889   YZ=              5.4050

 Normal termination of Gaussian 16 at Wed May  4 20:56:06 2022.
