 Gaussian 16, Revision A.03,
 Gaussian 16:  ES64L-G16RevA.03 25-Dec-2016

 ---------------------------------
 #p PBE1PBE/Def2SVP td=(nstates=5)
 ---------------------------------

 -----------------------------------------------------
 step_451_chromophore_15 TDDFT with PBE1PBE functional
 -----------------------------------------------------
 Symbolic Z-matrix:
 Charge =  0 Multiplicity = 1

                         Standard orientation:
 ---------------------------------------------------------------------
 Center     Atomic      Atomic             Coordinates (Angstroms)
 Number     Number       Type             X           Y           Z
 ---------------------------------------------------------------------
      1         12           0       -4.757979    0.955372    0.067517
      2          6           0       -4.383988   -2.502238    0.224594
      3          6           0       -1.223908    1.158472   -0.162720
      4          6           0       -4.968093    4.250866    0.164818
      5          6           0       -8.135526    0.602821    0.939193
      6          7           0       -3.018209   -0.511251    0.036113
      7          6           0       -3.173255   -1.822319   -0.046533
      8          6           0       -1.817722   -2.508370   -0.329323
      9          6           0       -0.758892   -1.419063    0.123398
     10          6           0       -1.697016   -0.169185    0.069903
     11          6           0       -0.101904   -1.626792    1.524469
     12          6           0       -1.804144   -2.928452   -1.826640
     13          6           0       -0.400831   -3.294611   -2.360092
     14          6           0        0.699350   -3.862398   -1.453962
     15          8           0        0.552991   -4.551355   -0.488452
     16          8           0        1.929923   -3.348972   -1.953419
     17          7           0       -3.355523    2.513222   -0.097385
     18          6           0       -2.001185    2.389781   -0.261593
     19          6           0       -1.416277    3.638918   -0.438932
     20          6           0       -2.445870    4.577069   -0.541401
     21          6           0       -3.644705    3.833091   -0.151510
     22          6           0        0.033013    3.811070   -0.735230
     23          6           0       -2.504862    5.982784   -0.910578
     24          8           0       -3.539401    6.647637   -0.921784
     25          6           0       -1.281628    6.745283   -1.253071
     26          7           0       -6.294722    2.243768    0.558691
     27          6           0       -6.111586    3.598434    0.663387
     28          6           0       -7.421631    4.342846    0.961495
     29          6           0       -8.433868    3.109188    1.036178
     30          6           0       -7.545711    1.890280    0.890542
     31          6           0       -7.386930    5.325507    2.159492
     32          6           0       -9.472973    3.047219   -0.184122
     33          6           0      -11.002170    2.883099    0.163171
     34          7           0       -6.063445   -0.556520    0.395868
     35          6           0       -7.408778   -0.594120    0.726076
     36          6           0       -7.871840   -1.972607    0.908536
     37          6           0       -6.718249   -2.725750    0.737295
     38          6           0       -5.644167   -1.833108    0.438050
     39          6           0       -9.316874   -2.384166    1.348163
     40          6           0       -6.278901   -4.115553    0.735767
     41          8           0       -6.791394   -5.234595    0.864758
     42          6           0       -4.698736   -3.938110    0.703839
     43          6           0       -4.183080   -5.076283   -0.172742
     44          8           0       -4.301114   -5.207928   -1.363949
     45          8           0       -3.429404   -5.959625    0.590650
     46          6           0       -2.439597   -6.748579   -0.101887
     47          6           0        3.062098   -3.636316   -1.111490
     48          6           0        4.316126   -3.028342   -1.702334
     49          6           0        5.550840   -3.099015   -1.149705
     50          6           0        5.871379   -3.948938   -0.054255
     51          6           0        6.666888   -2.204035   -1.797115
     52          6           0        6.709396   -0.848166   -1.215497
     53          6           0        6.317346    0.239889   -2.250876
     54          6           0        6.957196    1.577023   -1.986918
     55          6           0        5.886559    2.663467   -2.275539
     56          6           0        8.201013    1.863283   -2.850286
     57          6           0        9.436173    2.549492   -2.080028
     58          6           0       10.483586    1.434662   -1.571534
     59          6           0       11.202680    1.963426   -0.285230
     60          6           0       12.086597    3.097147   -0.728113
     61          6           0       11.902584    0.850828    0.437873
     62          6           0       12.071203    1.108097    1.921158
     63          6           0       11.395287    0.050258    2.785330
     64          6           0       11.593639    0.287960    4.309248
     65          6           0       12.790273   -0.554102    4.783916
     66          6           0       10.327772    0.008062    5.079641
     67          1           0       -0.140856    1.286544   -0.223400
     68          1           0       -5.117174    5.328312    0.257907
     69          1           0       -9.204418    0.587829    1.163426
     70          1           0       -1.777888   -3.387378    0.314356
     71          1           0        0.010689   -1.284300   -0.635839
     72          1           0       -0.193321   -2.678554    1.797272
     73          1           0       -0.518998   -0.994597    2.308952
     74          1           0        0.943190   -1.384223    1.335545
     75          1           0       -2.190066   -2.120027   -2.448608
     76          1           0       -2.455643   -3.786308   -1.987490
     77          1           0       -0.111583   -2.446213   -2.979693
     78          1           0       -0.545679   -4.086245   -3.094873
     79          1           0        0.187915    3.172684   -1.605218
     80          1           0        0.603155    3.449359    0.121093
     81          1           0        0.358500    4.841171   -0.882337
     82          1           0       -0.746330    6.251786   -2.064099
     83          1           0       -0.651639    6.784948   -0.363931
     84          1           0       -1.448278    7.789455   -1.518352
     85          1           0       -7.578054    5.046780    0.144382
     86          1           0       -9.014984    3.158792    1.956784
     87          1           0       -6.378484    5.494793    2.536872
     88          1           0       -8.088897    4.940723    2.899469
     89          1           0       -7.732290    6.340620    1.962186
     90          1           0       -9.081357    2.314513   -0.889881
     91          1           0       -9.370240    3.966573   -0.760751
     92          1           0      -11.213325    2.936215    1.231035
     93          1           0      -11.356955    1.934536   -0.240219
     94          1           0      -11.623873    3.573959   -0.406523
     95          1           0      -10.067382   -1.597332    1.266366
     96          1           0       -9.372157   -2.869789    2.323410
     97          1           0       -9.663349   -3.139340    0.642950
     98          1           0       -4.255008   -4.059871    1.691481
     99          1           0       -2.869489   -7.628330   -0.579856
    100          1           0       -1.777283   -7.082405    0.696258
    101          1           0       -1.907682   -6.197686   -0.877757
    102          1           0        3.105525   -4.723627   -1.167580
    103          1           0        2.940033   -3.268955   -0.092748
    104          1           0        4.122042   -2.480672   -2.625270
    105          1           0        6.739927   -3.565516    0.481387
    106          1           0        6.055968   -4.950426   -0.441647
    107          1           0        4.985124   -4.023017    0.576429
    108          1           0        6.489759   -2.092647   -2.866681
    109          1           0        7.566426   -2.811972   -1.702068
    110          1           0        7.658073   -0.681197   -0.703971
    111          1           0        5.930514   -0.802158   -0.455085
    112          1           0        5.227761    0.264717   -2.228143
    113          1           0        6.647931   -0.100255   -3.231876
    114          1           0        7.156256    1.705085   -0.923053
    115          1           0        5.262452    2.904791   -1.416392
    116          1           0        5.209899    2.383650   -3.083624
    117          1           0        6.407523    3.568424   -2.587312
    118          1           0        8.036395    2.452290   -3.753171
    119          1           0        8.492187    0.906134   -3.282531
    120          1           0        9.189955    3.194194   -1.235544
    121          1           0        9.920535    3.260948   -2.749071
    122          1           0       11.201431    1.415835   -2.390749
    123          1           0        9.985879    0.467462   -1.491136
    124          1           0       10.367287    2.340445    0.305279
    125          1           0       11.484867    3.961749   -0.446067
    126          1           0       12.136715    3.135946   -1.815747
    127          1           0       13.032896    3.170041   -0.191807
    128          1           0       12.898527    0.776243    0.001503
    129          1           0       11.527325   -0.139984    0.180842
    130          1           0       11.717834    2.111018    2.160627
    131          1           0       13.155846    1.057866    2.021892
    132          1           0       11.822169   -0.909226    2.493764
    133          1           0       10.352700   -0.171174    2.556099
    134          1           0       11.862689    1.329433    4.482314
    135          1           0       13.510190   -0.804430    4.005468
    136          1           0       12.426300   -1.441831    5.301463
    137          1           0       13.378729   -0.060586    5.557106
    138          1           0       10.489302    0.277623    6.123145
    139          1           0        9.949857   -1.009719    4.979459
    140          1           0        9.554026    0.607982    4.600275
 ---------------------------------------------------------------------

 SCF Done:  E(RPBE1PBE) =  -3005.39244401     A.U. after   15 cycles

 Excitation energies and oscillator strengths:

 Excited State   1:      Singlet-A      1.8501 eV  670.14 nm  f=0.3599  <S**2>=0.000
     245 -> 248       -0.18789
     246 -> 247        0.68909
     246 <- 247       -0.10306
 This state for optimization and/or second-order correction.
 Total Energy, E(TD-HF/TD-DFT) =  -3005.32445317
 Copying the excited state density for this state as the 1-particle RhoCI density.

 Excited State   2:      Singlet-A      2.1719 eV  570.86 nm  f=0.1150  <S**2>=0.000
     245 -> 247        0.65519
     246 -> 248        0.25850

 Excited State   3:      Singlet-A      2.8860 eV  429.60 nm  f=0.0008  <S**2>=0.000
     243 -> 247        0.67400
     243 -> 249        0.14720
     243 -> 250        0.10578

 Excited State   4:      Singlet-A      3.0494 eV  406.59 nm  f=0.0096  <S**2>=0.000
     239 -> 247       -0.12264
     241 -> 247        0.52169
     241 -> 249       -0.16444
     242 -> 247        0.39440

 Excited State   5:      Singlet-A      3.1477 eV  393.89 nm  f=0.0026  <S**2>=0.000
     241 -> 247       -0.38305
     242 -> 247        0.56728
     246 -> 248       -0.13035

 The electronic state is 1-A.
 Alpha  occ. eigenvalues --  -46.91869 -19.25693 -19.24080 -19.22427 -19.20004
 Alpha  occ. eigenvalues --  -19.19797 -19.17901 -14.41649 -14.41490 -14.39620
 Alpha  occ. eigenvalues --  -14.39052 -10.37818 -10.35715 -10.32783 -10.30980
 Alpha  occ. eigenvalues --  -10.29240 -10.28939 -10.28921 -10.28671 -10.28415
 Alpha  occ. eigenvalues --  -10.28142 -10.27677 -10.27512 -10.27492 -10.26914
 Alpha  occ. eigenvalues --  -10.26667 -10.26341 -10.26225 -10.26066 -10.25938
 Alpha  occ. eigenvalues --  -10.25683 -10.25616 -10.25265 -10.25168 -10.25089
 Alpha  occ. eigenvalues --  -10.24852 -10.24646 -10.24432 -10.24423 -10.24348
 Alpha  occ. eigenvalues --  -10.24116 -10.23900 -10.23724 -10.23665 -10.23650
 Alpha  occ. eigenvalues --  -10.23558 -10.23444 -10.23363 -10.23333 -10.23213
 Alpha  occ. eigenvalues --  -10.23141 -10.23084 -10.23019 -10.23002 -10.22735
 Alpha  occ. eigenvalues --  -10.22659 -10.22604 -10.22556 -10.22516 -10.22252
 Alpha  occ. eigenvalues --  -10.22164 -10.21878 -10.21788 -10.21787 -10.21555
 Alpha  occ. eigenvalues --  -10.21454  -3.14092  -1.86939  -1.86461  -1.86330
 Alpha  occ. eigenvalues --   -1.11850  -1.10371  -1.04817  -1.04079  -1.03822
 Alpha  occ. eigenvalues --   -1.02244  -0.99526  -0.98765  -0.98541  -0.97785
 Alpha  occ. eigenvalues --   -0.86355  -0.85690  -0.84656  -0.83644  -0.83320
 Alpha  occ. eigenvalues --   -0.83238  -0.82402  -0.82161  -0.81745  -0.81536
 Alpha  occ. eigenvalues --   -0.80458  -0.79649  -0.78865  -0.77614  -0.77453
 Alpha  occ. eigenvalues --   -0.77191  -0.76068  -0.75636  -0.74781  -0.74322
 Alpha  occ. eigenvalues --   -0.74251  -0.72696  -0.72368  -0.71666  -0.70333
 Alpha  occ. eigenvalues --   -0.69916  -0.69885  -0.69561  -0.69185  -0.68320
 Alpha  occ. eigenvalues --   -0.67812  -0.67207  -0.65978  -0.64655  -0.63503
 Alpha  occ. eigenvalues --   -0.63360  -0.63088  -0.61999  -0.60920  -0.60104
 Alpha  occ. eigenvalues --   -0.59966  -0.59444  -0.59153  -0.58740  -0.58193
 Alpha  occ. eigenvalues --   -0.57929  -0.57829  -0.57256  -0.56118  -0.54801
 Alpha  occ. eigenvalues --   -0.54583  -0.54238  -0.53485  -0.53354  -0.52926
 Alpha  occ. eigenvalues --   -0.51858  -0.51705  -0.50912  -0.50608  -0.49792
 Alpha  occ. eigenvalues --   -0.49671  -0.49351  -0.48944  -0.48735  -0.48576
 Alpha  occ. eigenvalues --   -0.48317  -0.48203  -0.47898  -0.47779  -0.47547
 Alpha  occ. eigenvalues --   -0.47330  -0.46988  -0.46745  -0.46590  -0.46092
 Alpha  occ. eigenvalues --   -0.45946  -0.45863  -0.45817  -0.45443  -0.45261
 Alpha  occ. eigenvalues --   -0.45010  -0.44869  -0.44827  -0.44768  -0.44573
 Alpha  occ. eigenvalues --   -0.44331  -0.44175  -0.43967  -0.43781  -0.43597
 Alpha  occ. eigenvalues --   -0.43586  -0.43171  -0.42945  -0.42731  -0.42622
 Alpha  occ. eigenvalues --   -0.42484  -0.42338  -0.41975  -0.41784  -0.41622
 Alpha  occ. eigenvalues --   -0.41538  -0.41312  -0.40850  -0.40682  -0.40313
 Alpha  occ. eigenvalues --   -0.40193  -0.40116  -0.39981  -0.39804  -0.39427
 Alpha  occ. eigenvalues --   -0.39348  -0.39288  -0.39215  -0.39073  -0.38772
 Alpha  occ. eigenvalues --   -0.38744  -0.38427  -0.38186  -0.37948  -0.37880
 Alpha  occ. eigenvalues --   -0.37704  -0.37271  -0.37268  -0.36999  -0.36926
 Alpha  occ. eigenvalues --   -0.36781  -0.36651  -0.36363  -0.36085  -0.36001
 Alpha  occ. eigenvalues --   -0.35919  -0.35802  -0.35462  -0.35385  -0.35088
 Alpha  occ. eigenvalues --   -0.34958  -0.34748  -0.34713  -0.33788  -0.33584
 Alpha  occ. eigenvalues --   -0.33556  -0.33290  -0.33223  -0.32689  -0.32423
 Alpha  occ. eigenvalues --   -0.32383  -0.32057  -0.31693  -0.31628  -0.31439
 Alpha  occ. eigenvalues --   -0.31047  -0.30634  -0.30480  -0.30163  -0.29953
 Alpha  occ. eigenvalues --   -0.28952  -0.28935  -0.28258  -0.27225  -0.26582
 Alpha  occ. eigenvalues --   -0.26079  -0.25468  -0.24905  -0.24722  -0.20742
 Alpha  occ. eigenvalues --   -0.18857
 Alpha virt. eigenvalues --   -0.11219  -0.05452  -0.04237  -0.02064  -0.00277
 Alpha virt. eigenvalues --    0.00053   0.00719   0.01224   0.01713   0.02953
 Alpha virt. eigenvalues --    0.03529   0.04065   0.04988   0.05350   0.05891

 Mulliken charges:
               1
     1  Mg   1.004032
     2  C    0.029693
     3  C   -0.065241
     4  C   -0.048785
     5  C   -0.072802
     6  N   -0.339746
     7  C    0.025667
     8  C   -0.129639
     9  C   -0.157760
    10  C    0.070022
    11  C    0.037638
    12  C    0.039095
    13  C   -0.048616
    14  C    0.239132
    15  O   -0.226200
    16  O   -0.404001
    17  N   -0.460544
    18  C    0.139434
    19  C   -0.185811
    20  C   -0.029955
    21  C    0.124320
    22  C    0.052729
    23  C    0.015081
    24  O   -0.252473
    25  C   -0.024128
    26  N   -0.417965
    27  C    0.092822
    28  C   -0.122477
    29  C   -0.115872
    30  C    0.088634
    31  C    0.003816
    32  C   -0.045528
    33  C   -0.068294
    34  N   -0.505395
    35  C    0.144349
    36  C   -0.153961
    37  C   -0.076629
    38  C    0.158352
    39  C    0.065606
    40  C    0.209231
    41  O   -0.220120
    42  C   -0.187123
    43  C    0.288004
    44  O   -0.237646
    45  O   -0.377044
    46  C    0.135632
    47  C    0.225274
    48  C   -0.138228
    49  C   -0.282687
    50  C    0.060975
    51  C    0.026040
    52  C   -0.024196
    53  C   -0.014747
    54  C   -0.185425
    55  C   -0.027791
    56  C    0.011147
    57  C   -0.070119
    58  C   -0.044214
    59  C   -0.260294
    60  C    0.027828
    61  C    0.037538
    62  C   -0.015297
    63  C   -0.034125
    64  C   -0.206736
    65  C   -0.017373
    66  C   -0.014563
    67  H    0.003008
    68  H    0.028153
    69  H    0.007491
    70  H    0.045609
    71  H    0.050977
    72  H    0.056305
    73  H    0.055369
    74  H    0.042132
    75  H    0.041539
    76  H    0.072973
    77  H    0.062490
    78  H    0.067113
    79  H    0.068007
    80  H    0.053114
    81  H    0.034297
    82  H    0.059682
    83  H    0.059989
    84  H    0.048580
    85  H    0.065437
    86  H    0.042440
    87  H    0.052410
    88  H    0.033033
    89  H    0.038479
    90  H    0.055676
    91  H    0.036059
    92  H    0.049567
    93  H    0.041296
    94  H    0.044680
    95  H    0.036553
    96  H    0.068881
    97  H    0.057864
    98  H    0.092001
    99  H    0.050096
   100  H    0.056718
   101  H    0.046134
   102  H    0.048436
   103  H    0.061917
   104  H    0.033412
   105  H    0.042464
   106  H    0.066282
   107  H    0.039190
   108  H    0.031082
   109  H    0.020572
   110  H    0.035953
   111  H    0.034074
   112  H    0.034533
   113  H    0.026419
   114  H    0.035456
   115  H    0.030435
   116  H    0.032227
   117  H    0.027625
   118  H    0.024431
   119  H    0.018620
   120  H    0.025997
   121  H    0.024391
   122  H    0.032556
   123  H    0.037566
   124  H    0.034902
   125  H    0.025530
   126  H    0.039095
   127  H    0.041461
   128  H    0.005515
   129  H    0.009069
   130  H    0.032675
   131  H    0.025539
   132  H    0.016828
   133  H    0.011120
   134  H    0.033493
   135  H    0.037000
   136  H    0.027222
   137  H    0.023606
   138  H    0.040307
   139  H    0.032369
   140  H    0.033935
 Sum of Mulliken charges =  -0.00000

 Dipole moment (field-independent basis, Debye):
    X=              4.3210    Y=              3.0253    Z=              0.4670  Tot=              5.2954
 Quadrupole moment (field-independent basis, Debye-Ang):
   XX=           -369.9019   YY=           -440.2866   ZZ=           -402.2862
   XY=            -33.2350   XZ=             -9.7150   YZ=              5.4443

 Normal termination of Gaussian 16 at Wed May  4 21:28:00 2022.
