 Gaussian 16, Revision A.03,
 Gaussian 16:  ES64L-G16RevA.03 25-Dec-2016

 --------------------------------
 #p wB97XD/Def2SVP td=(nstates=5)
 --------------------------------

 ----------------------------------------------------
 step_451_chromophore_15 TDDFT with wB97XD functional
 ----------------------------------------------------
 Symbolic Z-matrix:
 Charge =  0 Multiplicity = 1

                         Standard orientation:
 ---------------------------------------------------------------------
 Center     Atomic      Atomic             Coordinates (Angstroms)
 Number     Number       Type             X           Y           Z
 ---------------------------------------------------------------------
      1         12           0       -4.757979    0.955372    0.067517
      2          6           0       -4.383988   -2.502238    0.224594
      3          6           0       -1.223908    1.158472   -0.162720
      4          6           0       -4.968093    4.250866    0.164818
      5          6           0       -8.135526    0.602821    0.939193
      6          7           0       -3.018209   -0.511251    0.036113
      7          6           0       -3.173255   -1.822319   -0.046533
      8          6           0       -1.817722   -2.508370   -0.329323
      9          6           0       -0.758892   -1.419063    0.123398
     10          6           0       -1.697016   -0.169185    0.069903
     11          6           0       -0.101904   -1.626792    1.524469
     12          6           0       -1.804144   -2.928452   -1.826640
     13          6           0       -0.400831   -3.294611   -2.360092
     14          6           0        0.699350   -3.862398   -1.453962
     15          8           0        0.552991   -4.551355   -0.488452
     16          8           0        1.929923   -3.348972   -1.953419
     17          7           0       -3.355523    2.513222   -0.097385
     18          6           0       -2.001185    2.389781   -0.261593
     19          6           0       -1.416277    3.638918   -0.438932
     20          6           0       -2.445870    4.577069   -0.541401
     21          6           0       -3.644705    3.833091   -0.151510
     22          6           0        0.033013    3.811070   -0.735230
     23          6           0       -2.504862    5.982784   -0.910578
     24          8           0       -3.539401    6.647637   -0.921784
     25          6           0       -1.281628    6.745283   -1.253071
     26          7           0       -6.294722    2.243768    0.558691
     27          6           0       -6.111586    3.598434    0.663387
     28          6           0       -7.421631    4.342846    0.961495
     29          6           0       -8.433868    3.109188    1.036178
     30          6           0       -7.545711    1.890280    0.890542
     31          6           0       -7.386930    5.325507    2.159492
     32          6           0       -9.472973    3.047219   -0.184122
     33          6           0      -11.002170    2.883099    0.163171
     34          7           0       -6.063445   -0.556520    0.395868
     35          6           0       -7.408778   -0.594120    0.726076
     36          6           0       -7.871840   -1.972607    0.908536
     37          6           0       -6.718249   -2.725750    0.737295
     38          6           0       -5.644167   -1.833108    0.438050
     39          6           0       -9.316874   -2.384166    1.348163
     40          6           0       -6.278901   -4.115553    0.735767
     41          8           0       -6.791394   -5.234595    0.864758
     42          6           0       -4.698736   -3.938110    0.703839
     43          6           0       -4.183080   -5.076283   -0.172742
     44          8           0       -4.301114   -5.207928   -1.363949
     45          8           0       -3.429404   -5.959625    0.590650
     46          6           0       -2.439597   -6.748579   -0.101887
     47          6           0        3.062098   -3.636316   -1.111490
     48          6           0        4.316126   -3.028342   -1.702334
     49          6           0        5.550840   -3.099015   -1.149705
     50          6           0        5.871379   -3.948938   -0.054255
     51          6           0        6.666888   -2.204035   -1.797115
     52          6           0        6.709396   -0.848166   -1.215497
     53          6           0        6.317346    0.239889   -2.250876
     54          6           0        6.957196    1.577023   -1.986918
     55          6           0        5.886559    2.663467   -2.275539
     56          6           0        8.201013    1.863283   -2.850286
     57          6           0        9.436173    2.549492   -2.080028
     58          6           0       10.483586    1.434662   -1.571534
     59          6           0       11.202680    1.963426   -0.285230
     60          6           0       12.086597    3.097147   -0.728113
     61          6           0       11.902584    0.850828    0.437873
     62          6           0       12.071203    1.108097    1.921158
     63          6           0       11.395287    0.050258    2.785330
     64          6           0       11.593639    0.287960    4.309248
     65          6           0       12.790273   -0.554102    4.783916
     66          6           0       10.327772    0.008062    5.079641
     67          1           0       -0.140856    1.286544   -0.223400
     68          1           0       -5.117174    5.328312    0.257907
     69          1           0       -9.204418    0.587829    1.163426
     70          1           0       -1.777888   -3.387378    0.314356
     71          1           0        0.010689   -1.284300   -0.635839
     72          1           0       -0.193321   -2.678554    1.797272
     73          1           0       -0.518998   -0.994597    2.308952
     74          1           0        0.943190   -1.384223    1.335545
     75          1           0       -2.190066   -2.120027   -2.448608
     76          1           0       -2.455643   -3.786308   -1.987490
     77          1           0       -0.111583   -2.446213   -2.979693
     78          1           0       -0.545679   -4.086245   -3.094873
     79          1           0        0.187915    3.172684   -1.605218
     80          1           0        0.603155    3.449359    0.121093
     81          1           0        0.358500    4.841171   -0.882337
     82          1           0       -0.746330    6.251786   -2.064099
     83          1           0       -0.651639    6.784948   -0.363931
     84          1           0       -1.448278    7.789455   -1.518352
     85          1           0       -7.578054    5.046780    0.144382
     86          1           0       -9.014984    3.158792    1.956784
     87          1           0       -6.378484    5.494793    2.536872
     88          1           0       -8.088897    4.940723    2.899469
     89          1           0       -7.732290    6.340620    1.962186
     90          1           0       -9.081357    2.314513   -0.889881
     91          1           0       -9.370240    3.966573   -0.760751
     92          1           0      -11.213325    2.936215    1.231035
     93          1           0      -11.356955    1.934536   -0.240219
     94          1           0      -11.623873    3.573959   -0.406523
     95          1           0      -10.067382   -1.597332    1.266366
     96          1           0       -9.372157   -2.869789    2.323410
     97          1           0       -9.663349   -3.139340    0.642950
     98          1           0       -4.255008   -4.059871    1.691481
     99          1           0       -2.869489   -7.628330   -0.579856
    100          1           0       -1.777283   -7.082405    0.696258
    101          1           0       -1.907682   -6.197686   -0.877757
    102          1           0        3.105525   -4.723627   -1.167580
    103          1           0        2.940033   -3.268955   -0.092748
    104          1           0        4.122042   -2.480672   -2.625270
    105          1           0        6.739927   -3.565516    0.481387
    106          1           0        6.055968   -4.950426   -0.441647
    107          1           0        4.985124   -4.023017    0.576429
    108          1           0        6.489759   -2.092647   -2.866681
    109          1           0        7.566426   -2.811972   -1.702068
    110          1           0        7.658073   -0.681197   -0.703971
    111          1           0        5.930514   -0.802158   -0.455085
    112          1           0        5.227761    0.264717   -2.228143
    113          1           0        6.647931   -0.100255   -3.231876
    114          1           0        7.156256    1.705085   -0.923053
    115          1           0        5.262452    2.904791   -1.416392
    116          1           0        5.209899    2.383650   -3.083624
    117          1           0        6.407523    3.568424   -2.587312
    118          1           0        8.036395    2.452290   -3.753171
    119          1           0        8.492187    0.906134   -3.282531
    120          1           0        9.189955    3.194194   -1.235544
    121          1           0        9.920535    3.260948   -2.749071
    122          1           0       11.201431    1.415835   -2.390749
    123          1           0        9.985879    0.467462   -1.491136
    124          1           0       10.367287    2.340445    0.305279
    125          1           0       11.484867    3.961749   -0.446067
    126          1           0       12.136715    3.135946   -1.815747
    127          1           0       13.032896    3.170041   -0.191807
    128          1           0       12.898527    0.776243    0.001503
    129          1           0       11.527325   -0.139984    0.180842
    130          1           0       11.717834    2.111018    2.160627
    131          1           0       13.155846    1.057866    2.021892
    132          1           0       11.822169   -0.909226    2.493764
    133          1           0       10.352700   -0.171174    2.556099
    134          1           0       11.862689    1.329433    4.482314
    135          1           0       13.510190   -0.804430    4.005468
    136          1           0       12.426300   -1.441831    5.301463
    137          1           0       13.378729   -0.060586    5.557106
    138          1           0       10.489302    0.277623    6.123145
    139          1           0        9.949857   -1.009719    4.979459
    140          1           0        9.554026    0.607982    4.600275
 ---------------------------------------------------------------------

 SCF Done:  E(RwB97XD) =  -3007.90198737     A.U. after   19 cycles

 Excitation energies and oscillator strengths:

 Excited State   1:      Singlet-A      1.6436 eV  754.33 nm  f=0.3728  <S**2>=0.000
     245 -> 248        0.19683
     246 -> 247        0.68062
     245 <- 248        0.11945
 This state for optimization and/or second-order correction.
 Total Energy, E(TD-HF/TD-DFT) =  -3007.84158465
 Copying the excited state density for this state as the 1-particle RhoCI density.

 Excited State   2:      Singlet-A      2.1172 eV  585.60 nm  f=0.1163  <S**2>=0.000
     245 -> 247        0.64139
     246 -> 248       -0.28936

 Excited State   3:      Singlet-A      3.4473 eV  359.66 nm  f=0.4401  <S**2>=0.000
     239 -> 247       -0.15460
     239 -> 249        0.11404
     240 -> 247       -0.18024
     240 -> 249        0.13468
     241 -> 247        0.22212
     245 -> 247        0.22723
     246 -> 248        0.52402

 Excited State   4:      Singlet-A      3.4886 eV  355.40 nm  f=0.0736  <S**2>=0.000
     239 -> 247        0.14389
     240 -> 247        0.14973
     240 -> 249       -0.12851
     242 -> 247       -0.23330
     243 -> 247        0.50191
     245 -> 247        0.10130
     246 -> 248        0.26025

 Excited State   5:      Singlet-A      3.5166 eV  352.57 nm  f=0.0184  <S**2>=0.000
     240 -> 247       -0.18369
     240 -> 249        0.11071
     242 -> 247        0.37734
     242 -> 248       -0.11799
     242 -> 249        0.20311
     242 -> 250        0.21380
     243 -> 247        0.30255
     243 -> 249        0.17564
     243 -> 250        0.14211

 The electronic state is 1-A.
 Alpha  occ. eigenvalues --  -46.94810 -19.30224 -19.28736 -19.27117 -19.25090
 Alpha  occ. eigenvalues --  -19.24632 -19.22490 -14.46719 -14.46601 -14.44684
 Alpha  occ. eigenvalues --  -14.43892 -10.44618 -10.42647 -10.39898 -10.37633
 Alpha  occ. eigenvalues --  -10.35711 -10.35401 -10.35097 -10.35052 -10.34735
 Alpha  occ. eigenvalues --  -10.34531 -10.34247 -10.34060 -10.33608 -10.33467
 Alpha  occ. eigenvalues --  -10.32948 -10.32714 -10.32637 -10.32434 -10.32161
 Alpha  occ. eigenvalues --  -10.31903 -10.31835 -10.31582 -10.31563 -10.31385
 Alpha  occ. eigenvalues --  -10.31279 -10.31101 -10.31030 -10.30735 -10.30663
 Alpha  occ. eigenvalues --  -10.30456 -10.30350 -10.29996 -10.29987 -10.29981
 Alpha  occ. eigenvalues --  -10.29968 -10.29885 -10.29672 -10.29631 -10.29516
 Alpha  occ. eigenvalues --  -10.29484 -10.29383 -10.29373 -10.29364 -10.29003
 Alpha  occ. eigenvalues --  -10.28994 -10.28987 -10.28949 -10.28873 -10.28629
 Alpha  occ. eigenvalues --  -10.28521 -10.28311 -10.28212 -10.28195 -10.27977
 Alpha  occ. eigenvalues --  -10.27813  -3.20882  -1.94479  -1.94003  -1.93868
 Alpha  occ. eigenvalues --   -1.19219  -1.17865  -1.12145  -1.11827  -1.11106
 Alpha  occ. eigenvalues --   -1.09704  -1.06980  -1.06178  -1.05849  -1.05102
 Alpha  occ. eigenvalues --   -0.94148  -0.93340  -0.92302  -0.91288  -0.90956
 Alpha  occ. eigenvalues --   -0.90764  -0.90048  -0.89736  -0.89324  -0.89203
 Alpha  occ. eigenvalues --   -0.88133  -0.87261  -0.86494  -0.85254  -0.85138
 Alpha  occ. eigenvalues --   -0.84816  -0.83670  -0.83261  -0.82489  -0.81951
 Alpha  occ. eigenvalues --   -0.81892  -0.80325  -0.80011  -0.79281  -0.77992
 Alpha  occ. eigenvalues --   -0.77577  -0.77567  -0.77164  -0.76844  -0.75974
 Alpha  occ. eigenvalues --   -0.75422  -0.74829  -0.73499  -0.72237  -0.71070
 Alpha  occ. eigenvalues --   -0.70975  -0.70718  -0.69452  -0.68507  -0.67604
 Alpha  occ. eigenvalues --   -0.67483  -0.67069  -0.66584  -0.66188  -0.65855
 Alpha  occ. eigenvalues --   -0.65583  -0.65321  -0.64885  -0.63619  -0.62320
 Alpha  occ. eigenvalues --   -0.61949  -0.61685  -0.60903  -0.60793  -0.60312
 Alpha  occ. eigenvalues --   -0.59359  -0.59308  -0.58377  -0.57978  -0.57294
 Alpha  occ. eigenvalues --   -0.57042  -0.56746  -0.56347  -0.56202  -0.56035
 Alpha  occ. eigenvalues --   -0.55717  -0.55591  -0.55314  -0.55193  -0.54843
 Alpha  occ. eigenvalues --   -0.54774  -0.54380  -0.54124  -0.53986  -0.53476
 Alpha  occ. eigenvalues --   -0.53254  -0.53227  -0.53200  -0.52732  -0.52567
 Alpha  occ. eigenvalues --   -0.52470  -0.52182  -0.52154  -0.52097  -0.51946
 Alpha  occ. eigenvalues --   -0.51663  -0.51526  -0.51372  -0.51101  -0.50895
 Alpha  occ. eigenvalues --   -0.50839  -0.50467  -0.50214  -0.49985  -0.49868
 Alpha  occ. eigenvalues --   -0.49720  -0.49570  -0.49227  -0.49048  -0.49014
 Alpha  occ. eigenvalues --   -0.48743  -0.48375  -0.48079  -0.47876  -0.47625
 Alpha  occ. eigenvalues --   -0.47345  -0.47286  -0.47180  -0.47048  -0.46606
 Alpha  occ. eigenvalues --   -0.46547  -0.46442  -0.46393  -0.46165  -0.45991
 Alpha  occ. eigenvalues --   -0.45958  -0.45548  -0.45312  -0.45066  -0.44939
 Alpha  occ. eigenvalues --   -0.44736  -0.44439  -0.44315  -0.44109  -0.44041
 Alpha  occ. eigenvalues --   -0.43873  -0.43698  -0.43394  -0.43195  -0.43186
 Alpha  occ. eigenvalues --   -0.43046  -0.42874  -0.42478  -0.42451  -0.42039
 Alpha  occ. eigenvalues --   -0.41930  -0.41785  -0.41783  -0.40804  -0.40618
 Alpha  occ. eigenvalues --   -0.40524  -0.40279  -0.40225  -0.39740  -0.39486
 Alpha  occ. eigenvalues --   -0.39422  -0.39089  -0.38747  -0.38522  -0.38451
 Alpha  occ. eigenvalues --   -0.37965  -0.37579  -0.37522  -0.37251  -0.36735
 Alpha  occ. eigenvalues --   -0.36010  -0.35780  -0.35066  -0.34036  -0.33304
 Alpha  occ. eigenvalues --   -0.33143  -0.31994  -0.31826  -0.31467  -0.25724
 Alpha  occ. eigenvalues --   -0.23054
 Alpha virt. eigenvalues --   -0.07129  -0.00016   0.01992   0.04422   0.05965
 Alpha virt. eigenvalues --    0.06619   0.07424   0.07986   0.08389   0.09076
 Alpha virt. eigenvalues --    0.10261   0.10760   0.11724   0.12193   0.12655

 Mulliken charges:
               1
     1  Mg   0.992349
     2  C    0.009917
     3  C   -0.079438
     4  C   -0.058321
     5  C   -0.093842
     6  N   -0.305457
     7  C   -0.000571
     8  C   -0.095449
     9  C   -0.129724
    10  C    0.050445
    11  C    0.045185
    12  C    0.045787
    13  C   -0.030748
    14  C    0.225430
    15  O   -0.221103
    16  O   -0.401868
    17  N   -0.426490
    18  C    0.127700
    19  C   -0.174841
    20  C   -0.027145
    21  C    0.112782
    22  C    0.067182
    23  C    0.011744
    24  O   -0.248140
    25  C   -0.013682
    26  N   -0.384453
    27  C    0.074513
    28  C   -0.097668
    29  C   -0.092109
    30  C    0.082516
    31  C    0.013490
    32  C   -0.032464
    33  C   -0.051916
    34  N   -0.468922
    35  C    0.143775
    36  C   -0.156363
    37  C   -0.070299
    38  C    0.147468
    39  C    0.077625
    40  C    0.194279
    41  O   -0.209303
    42  C   -0.142328
    43  C    0.261992
    44  O   -0.230200
    45  O   -0.374895
    46  C    0.153140
    47  C    0.237851
    48  C   -0.152649
    49  C   -0.260537
    50  C    0.073111
    51  C    0.044282
    52  C   -0.011465
    53  C    0.005512
    54  C   -0.159716
    55  C   -0.014869
    56  C    0.027103
    57  C   -0.055633
    58  C   -0.022107
    59  C   -0.224522
    60  C    0.036552
    61  C    0.048131
    62  C    0.002319
    63  C   -0.019072
    64  C   -0.178065
    65  C   -0.007222
    66  C   -0.001457
    67  H   -0.002924
    68  H    0.022200
    69  H    0.000021
    70  H    0.028681
    71  H    0.038295
    72  H    0.050686
    73  H    0.050893
    74  H    0.036470
    75  H    0.035260
    76  H    0.060566
    77  H    0.058209
    78  H    0.061435
    79  H    0.061539
    80  H    0.046963
    81  H    0.028524
    82  H    0.053445
    83  H    0.053704
    84  H    0.046974
    85  H    0.055624
    86  H    0.031175
    87  H    0.046821
    88  H    0.025890
    89  H    0.033341
    90  H    0.045527
    91  H    0.028425
    92  H    0.043784
    93  H    0.034408
    94  H    0.039829
    95  H    0.032899
    96  H    0.065959
    97  H    0.053861
    98  H    0.086146
    99  H    0.046482
   100  H    0.054178
   101  H    0.038542
   102  H    0.042619
   103  H    0.055413
   104  H    0.030722
   105  H    0.037674
   106  H    0.061205
   107  H    0.032755
   108  H    0.021528
   109  H    0.014092
   110  H    0.027743
   111  H    0.023291
   112  H    0.025476
   113  H    0.014672
   114  H    0.023395
   115  H    0.025582
   116  H    0.025567
   117  H    0.020269
   118  H    0.017567
   119  H    0.007787
   120  H    0.014985
   121  H    0.016793
   122  H    0.020744
   123  H    0.025074
   124  H    0.018655
   125  H    0.019081
   126  H    0.031591
   127  H    0.036788
   128  H   -0.003430
   129  H    0.001078
   130  H    0.023271
   131  H    0.017363
   132  H    0.006328
   133  H    0.002558
   134  H    0.023109
   135  H    0.030767
   136  H    0.020824
   137  H    0.018153
   138  H    0.035337
   139  H    0.025826
   140  H    0.026791
 Sum of Mulliken charges =  -0.00000

 Dipole moment (field-independent basis, Debye):
    X=              4.0775    Y=              2.6184    Z=              0.5258  Tot=              4.8743
 Quadrupole moment (field-independent basis, Debye-Ang):
   XX=           -367.2188   YY=           -440.0814   ZZ=           -401.9032
   XY=            -30.6006   XZ=            -10.0012   YZ=              5.0626

 Normal termination of Gaussian 16 at Wed May  4 22:14:40 2022.
