 Gaussian 16, Revision A.03,
 Gaussian 16:  ES64L-G16RevA.03 25-Dec-2016

 --------------------
 #p ZINDO=(nstates=5)
 --------------------

 -----------------------------
 step_451_chromophore_15 ZINDO
 -----------------------------
 Symbolic Z-matrix:
 Charge =  0 Multiplicity = 1

                         Standard orientation:
 ---------------------------------------------------------------------
 Center     Atomic      Atomic             Coordinates (Angstroms)
 Number     Number       Type             X           Y           Z
 ---------------------------------------------------------------------
      1         12           0       -4.757979    0.955372    0.067517
      2          6           0       -4.383988   -2.502238    0.224594
      3          6           0       -1.223908    1.158472   -0.162720
      4          6           0       -4.968093    4.250866    0.164818
      5          6           0       -8.135526    0.602821    0.939193
      6          7           0       -3.018209   -0.511251    0.036113
      7          6           0       -3.173255   -1.822319   -0.046533
      8          6           0       -1.817722   -2.508370   -0.329323
      9          6           0       -0.758892   -1.419063    0.123398
     10          6           0       -1.697016   -0.169185    0.069903
     11          6           0       -0.101904   -1.626792    1.524469
     12          6           0       -1.804144   -2.928452   -1.826640
     13          6           0       -0.400831   -3.294611   -2.360092
     14          6           0        0.699350   -3.862398   -1.453962
     15          8           0        0.552991   -4.551355   -0.488452
     16          8           0        1.929923   -3.348972   -1.953419
     17          7           0       -3.355523    2.513222   -0.097385
     18          6           0       -2.001185    2.389781   -0.261593
     19          6           0       -1.416277    3.638918   -0.438932
     20          6           0       -2.445870    4.577069   -0.541401
     21          6           0       -3.644705    3.833091   -0.151510
     22          6           0        0.033013    3.811070   -0.735230
     23          6           0       -2.504862    5.982784   -0.910578
     24          8           0       -3.539401    6.647637   -0.921784
     25          6           0       -1.281628    6.745283   -1.253071
     26          7           0       -6.294722    2.243768    0.558691
     27          6           0       -6.111586    3.598434    0.663387
     28          6           0       -7.421631    4.342846    0.961495
     29          6           0       -8.433868    3.109188    1.036178
     30          6           0       -7.545711    1.890280    0.890542
     31          6           0       -7.386930    5.325507    2.159492
     32          6           0       -9.472973    3.047219   -0.184122
     33          6           0      -11.002170    2.883099    0.163171
     34          7           0       -6.063445   -0.556520    0.395868
     35          6           0       -7.408778   -0.594120    0.726076
     36          6           0       -7.871840   -1.972607    0.908536
     37          6           0       -6.718249   -2.725750    0.737295
     38          6           0       -5.644167   -1.833108    0.438050
     39          6           0       -9.316874   -2.384166    1.348163
     40          6           0       -6.278901   -4.115553    0.735767
     41          8           0       -6.791394   -5.234595    0.864758
     42          6           0       -4.698736   -3.938110    0.703839
     43          6           0       -4.183080   -5.076283   -0.172742
     44          8           0       -4.301114   -5.207928   -1.363949
     45          8           0       -3.429404   -5.959625    0.590650
     46          6           0       -2.439597   -6.748579   -0.101887
     47          6           0        3.062098   -3.636316   -1.111490
     48          6           0        4.316126   -3.028342   -1.702334
     49          6           0        5.550840   -3.099015   -1.149705
     50          6           0        5.871379   -3.948938   -0.054255
     51          6           0        6.666888   -2.204035   -1.797115
     52          6           0        6.709396   -0.848166   -1.215497
     53          6           0        6.317346    0.239889   -2.250876
     54          6           0        6.957196    1.577023   -1.986918
     55          6           0        5.886559    2.663467   -2.275539
     56          6           0        8.201013    1.863283   -2.850286
     57          6           0        9.436173    2.549492   -2.080028
     58          6           0       10.483586    1.434662   -1.571534
     59          6           0       11.202680    1.963426   -0.285230
     60          6           0       12.086597    3.097147   -0.728113
     61          6           0       11.902584    0.850828    0.437873
     62          6           0       12.071203    1.108097    1.921158
     63          6           0       11.395287    0.050258    2.785330
     64          6           0       11.593639    0.287960    4.309248
     65          6           0       12.790273   -0.554102    4.783916
     66          6           0       10.327772    0.008062    5.079641
     67          1           0       -0.140856    1.286544   -0.223400
     68          1           0       -5.117174    5.328312    0.257907
     69          1           0       -9.204418    0.587829    1.163426
     70          1           0       -1.777888   -3.387378    0.314356
     71          1           0        0.010689   -1.284300   -0.635839
     72          1           0       -0.193321   -2.678554    1.797272
     73          1           0       -0.518998   -0.994597    2.308952
     74          1           0        0.943190   -1.384223    1.335545
     75          1           0       -2.190066   -2.120027   -2.448608
     76          1           0       -2.455643   -3.786308   -1.987490
     77          1           0       -0.111583   -2.446213   -2.979693
     78          1           0       -0.545679   -4.086245   -3.094873
     79          1           0        0.187915    3.172684   -1.605218
     80          1           0        0.603155    3.449359    0.121093
     81          1           0        0.358500    4.841171   -0.882337
     82          1           0       -0.746330    6.251786   -2.064099
     83          1           0       -0.651639    6.784948   -0.363931
     84          1           0       -1.448278    7.789455   -1.518352
     85          1           0       -7.578054    5.046780    0.144382
     86          1           0       -9.014984    3.158792    1.956784
     87          1           0       -6.378484    5.494793    2.536872
     88          1           0       -8.088897    4.940723    2.899469
     89          1           0       -7.732290    6.340620    1.962186
     90          1           0       -9.081357    2.314513   -0.889881
     91          1           0       -9.370240    3.966573   -0.760751
     92          1           0      -11.213325    2.936215    1.231035
     93          1           0      -11.356955    1.934536   -0.240219
     94          1           0      -11.623873    3.573959   -0.406523
     95          1           0      -10.067382   -1.597332    1.266366
     96          1           0       -9.372157   -2.869789    2.323410
     97          1           0       -9.663349   -3.139340    0.642950
     98          1           0       -4.255008   -4.059871    1.691481
     99          1           0       -2.869489   -7.628330   -0.579856
    100          1           0       -1.777283   -7.082405    0.696258
    101          1           0       -1.907682   -6.197686   -0.877757
    102          1           0        3.105525   -4.723627   -1.167580
    103          1           0        2.940033   -3.268955   -0.092748
    104          1           0        4.122042   -2.480672   -2.625270
    105          1           0        6.739927   -3.565516    0.481387
    106          1           0        6.055968   -4.950426   -0.441647
    107          1           0        4.985124   -4.023017    0.576429
    108          1           0        6.489759   -2.092647   -2.866681
    109          1           0        7.566426   -2.811972   -1.702068
    110          1           0        7.658073   -0.681197   -0.703971
    111          1           0        5.930514   -0.802158   -0.455085
    112          1           0        5.227761    0.264717   -2.228143
    113          1           0        6.647931   -0.100255   -3.231876
    114          1           0        7.156256    1.705085   -0.923053
    115          1           0        5.262452    2.904791   -1.416392
    116          1           0        5.209899    2.383650   -3.083624
    117          1           0        6.407523    3.568424   -2.587312
    118          1           0        8.036395    2.452290   -3.753171
    119          1           0        8.492187    0.906134   -3.282531
    120          1           0        9.189955    3.194194   -1.235544
    121          1           0        9.920535    3.260948   -2.749071
    122          1           0       11.201431    1.415835   -2.390749
    123          1           0        9.985879    0.467462   -1.491136
    124          1           0       10.367287    2.340445    0.305279
    125          1           0       11.484867    3.961749   -0.446067
    126          1           0       12.136715    3.135946   -1.815747
    127          1           0       13.032896    3.170041   -0.191807
    128          1           0       12.898527    0.776243    0.001503
    129          1           0       11.527325   -0.139984    0.180842
    130          1           0       11.717834    2.111018    2.160627
    131          1           0       13.155846    1.057866    2.021892
    132          1           0       11.822169   -0.909226    2.493764
    133          1           0       10.352700   -0.171174    2.556099
    134          1           0       11.862689    1.329433    4.482314
    135          1           0       13.510190   -0.804430    4.005468
    136          1           0       12.426300   -1.441831    5.301463
    137          1           0       13.378729   -0.060586    5.557106
    138          1           0       10.489302    0.277623    6.123145
    139          1           0        9.949857   -1.009719    4.979459
    140          1           0        9.554026    0.607982    4.600275
 ---------------------------------------------------------------------

 SCF Done:  E(RZINDO/S) =  -474.492223839     A.U. after   19 cycles

 Excitation energies and oscillator strengths:

 Excited State   1:      Singlet-A      1.2898 eV  961.24 nm  f=0.5720  <S**2>=0.000
     175 ->178         0.18989
     176 ->177         0.66462
 This state for optimization and/or second-order correction.
 Total Energy, E(CIS/TDA) =  -474.444823079
 Copying the excited state density for this state as the 1-particle RhoCI density.

 Excited State   2:      Singlet-A      1.8908 eV  655.74 nm  f=0.0507  <S**2>=0.000
     175 ->177         0.55014
     176 ->178        -0.41717

 Excited State   3:      Singlet-A      2.9050 eV  426.80 nm  f=0.0828  <S**2>=0.000
     168 ->177         0.19871
     168 ->179        -0.24271
     168 ->180         0.11850
     171 ->177         0.22333
     171 ->179         0.20223
     171 ->180         0.31247
     171 ->185        -0.16897
     171 ->187        -0.11597
     171 ->188         0.13406
     176 ->178        -0.13636

 Excited State   4:      Singlet-A      2.9105 eV  425.99 nm  f=0.0607  <S**2>=0.000
     168 ->177         0.26968
     168 ->179        -0.31469
     168 ->180         0.17158
     168 ->185         0.11451
     171 ->177        -0.15066
     171 ->179        -0.17784
     171 ->180        -0.23302
     171 ->185         0.14116
     171 ->188        -0.10292
     176 ->178        -0.12058

 Excited State   5:      Singlet-A      2.9802 eV  416.03 nm  f=0.9275  <S**2>=0.000
     168 ->179        -0.12070
     169 ->177         0.11635
     175 ->177         0.35385
     176 ->178         0.49091
     176 ->179         0.21968

 The electronic state is 1-A.
 Alpha  occ. eigenvalues --   -1.84665  -1.81886  -1.80691  -1.73394  -1.72079
 Alpha  occ. eigenvalues --   -1.70973  -1.66722  -1.63309  -1.59035  -1.57873
 Alpha  occ. eigenvalues --   -1.57404  -1.54105  -1.50275  -1.46760  -1.45239
 Alpha  occ. eigenvalues --   -1.44843  -1.42401  -1.40540  -1.40367  -1.39309
 Alpha  occ. eigenvalues --   -1.36274  -1.35688  -1.32656  -1.30866  -1.28194
 Alpha  occ. eigenvalues --   -1.26604  -1.24763  -1.22135  -1.20579  -1.18318
 Alpha  occ. eigenvalues --   -1.16962  -1.16328  -1.14822  -1.13724  -1.13226
 Alpha  occ. eigenvalues --   -1.12986  -1.10529  -1.10395  -1.05148  -1.04040
 Alpha  occ. eigenvalues --   -1.02981  -1.01380  -0.99934  -0.97898  -0.96461
 Alpha  occ. eigenvalues --   -0.96048  -0.94326  -0.93274  -0.92780  -0.91895
 Alpha  occ. eigenvalues --   -0.90933  -0.90698  -0.89756  -0.87808  -0.86880
 Alpha  occ. eigenvalues --   -0.86536  -0.84495  -0.83141  -0.82530  -0.80613
 Alpha  occ. eigenvalues --   -0.79650  -0.79383  -0.77611  -0.77308  -0.76415
 Alpha  occ. eigenvalues --   -0.75538  -0.75050  -0.74460  -0.73890  -0.73634
 Alpha  occ. eigenvalues --   -0.72867  -0.72636  -0.71636  -0.70825  -0.70655
 Alpha  occ. eigenvalues --   -0.69891  -0.69543  -0.68574  -0.68249  -0.67979
 Alpha  occ. eigenvalues --   -0.67399  -0.66970  -0.66066  -0.65771  -0.65661
 Alpha  occ. eigenvalues --   -0.65263  -0.65103  -0.64876  -0.64349  -0.63556
 Alpha  occ. eigenvalues --   -0.63256  -0.62983  -0.62573  -0.62318  -0.62118
 Alpha  occ. eigenvalues --   -0.61843  -0.61250  -0.60858  -0.60536  -0.60125
 Alpha  occ. eigenvalues --   -0.59509  -0.59073  -0.58575  -0.58384  -0.58345
 Alpha  occ. eigenvalues --   -0.58155  -0.57760  -0.57317  -0.57150  -0.56934
 Alpha  occ. eigenvalues --   -0.56301  -0.55661  -0.55417  -0.55304  -0.54914
 Alpha  occ. eigenvalues --   -0.54669  -0.54468  -0.53935  -0.53625  -0.52715
 Alpha  occ. eigenvalues --   -0.52506  -0.52257  -0.52106  -0.52056  -0.51987
 Alpha  occ. eigenvalues --   -0.50838  -0.50616  -0.50483  -0.50294  -0.50106
 Alpha  occ. eigenvalues --   -0.49984  -0.49741  -0.49623  -0.49614  -0.49087
 Alpha  occ. eigenvalues --   -0.48881  -0.48655  -0.48113  -0.47940  -0.47777
 Alpha  occ. eigenvalues --   -0.47367  -0.46969  -0.46816  -0.46750  -0.46485
 Alpha  occ. eigenvalues --   -0.46368  -0.46070  -0.45992  -0.45311  -0.45245
 Alpha  occ. eigenvalues --   -0.45026  -0.44601  -0.44439  -0.43965  -0.43659
 Alpha  occ. eigenvalues --   -0.43517  -0.43361  -0.43254  -0.42959  -0.42635
 Alpha  occ. eigenvalues --   -0.42379  -0.41518  -0.41111  -0.39646  -0.38996
 Alpha  occ. eigenvalues --   -0.37922  -0.37257  -0.36313  -0.34688  -0.34472
 Alpha  occ. eigenvalues --   -0.33700  -0.32214  -0.31984  -0.31335  -0.26508
 Alpha  occ. eigenvalues --   -0.21930
 Alpha virt. eigenvalues --   -0.08482  -0.02181  -0.00831   0.01447   0.01757
 Alpha virt. eigenvalues --    0.02516   0.02846   0.02988   0.04609   0.04875
 Alpha virt. eigenvalues --    0.06149   0.06805   0.07155   0.07591   0.07987

 Mulliken charges:
               1
     1  Mg   0.426578
     2  C   -0.078629
     3  C   -0.080529
     4  C   -0.048884
     5  C   -0.080355
     6  N   -0.277432
     7  C    0.169044
     8  C    0.007848
     9  C   -0.000011
    10  C    0.083232
    11  C   -0.047556
    12  C   -0.017313
    13  C   -0.002173
    14  C    0.473769
    15  O   -0.497457
    16  O   -0.288320
    17  N   -0.312542
    18  C    0.072219
    19  C    0.004378
    20  C   -0.056760
    21  C    0.127227
    22  C   -0.048941
    23  C    0.329933
    24  O   -0.550237
    25  C   -0.027491
    26  N   -0.257574
    27  C    0.094400
    28  C   -0.001262
    29  C    0.001251
    30  C    0.167896
    31  C   -0.053568
    32  C   -0.036188
    33  C   -0.057992
    34  N   -0.323722
    35  C    0.118378
    36  C    0.042726
    37  C   -0.031276
    38  C    0.132343
    39  C   -0.038640
    40  C    0.335753
    41  O   -0.495485
    42  C    0.056099
    43  C    0.484734
    44  O   -0.512909
    45  O   -0.281743
    46  C    0.080532
    47  C    0.101902
    48  C   -0.111852
    49  C   -0.004898
    50  C   -0.030436
    51  C   -0.022963
    52  C   -0.027420
    53  C   -0.027712
    54  C   -0.003748
    55  C   -0.061211
    56  C   -0.033800
    57  C   -0.053376
    58  C   -0.048301
    59  C   -0.003992
    60  C   -0.055539
    61  C   -0.033780
    62  C   -0.029020
    63  C   -0.032946
    64  C   -0.006782
    65  C   -0.058148
    66  C   -0.051132
    67  H    0.027601
    68  H    0.034385
    69  H    0.035930
    70  H    0.035285
    71  H    0.031339
    72  H    0.028397
    73  H    0.030250
    74  H    0.020655
    75  H    0.027069
    76  H    0.040316
    77  H    0.036135
    78  H    0.038167
    79  H    0.033259
    80  H    0.024176
    81  H    0.023554
    82  H    0.030105
    83  H    0.031159
    84  H    0.033353
    85  H    0.039102
    86  H    0.034755
    87  H    0.028979
    88  H    0.015805
    89  H    0.019771
    90  H    0.029020
    91  H    0.017484
    92  H    0.027786
    93  H    0.015806
    94  H    0.022952
    95  H    0.026732
    96  H    0.041696
    97  H    0.031894
    98  H    0.059640
    99  H    0.041555
   100  H    0.031207
   101  H    0.044927
   102  H    0.046011
   103  H    0.051023
   104  H    0.031808
   105  H    0.023767
   106  H    0.036327
   107  H    0.025552
   108  H    0.021311
   109  H    0.015022
   110  H    0.020771
   111  H    0.015140
   112  H    0.021804
   113  H    0.021080
   114  H    0.023348
   115  H    0.014432
   116  H    0.017168
   117  H    0.011339
   118  H    0.019518
   119  H    0.012973
   120  H    0.023218
   121  H    0.015037
   122  H    0.017596
   123  H    0.023519
   124  H    0.018965
   125  H    0.008832
   126  H    0.029724
   127  H    0.024553
   128  H    0.005080
   129  H    0.017249
   130  H    0.023264
   131  H    0.019619
   132  H    0.011207
   133  H    0.018131
   134  H    0.019355
   135  H    0.021060
   136  H    0.017037
   137  H    0.008367
   138  H    0.019520
   139  H    0.020498
   140  H    0.011337
 Sum of Mulliken charges =  -0.00000

 Dipole moment (field-independent basis, Debye):
    X=              4.1405    Y=              1.4605    Z=              1.5068  Tot=              4.6419
 N-N= 4.391626017497D+03 E-N= 0.000000000000D+00  KE=-9.457660970391D+03
 Leave Link  601 at Wed May  4 22:33:50 2022, MaxMem=  6710886400 cpu:               1.0 elap:               0.1
 (Enter /sw/apps/gaussian-16.0/g16/l9999.exe)
 1\1\GINC-BP1-COMPUTE219\SP\RZINDO CIS\STO-3G\C55H74Mg1N4O6\OF15641\04-
 May-2022\0\\#p ZINDO=(nstates=5)\\step_451_chromophore_15 ZINDO\\0,1\M
 g,0,47.134,34.557,28.313\C,0,45.784,32.452,30.735\C,0,47.15,37.107,30.
 779\C,0,48.178,36.713,26.038\C,0,46.454,32.137,25.869\N,0,46.533,34.74
 3,30.5\C,0,46.177,33.711,31.247\C,0,46.106,34.122,32.735\C,0,45.971,35
 .7,32.669\C,0,46.517,35.904,31.218\C,0,44.537,36.285,32.867\C,0,47.366
 ,33.549,33.444\C,0,47.635,34.166,34.835\C,0,46.509,34.713,35.722\O,0,4

 Normal termination of Gaussian 16 at Wed May  4 22:33:50 2022.
