 Gaussian 16, Revision A.03,
 Gaussian 16:  ES64L-G16RevA.03 25-Dec-2016

 ------------------------------
 #p blyp/Def2SVP td=(nstates=5)
 ------------------------------

 ---------------------------------------------------
 step_1401_chromophore_27 TDDFT with blyp functional
 ---------------------------------------------------
 Symbolic Z-matrix:
 Charge =  0 Multiplicity = 1

                         Standard orientation:
 ---------------------------------------------------------------------
 Center     Atomic      Atomic             Coordinates (Angstroms)
 Number     Number       Type             X           Y           Z
 ---------------------------------------------------------------------
      1         12           0       -4.627781    0.795409   -0.417006
      2          6           0       -4.016858   -2.517488    0.320591
      3          6           0       -1.329663    1.424290   -0.523106
      4          6           0       -5.346305    4.176482   -0.179369
      5          6           0       -7.949562    0.258019    0.352818
      6          7           0       -2.828097   -0.379080    0.014594
      7          6           0       -2.812103   -1.744494    0.186160
      8          6           0       -1.388703   -2.300609    0.035232
      9          6           0       -0.516301   -0.995149    0.125849
     10          6           0       -1.628494    0.101319   -0.170726
     11          6           0        0.318229   -0.875374    1.447158
     12          6           0       -1.207702   -3.172261   -1.179024
     13          6           0       -0.354382   -4.468261   -0.935916
     14          6           0        1.092947   -4.560830   -1.527683
     15          8           0        1.326473   -4.991495   -2.611444
     16          8           0        2.077048   -4.139041   -0.675263
     17          7           0       -3.503335    2.600034   -0.541271
     18          6           0       -2.118499    2.632799   -0.666234
     19          6           0       -1.680487    3.956149   -0.721335
     20          6           0       -2.849405    4.776555   -0.540345
     21          6           0       -3.981199    3.837347   -0.411406
     22          6           0       -0.292190    4.403121   -0.959901
     23          6           0       -2.865801    6.291941   -0.520743
     24          8           0       -3.891337    6.946860   -0.388018
     25          6           0       -1.634821    7.167881   -0.720131
     26          7           0       -6.319987    2.017004    0.043363
     27          6           0       -6.368545    3.363259    0.027035
     28          6           0       -7.827347    3.922103    0.387420
     29          6           0       -8.608870    2.648215    0.340841
     30          6           0       -7.559251    1.542596    0.205617
     31          6           0       -7.880383    4.680231    1.719618
     32          6           0       -9.731228    2.552550   -0.862455
     33          6           0      -11.126771    3.121377   -0.567581
     34          7           0       -5.875580   -0.819765   -0.067802
     35          6           0       -7.178530   -0.929233    0.206758
     36          6           0       -7.620910   -2.314683    0.330928
     37          6           0       -6.382204   -3.007141    0.407358
     38          6           0       -5.320513   -2.035139    0.212213
     39          6           0       -9.052447   -2.781871    0.515470
     40          6           0       -5.781367   -4.297992    0.576841
     41          8           0       -6.239579   -5.431672    0.697694
     42          6           0       -4.226665   -4.013637    0.529191
     43          6           0       -3.593127   -4.632003    1.704571
     44          8           0       -3.346988   -4.007263    2.744267
     45          8           0       -3.053668   -5.865553    1.360697
     46          6           0       -2.233952   -6.444686    2.475554
     47          6           0        3.443101   -4.309874   -1.267483
     48          6           0        4.193945   -3.034512   -1.592412
     49          6           0        5.584269   -2.828680   -1.552965
     50          6           0        6.588447   -3.839986   -1.294485
     51          6           0        6.065425   -1.337086   -1.645529
     52          6           0        6.619302   -1.061752   -2.977546
     53          6           0        8.125307   -0.713486   -2.896812
     54          6           0        8.481639    0.616335   -3.655477
     55          6           0        8.483006    0.393032   -5.192656
     56          6           0        9.766515    1.328919   -3.236839
     57          6           0        9.538841    2.347929   -2.129534
     58          6           0       10.708340    2.404995   -0.978477
     59          6           0       10.147343    1.941739    0.364830
     60          6           0       10.017799    0.371890    0.545948
     61          6           0       10.936855    2.559200    1.554761
     62          6           0       10.002750    2.701687    2.785503
     63          6           0       10.530140    2.267471    4.219717
     64          6           0        9.895054    1.006988    4.753087
     65          6           0        8.705708    1.469394    5.612387
     66          6           0       10.901526    0.167714    5.509165
     67          1           0       -0.256384    1.627317   -0.529325
     68          1           0       -5.516371    5.255859   -0.177571
     69          1           0       -9.017355    0.091628    0.508992
     70          1           0       -1.088946   -2.878018    0.908946
     71          1           0        0.230769   -1.088066   -0.662948
     72          1           0       -0.109640   -1.388703    2.307595
     73          1           0        0.313676    0.197940    1.640107
     74          1           0        1.355718   -1.170212    1.291346
     75          1           0       -0.638328   -2.677668   -1.965439
     76          1           0       -2.193408   -3.366733   -1.600225
     77          1           0       -1.028656   -5.275682   -1.223309
     78          1           0       -0.321306   -4.712840    0.126829
     79          1           0        0.219198    3.540820   -1.387023
     80          1           0        0.224918    4.700674   -0.047512
     81          1           0       -0.364404    5.144554   -1.755577
     82          1           0       -1.286044    7.065107   -1.747937
     83          1           0       -0.887963    7.081367    0.068899
     84          1           0       -1.908361    8.220529   -0.785106
     85          1           0       -8.189801    4.490843   -0.468185
     86          1           0       -9.209628    2.546321    1.244469
     87          1           0       -6.876763    4.727103    2.142342
     88          1           0       -8.464918    4.216551    2.514726
     89          1           0       -8.289797    5.666670    1.501965
     90          1           0       -9.911581    1.605397   -1.370730
     91          1           0       -9.270264    3.124423   -1.666873
     92          1           0      -11.803858    2.321476   -0.266387
     93          1           0      -11.461398    3.695501   -1.432222
     94          1           0      -11.119819    3.836083    0.255243
     95          1           0       -9.807575   -2.023498    0.306748
     96          1           0       -9.250658   -3.386490    1.400506
     97          1           0       -9.180503   -3.491348   -0.301915
     98          1           0       -3.665357   -4.515267   -0.259270
     99          1           0       -1.297460   -5.891196    2.545208
    100          1           0       -2.036353   -7.488346    2.234534
    101          1           0       -2.766119   -6.396918    3.426060
    102          1           0        3.520855   -4.992482   -2.113773
    103          1           0        3.987721   -4.889087   -0.522242
    104          1           0        3.496805   -2.196917   -1.590835
    105          1           0        7.344507   -3.468588   -0.601451
    106          1           0        7.171307   -4.165618   -2.155617
    107          1           0        6.155193   -4.724280   -0.828741
    108          1           0        6.831510   -1.105808   -0.905290
    109          1           0        5.139088   -0.787298   -1.478784
    110          1           0        6.134229   -0.225741   -3.482655
    111          1           0        6.499295   -1.935105   -3.617232
    112          1           0        8.675287   -1.513224   -3.392247
    113          1           0        8.552393   -0.489950   -1.919527
    114          1           0        7.738802    1.409191   -3.571170
    115          1           0        7.710475    0.983408   -5.685572
    116          1           0        8.425600   -0.649173   -5.507307
    117          1           0        9.385300    0.791994   -5.657961
    118          1           0       10.122335    1.882239   -4.106199
    119          1           0       10.457994    0.634161   -2.759694
    120          1           0        8.529650    2.275439   -1.723197
    121          1           0        9.682108    3.299210   -2.641201
    122          1           0       11.124373    3.405197   -0.856894
    123          1           0       11.606043    1.873360   -1.296633
    124          1           0        9.161857    2.400458    0.444663
    125          1           0       10.521761   -0.034112    1.422695
    126          1           0       10.274358   -0.177650   -0.359535
    127          1           0        8.953781    0.184527    0.692176
    128          1           0       11.281590    3.530822    1.201564
    129          1           0       11.852728    2.032133    1.824199
    130          1           0        8.998662    2.338059    2.567130
    131          1           0        9.856011    3.779125    2.848913
    132          1           0       10.488892    3.134999    4.877036
    133          1           0       11.597755    2.087389    4.095584
    134          1           0        9.443838    0.452059    3.930545
    135          1           0        8.483411    0.905551    6.517824
    136          1           0        7.718445    1.386494    5.159028
    137          1           0        8.735957    2.514441    5.921795
    138          1           0       10.632912    0.075486    6.561736
    139          1           0       11.923009    0.533485    5.412184
    140          1           0       10.814271   -0.830114    5.079446
 ---------------------------------------------------------------------

 SCF Done:  E(RB-LYP) =  -3007.35052208     A.U. after   22 cycles

 Excitation energies and oscillator strengths:

 Excited State   1:      Singlet-A      1.6482 eV  752.23 nm  f=0.0002  <S**2>=0.000
     244 -> 247        0.70460
 This state for optimization and/or second-order correction.
 Total Energy, E(TD-HF/TD-DFT) =  -3007.28995078
 Copying the excited state density for this state as the 1-particle RhoCI density.

 Excited State   2:      Singlet-A      1.8352 eV  675.60 nm  f=0.2953  <S**2>=0.000
     245 -> 247       -0.11769
     245 -> 248        0.16988
     245 -> 249       -0.10182
     246 -> 247        0.67735
     246 <- 247       -0.14739

 Excited State   3:      Singlet-A      1.9947 eV  621.56 nm  f=0.1304  <S**2>=0.000
     243 -> 247       -0.12030
     245 -> 247        0.63923
     246 -> 247        0.12830
     246 -> 248       -0.17741
     246 -> 249        0.11776

 Excited State   4:      Singlet-A      2.0242 eV  612.52 nm  f=0.0058  <S**2>=0.000
     243 -> 247        0.69332
     245 -> 247        0.12039

 Excited State   5:      Singlet-A      2.1276 eV  582.74 nm  f=0.0002  <S**2>=0.000
     242 -> 247        0.70700

 The electronic state is 1-A.
 Alpha  occ. eigenvalues --  -46.27772 -18.83098 -18.82525 -18.77042 -18.76712
 Alpha  occ. eigenvalues --  -18.76078 -18.74844 -14.04021 -14.02796 -14.01302
 Alpha  occ. eigenvalues --  -14.00887 -10.04551 -10.03751 -10.00055  -9.99425
 Alpha  occ. eigenvalues --   -9.98094  -9.97905  -9.97506  -9.96800  -9.95847
 Alpha  occ. eigenvalues --   -9.95745  -9.95553  -9.95393  -9.95339  -9.95290
 Alpha  occ. eigenvalues --   -9.94693  -9.94352  -9.94327  -9.93940  -9.93825
 Alpha  occ. eigenvalues --   -9.93805  -9.93804  -9.93737  -9.93397  -9.93269
 Alpha  occ. eigenvalues --   -9.93205  -9.93197  -9.93083  -9.92931  -9.92822
 Alpha  occ. eigenvalues --   -9.92696  -9.92659  -9.92451  -9.92371  -9.92135
 Alpha  occ. eigenvalues --   -9.92100  -9.91977  -9.91914  -9.91851  -9.91840
 Alpha  occ. eigenvalues --   -9.91829  -9.91724  -9.91695  -9.91488  -9.91452
 Alpha  occ. eigenvalues --   -9.91429  -9.91390  -9.91355  -9.91035  -9.90988
 Alpha  occ. eigenvalues --   -9.90945  -9.90878  -9.90791  -9.90669  -9.90480
 Alpha  occ. eigenvalues --   -9.90477  -2.92374  -1.72785  -1.72252  -1.72098
 Alpha  occ. eigenvalues --   -0.99025  -0.96833  -0.91254  -0.91065  -0.90901
 Alpha  occ. eigenvalues --   -0.89087  -0.87626  -0.87078  -0.86464  -0.85379
 Alpha  occ. eigenvalues --   -0.75933  -0.74187  -0.73329  -0.72929  -0.72383
 Alpha  occ. eigenvalues --   -0.72352  -0.71882  -0.71084  -0.70758  -0.70621
 Alpha  occ. eigenvalues --   -0.69702  -0.69168  -0.68318  -0.67661  -0.67112
 Alpha  occ. eigenvalues --   -0.66411  -0.65857  -0.65413  -0.65185  -0.64133
 Alpha  occ. eigenvalues --   -0.63943  -0.62838  -0.62312  -0.61821  -0.61010
 Alpha  occ. eigenvalues --   -0.60719  -0.60544  -0.60242  -0.60156  -0.58842
 Alpha  occ. eigenvalues --   -0.58416  -0.57953  -0.56558  -0.56047  -0.54871
 Alpha  occ. eigenvalues --   -0.54097  -0.53941  -0.52838  -0.52402  -0.51811
 Alpha  occ. eigenvalues --   -0.51349  -0.50903  -0.50859  -0.50382  -0.50033
 Alpha  occ. eigenvalues --   -0.49883  -0.49485  -0.48813  -0.48008  -0.47633
 Alpha  occ. eigenvalues --   -0.46741  -0.46602  -0.45970  -0.45608  -0.44811
 Alpha  occ. eigenvalues --   -0.44593  -0.43736  -0.43192  -0.42810  -0.42695
 Alpha  occ. eigenvalues --   -0.42006  -0.41754  -0.41658  -0.41354  -0.41144
 Alpha  occ. eigenvalues --   -0.40990  -0.40817  -0.40497  -0.40207  -0.40089
 Alpha  occ. eigenvalues --   -0.39942  -0.39848  -0.39584  -0.39388  -0.39059
 Alpha  occ. eigenvalues --   -0.38976  -0.38851  -0.38736  -0.38424  -0.38136
 Alpha  occ. eigenvalues --   -0.38031  -0.37887  -0.37631  -0.37549  -0.37392
 Alpha  occ. eigenvalues --   -0.37214  -0.36974  -0.36832  -0.36591  -0.36528
 Alpha  occ. eigenvalues --   -0.36179  -0.36058  -0.35994  -0.35905  -0.35630
 Alpha  occ. eigenvalues --   -0.35366  -0.35311  -0.35120  -0.34898  -0.34782
 Alpha  occ. eigenvalues --   -0.34637  -0.34452  -0.34252  -0.34144  -0.34099
 Alpha  occ. eigenvalues --   -0.34035  -0.33855  -0.33514  -0.33380  -0.33230
 Alpha  occ. eigenvalues --   -0.33073  -0.32911  -0.32896  -0.32645  -0.32548
 Alpha  occ. eigenvalues --   -0.32490  -0.32364  -0.31981  -0.31906  -0.31622
 Alpha  occ. eigenvalues --   -0.31580  -0.31421  -0.30984  -0.30749  -0.30615
 Alpha  occ. eigenvalues --   -0.30522  -0.30363  -0.30333  -0.30160  -0.29936
 Alpha  occ. eigenvalues --   -0.29642  -0.29598  -0.29571  -0.29431  -0.29134
 Alpha  occ. eigenvalues --   -0.28750  -0.28460  -0.28131  -0.27828  -0.27547
 Alpha  occ. eigenvalues --   -0.27538  -0.27284  -0.27206  -0.26773  -0.26685
 Alpha  occ. eigenvalues --   -0.26586  -0.26216  -0.26132  -0.25986  -0.25683
 Alpha  occ. eigenvalues --   -0.25328  -0.25036  -0.24927  -0.24031  -0.23817
 Alpha  occ. eigenvalues --   -0.23632  -0.22536  -0.22249  -0.21555  -0.21068
 Alpha  occ. eigenvalues --   -0.20322  -0.19703  -0.19184  -0.17870  -0.17391
 Alpha  occ. eigenvalues --   -0.16218
 Alpha virt. eigenvalues --   -0.11884  -0.07071  -0.06028  -0.04368  -0.03546
 Alpha virt. eigenvalues --   -0.03339  -0.02980  -0.02632  -0.01375   0.00753
 Alpha virt. eigenvalues --    0.01362   0.01806   0.01935   0.02372   0.02675

 Mulliken charges:
               1
     1  Mg   0.707578
     2  C    0.079159
     3  C   -0.043243
     4  C   -0.056625
     5  C   -0.101273
     6  N   -0.182431
     7  C   -0.065269
     8  C    0.012331
     9  C   -0.017343
    10  C    0.009578
    11  C    0.125232
    12  C    0.124207
    13  C    0.122216
    14  C    0.070831
    15  O   -0.155964
    16  O   -0.271763
    17  N   -0.253851
    18  C    0.113151
    19  C   -0.168734
    20  C    0.046770
    21  C    0.052896
    22  C    0.212551
    23  C   -0.095075
    24  O   -0.168941
    25  C    0.139557
    26  N   -0.194584
    27  C    0.028365
    28  C    0.063508
    29  C    0.001386
    30  C    0.091574
    31  C    0.147010
    32  C    0.039550
    33  C    0.072675
    34  N   -0.251391
    35  C    0.088408
    36  C   -0.156328
    37  C    0.088394
    38  C    0.037522
    39  C    0.184969
    40  C   -0.021181
    41  O   -0.128220
    42  C    0.008036
    43  C    0.119120
    44  O   -0.204352
    45  O   -0.287681
    46  C    0.218012
    47  C    0.272460
    48  C   -0.074495
    49  C   -0.179621
    50  C    0.166761
    51  C    0.156027
    52  C    0.113825
    53  C    0.100275
    54  C   -0.124933
    55  C    0.095714
    56  C    0.134562
    57  C    0.056088
    58  C    0.092703
    59  C   -0.095149
    60  C    0.102761
    61  C    0.110761
    62  C    0.053427
    63  C    0.103562
    64  C   -0.068483
    65  C    0.088584
    66  C    0.134814
    67  H   -0.067027
    68  H   -0.051950
    69  H   -0.072497
    70  H   -0.021727
    71  H   -0.033941
    72  H    0.010176
    73  H   -0.017710
    74  H    0.001804
    75  H   -0.016005
    76  H   -0.009749
    77  H   -0.006095
    78  H   -0.022747
    79  H   -0.021001
    80  H    0.009555
    81  H   -0.001730
    82  H   -0.000740
    83  H    0.010992
    84  H   -0.026799
    85  H   -0.028822
    86  H   -0.031892
    87  H   -0.001693
    88  H   -0.012734
    89  H    0.001970
    90  H   -0.019181
    91  H   -0.034346
    92  H    0.000203
    93  H   -0.003016
    94  H   -0.017230
    95  H   -0.013171
    96  H    0.018373
    97  H   -0.001211
    98  H   -0.003436
    99  H    0.015321
   100  H    0.016661
   101  H    0.025618
   102  H    0.017202
   103  H   -0.008304
   104  H   -0.033139
   105  H   -0.012022
   106  H    0.003898
   107  H   -0.022168
   108  H   -0.017130
   109  H   -0.042122
   110  H   -0.026582
   111  H   -0.021004
   112  H   -0.027056
   113  H   -0.037553
   114  H   -0.042050
   115  H   -0.022158
   116  H   -0.019526
   117  H   -0.032205
   118  H   -0.035827
   119  H   -0.032249
   120  H   -0.017821
   121  H   -0.036881
   122  H   -0.046486
   123  H   -0.038746
   124  H   -0.029706
   125  H   -0.006417
   126  H    0.002240
   127  H   -0.016049
   128  H   -0.047451
   129  H   -0.034626
   130  H   -0.027325
   131  H   -0.043985
   132  H   -0.029480
   133  H   -0.049497
   134  H   -0.025642
   135  H   -0.031951
   136  H   -0.030878
   137  H   -0.020092
   138  H   -0.019434
   139  H   -0.013752
   140  H   -0.020233
 Sum of Mulliken charges =  -0.00000

 Dipole moment (field-independent basis, Debye):
    X=              3.0994    Y=              1.0137    Z=             -0.7006  Tot=              3.3354
 Quadrupole moment (field-independent basis, Debye-Ang):
   XX=           -372.0918   YY=           -436.3442   ZZ=           -414.5109
   XY=            -14.7487   XZ=              7.6099   YZ=             -9.0021

 Normal termination of Gaussian 16 at Wed May  4 06:28:34 2022.
