 Gaussian 16, Revision A.03,
 Gaussian 16:  ES64L-G16RevA.03 25-Dec-2016

 -----------------------------------
 #p cam-b3lyp/Def2SVP td=(nstates=5)
 -----------------------------------

 --------------------------------------------------------
 step_1401_chromophore_27 TDDFT with cam-b3lyp functional
 --------------------------------------------------------
 Symbolic Z-matrix:
 Charge =  0 Multiplicity = 1

                         Standard orientation:
 ---------------------------------------------------------------------
 Center     Atomic      Atomic             Coordinates (Angstroms)
 Number     Number       Type             X           Y           Z
 ---------------------------------------------------------------------
      1         12           0       -4.627781    0.795409   -0.417006
      2          6           0       -4.016858   -2.517488    0.320591
      3          6           0       -1.329663    1.424290   -0.523106
      4          6           0       -5.346305    4.176482   -0.179369
      5          6           0       -7.949562    0.258019    0.352818
      6          7           0       -2.828097   -0.379080    0.014594
      7          6           0       -2.812103   -1.744494    0.186160
      8          6           0       -1.388703   -2.300609    0.035232
      9          6           0       -0.516301   -0.995149    0.125849
     10          6           0       -1.628494    0.101319   -0.170726
     11          6           0        0.318229   -0.875374    1.447158
     12          6           0       -1.207702   -3.172261   -1.179024
     13          6           0       -0.354382   -4.468261   -0.935916
     14          6           0        1.092947   -4.560830   -1.527683
     15          8           0        1.326473   -4.991495   -2.611444
     16          8           0        2.077048   -4.139041   -0.675263
     17          7           0       -3.503335    2.600034   -0.541271
     18          6           0       -2.118499    2.632799   -0.666234
     19          6           0       -1.680487    3.956149   -0.721335
     20          6           0       -2.849405    4.776555   -0.540345
     21          6           0       -3.981199    3.837347   -0.411406
     22          6           0       -0.292190    4.403121   -0.959901
     23          6           0       -2.865801    6.291941   -0.520743
     24          8           0       -3.891337    6.946860   -0.388018
     25          6           0       -1.634821    7.167881   -0.720131
     26          7           0       -6.319987    2.017004    0.043363
     27          6           0       -6.368545    3.363259    0.027035
     28          6           0       -7.827347    3.922103    0.387420
     29          6           0       -8.608870    2.648215    0.340841
     30          6           0       -7.559251    1.542596    0.205617
     31          6           0       -7.880383    4.680231    1.719618
     32          6           0       -9.731228    2.552550   -0.862455
     33          6           0      -11.126771    3.121377   -0.567581
     34          7           0       -5.875580   -0.819765   -0.067802
     35          6           0       -7.178530   -0.929233    0.206758
     36          6           0       -7.620910   -2.314683    0.330928
     37          6           0       -6.382204   -3.007141    0.407358
     38          6           0       -5.320513   -2.035139    0.212213
     39          6           0       -9.052447   -2.781871    0.515470
     40          6           0       -5.781367   -4.297992    0.576841
     41          8           0       -6.239579   -5.431672    0.697694
     42          6           0       -4.226665   -4.013637    0.529191
     43          6           0       -3.593127   -4.632003    1.704571
     44          8           0       -3.346988   -4.007263    2.744267
     45          8           0       -3.053668   -5.865553    1.360697
     46          6           0       -2.233952   -6.444686    2.475554
     47          6           0        3.443101   -4.309874   -1.267483
     48          6           0        4.193945   -3.034512   -1.592412
     49          6           0        5.584269   -2.828680   -1.552965
     50          6           0        6.588447   -3.839986   -1.294485
     51          6           0        6.065425   -1.337086   -1.645529
     52          6           0        6.619302   -1.061752   -2.977546
     53          6           0        8.125307   -0.713486   -2.896812
     54          6           0        8.481639    0.616335   -3.655477
     55          6           0        8.483006    0.393032   -5.192656
     56          6           0        9.766515    1.328919   -3.236839
     57          6           0        9.538841    2.347929   -2.129534
     58          6           0       10.708340    2.404995   -0.978477
     59          6           0       10.147343    1.941739    0.364830
     60          6           0       10.017799    0.371890    0.545948
     61          6           0       10.936855    2.559200    1.554761
     62          6           0       10.002750    2.701687    2.785503
     63          6           0       10.530140    2.267471    4.219717
     64          6           0        9.895054    1.006988    4.753087
     65          6           0        8.705708    1.469394    5.612387
     66          6           0       10.901526    0.167714    5.509165
     67          1           0       -0.256384    1.627317   -0.529325
     68          1           0       -5.516371    5.255859   -0.177571
     69          1           0       -9.017355    0.091628    0.508992
     70          1           0       -1.088946   -2.878018    0.908946
     71          1           0        0.230769   -1.088066   -0.662948
     72          1           0       -0.109640   -1.388703    2.307595
     73          1           0        0.313676    0.197940    1.640107
     74          1           0        1.355718   -1.170212    1.291346
     75          1           0       -0.638328   -2.677668   -1.965439
     76          1           0       -2.193408   -3.366733   -1.600225
     77          1           0       -1.028656   -5.275682   -1.223309
     78          1           0       -0.321306   -4.712840    0.126829
     79          1           0        0.219198    3.540820   -1.387023
     80          1           0        0.224918    4.700674   -0.047512
     81          1           0       -0.364404    5.144554   -1.755577
     82          1           0       -1.286044    7.065107   -1.747937
     83          1           0       -0.887963    7.081367    0.068899
     84          1           0       -1.908361    8.220529   -0.785106
     85          1           0       -8.189801    4.490843   -0.468185
     86          1           0       -9.209628    2.546321    1.244469
     87          1           0       -6.876763    4.727103    2.142342
     88          1           0       -8.464918    4.216551    2.514726
     89          1           0       -8.289797    5.666670    1.501965
     90          1           0       -9.911581    1.605397   -1.370730
     91          1           0       -9.270264    3.124423   -1.666873
     92          1           0      -11.803858    2.321476   -0.266387
     93          1           0      -11.461398    3.695501   -1.432222
     94          1           0      -11.119819    3.836083    0.255243
     95          1           0       -9.807575   -2.023498    0.306748
     96          1           0       -9.250658   -3.386490    1.400506
     97          1           0       -9.180503   -3.491348   -0.301915
     98          1           0       -3.665357   -4.515267   -0.259270
     99          1           0       -1.297460   -5.891196    2.545208
    100          1           0       -2.036353   -7.488346    2.234534
    101          1           0       -2.766119   -6.396918    3.426060
    102          1           0        3.520855   -4.992482   -2.113773
    103          1           0        3.987721   -4.889087   -0.522242
    104          1           0        3.496805   -2.196917   -1.590835
    105          1           0        7.344507   -3.468588   -0.601451
    106          1           0        7.171307   -4.165618   -2.155617
    107          1           0        6.155193   -4.724280   -0.828741
    108          1           0        6.831510   -1.105808   -0.905290
    109          1           0        5.139088   -0.787298   -1.478784
    110          1           0        6.134229   -0.225741   -3.482655
    111          1           0        6.499295   -1.935105   -3.617232
    112          1           0        8.675287   -1.513224   -3.392247
    113          1           0        8.552393   -0.489950   -1.919527
    114          1           0        7.738802    1.409191   -3.571170
    115          1           0        7.710475    0.983408   -5.685572
    116          1           0        8.425600   -0.649173   -5.507307
    117          1           0        9.385300    0.791994   -5.657961
    118          1           0       10.122335    1.882239   -4.106199
    119          1           0       10.457994    0.634161   -2.759694
    120          1           0        8.529650    2.275439   -1.723197
    121          1           0        9.682108    3.299210   -2.641201
    122          1           0       11.124373    3.405197   -0.856894
    123          1           0       11.606043    1.873360   -1.296633
    124          1           0        9.161857    2.400458    0.444663
    125          1           0       10.521761   -0.034112    1.422695
    126          1           0       10.274358   -0.177650   -0.359535
    127          1           0        8.953781    0.184527    0.692176
    128          1           0       11.281590    3.530822    1.201564
    129          1           0       11.852728    2.032133    1.824199
    130          1           0        8.998662    2.338059    2.567130
    131          1           0        9.856011    3.779125    2.848913
    132          1           0       10.488892    3.134999    4.877036
    133          1           0       11.597755    2.087389    4.095584
    134          1           0        9.443838    0.452059    3.930545
    135          1           0        8.483411    0.905551    6.517824
    136          1           0        7.718445    1.386494    5.159028
    137          1           0        8.735957    2.514441    5.921795
    138          1           0       10.632912    0.075486    6.561736
    139          1           0       11.923009    0.533485    5.412184
    140          1           0       10.814271   -0.830114    5.079446
 ---------------------------------------------------------------------

 SCF Done:  E(RCAM-B3LYP) =  -3007.14449005     A.U. after   17 cycles

 Excitation energies and oscillator strengths:

 Excited State   1:      Singlet-A      1.7459 eV  710.16 nm  f=0.4201  <S**2>=0.000
     245 -> 248        0.16572
     246 -> 247        0.68605
 This state for optimization and/or second-order correction.
 Total Energy, E(TD-HF/TD-DFT) =  -3007.08033098
 Copying the excited state density for this state as the 1-particle RhoCI density.

 Excited State   2:      Singlet-A      2.2127 eV  560.33 nm  f=0.1605  <S**2>=0.000
     245 -> 247        0.65723
     246 -> 248       -0.23337

 Excited State   3:      Singlet-A      3.3162 eV  373.88 nm  f=0.0090  <S**2>=0.000
     241 -> 247       -0.13029
     243 -> 247        0.67730

 Excited State   4:      Singlet-A      3.4541 eV  358.94 nm  f=0.0046  <S**2>=0.000
     239 -> 247        0.24149
     239 -> 249        0.12316
     240 -> 247        0.51219
     240 -> 248       -0.20301
     240 -> 249        0.24433

 Excited State   5:      Singlet-A      3.4950 eV  354.75 nm  f=0.0108  <S**2>=0.000
     241 -> 247        0.16423
     242 -> 247        0.55461
     242 -> 249       -0.24191
     242 -> 251        0.24756
     246 -> 248        0.14180

 The electronic state is 1-A.
 Alpha  occ. eigenvalues --  -46.89302 -19.25974 -19.25679 -19.20066 -19.20037
 Alpha  occ. eigenvalues --  -19.19678 -19.17778 -14.43114 -14.41323 -14.39847
 Alpha  occ. eigenvalues --  -14.39154 -10.39797 -10.39446 -10.35784 -10.34361
 Alpha  occ. eigenvalues --  -10.32215 -10.32166 -10.32113 -10.31048 -10.30392
 Alpha  occ. eigenvalues --  -10.30153 -10.29843 -10.29720 -10.29536 -10.29480
 Alpha  occ. eigenvalues --  -10.29316 -10.28957 -10.28426 -10.28376 -10.28066
 Alpha  occ. eigenvalues --  -10.28019 -10.27810 -10.27797 -10.27719 -10.27359
 Alpha  occ. eigenvalues --  -10.27135 -10.27112 -10.27008 -10.26980 -10.26647
 Alpha  occ. eigenvalues --  -10.26559 -10.26402 -10.26340 -10.26331 -10.26115
 Alpha  occ. eigenvalues --  -10.25874 -10.25695 -10.25661 -10.25547 -10.25474
 Alpha  occ. eigenvalues --  -10.25453 -10.25407 -10.25397 -10.25343 -10.25196
 Alpha  occ. eigenvalues --  -10.25111 -10.25098 -10.25017 -10.24733 -10.24644
 Alpha  occ. eigenvalues --  -10.24613 -10.24557 -10.24456 -10.24225 -10.24105
 Alpha  occ. eigenvalues --  -10.24060  -3.17804  -1.92693  -1.92252  -1.92116
 Alpha  occ. eigenvalues --   -1.17562  -1.15546  -1.10012  -1.09216  -1.08775
 Alpha  occ. eigenvalues --   -1.07205  -1.05479  -1.04782  -1.04073  -1.02706
 Alpha  occ. eigenvalues --   -0.93347  -0.91109  -0.90197  -0.89743  -0.89085
 Alpha  occ. eigenvalues --   -0.89017  -0.88396  -0.87692  -0.87425  -0.87210
 Alpha  occ. eigenvalues --   -0.86201  -0.85490  -0.84614  -0.83926  -0.83156
 Alpha  occ. eigenvalues --   -0.82445  -0.81916  -0.81267  -0.81085  -0.80112
 Alpha  occ. eigenvalues --   -0.79747  -0.78597  -0.77899  -0.77317  -0.76468
 Alpha  occ. eigenvalues --   -0.76128  -0.75926  -0.75525  -0.75511  -0.74097
 Alpha  occ. eigenvalues --   -0.73542  -0.72965  -0.71385  -0.70893  -0.69668
 Alpha  occ. eigenvalues --   -0.68570  -0.68543  -0.67215  -0.66770  -0.65989
 Alpha  occ. eigenvalues --   -0.65279  -0.65091  -0.64968  -0.64391  -0.64081
 Alpha  occ. eigenvalues --   -0.63645  -0.63459  -0.62732  -0.61860  -0.61209
 Alpha  occ. eigenvalues --   -0.60418  -0.60278  -0.59417  -0.59040  -0.58417
 Alpha  occ. eigenvalues --   -0.58103  -0.57494  -0.56332  -0.56085  -0.55909
 Alpha  occ. eigenvalues --   -0.55053  -0.54766  -0.54549  -0.54363  -0.54039
 Alpha  occ. eigenvalues --   -0.53946  -0.53683  -0.53670  -0.53089  -0.52846
 Alpha  occ. eigenvalues --   -0.52768  -0.52500  -0.52091  -0.51969  -0.51833
 Alpha  occ. eigenvalues --   -0.51345  -0.51326  -0.51251  -0.50910  -0.50881
 Alpha  occ. eigenvalues --   -0.50392  -0.50234  -0.50122  -0.49839  -0.49730
 Alpha  occ. eigenvalues --   -0.49496  -0.49234  -0.49026  -0.48887  -0.48730
 Alpha  occ. eigenvalues --   -0.48589  -0.48295  -0.48117  -0.47980  -0.47966
 Alpha  occ. eigenvalues --   -0.47468  -0.47384  -0.47193  -0.47012  -0.46715
 Alpha  occ. eigenvalues --   -0.46560  -0.46313  -0.46054  -0.46015  -0.45981
 Alpha  occ. eigenvalues --   -0.45758  -0.45632  -0.45238  -0.45163  -0.45034
 Alpha  occ. eigenvalues --   -0.44948  -0.44848  -0.44632  -0.44380  -0.44220
 Alpha  occ. eigenvalues --   -0.44039  -0.43961  -0.43582  -0.43429  -0.43302
 Alpha  occ. eigenvalues --   -0.43057  -0.42988  -0.42977  -0.42702  -0.42159
 Alpha  occ. eigenvalues --   -0.42072  -0.41778  -0.41595  -0.41427  -0.41213
 Alpha  occ. eigenvalues --   -0.40937  -0.40812  -0.40761  -0.40566  -0.40255
 Alpha  occ. eigenvalues --   -0.39737  -0.39453  -0.39011  -0.38755  -0.38580
 Alpha  occ. eigenvalues --   -0.38426  -0.38149  -0.38051  -0.37925  -0.37907
 Alpha  occ. eigenvalues --   -0.37378  -0.37145  -0.37127  -0.36906  -0.36611
 Alpha  occ. eigenvalues --   -0.36352  -0.35679  -0.35541  -0.34632  -0.34417
 Alpha  occ. eigenvalues --   -0.34299  -0.34200  -0.32999  -0.31731  -0.31509
 Alpha  occ. eigenvalues --   -0.30636  -0.29930  -0.29391  -0.29207  -0.24102
 Alpha  occ. eigenvalues --   -0.21604
 Alpha virt. eigenvalues --   -0.09079  -0.01677   0.00258   0.01717   0.02868
 Alpha virt. eigenvalues --    0.03967   0.04110   0.04903   0.05744   0.07167
 Alpha virt. eigenvalues --    0.08044   0.08155   0.08397   0.08911   0.08953

 Mulliken charges:
               1
     1  Mg   0.838414
     2  C    0.052659
     3  C   -0.048065
     4  C   -0.073742
     5  C   -0.108719
     6  N   -0.250252
     7  C   -0.020657
     8  C   -0.034497
     9  C   -0.058352
    10  C    0.015757
    11  C    0.070625
    12  C    0.063845
    13  C    0.059650
    14  C    0.147330
    15  O   -0.197333
    16  O   -0.335540
    17  N   -0.341830
    18  C    0.115180
    19  C   -0.170974
    20  C   -0.030237
    21  C    0.083046
    22  C    0.150079
    23  C   -0.017161
    24  O   -0.212421
    25  C    0.056824
    26  N   -0.272689
    27  C    0.041912
    28  C    0.010114
    29  C   -0.050211
    30  C    0.107692
    31  C    0.084917
    32  C   -0.011444
    33  C    0.011861
    34  N   -0.340847
    35  C    0.097134
    36  C   -0.147663
    37  C    0.012816
    38  C    0.067433
    39  C    0.133373
    40  C    0.074075
    41  O   -0.164412
    42  C   -0.062826
    43  C    0.205351
    44  O   -0.239182
    45  O   -0.351100
    46  C    0.178347
    47  C    0.236776
    48  C   -0.093549
    49  C   -0.198902
    50  C    0.101353
    51  C    0.096737
    52  C    0.056235
    53  C    0.053325
    54  C   -0.178466
    55  C    0.036554
    56  C    0.081887
    57  C   -0.002238
    58  C    0.040765
    59  C   -0.149110
    60  C    0.046227
    61  C    0.060407
    62  C   -0.002157
    63  C    0.048331
    64  C   -0.131405
    65  C    0.030077
    66  C    0.073020
    67  H   -0.032602
    68  H   -0.009752
    69  H   -0.038669
    70  H    0.012724
    71  H   -0.000666
    72  H    0.033435
    73  H    0.006731
    74  H    0.025768
    75  H    0.015734
    76  H    0.021637
    77  H    0.027557
    78  H    0.007318
    79  H    0.006069
    80  H    0.036741
    81  H    0.023772
    82  H    0.027007
    83  H    0.037961
    84  H    0.009999
    85  H    0.007023
    86  H    0.003207
    87  H    0.025129
    88  H    0.011923
    89  H    0.025256
    90  H    0.009727
    91  H   -0.006339
    92  H    0.021823
    93  H    0.020961
    94  H    0.004975
    95  H    0.013892
    96  H    0.046086
    97  H    0.026445
    98  H    0.038125
    99  H    0.036069
   100  H    0.041440
   101  H    0.050668
   102  H    0.050519
   103  H    0.019168
   104  H   -0.002881
   105  H    0.013454
   106  H    0.028607
   107  H    0.002820
   108  H    0.010354
   109  H   -0.009218
   110  H    0.003410
   111  H    0.008237
   112  H    0.000816
   113  H   -0.016569
   114  H   -0.009898
   115  H    0.002487
   116  H    0.004343
   117  H   -0.006273
   118  H   -0.004725
   119  H   -0.006167
   120  H    0.008398
   121  H   -0.006131
   122  H   -0.015231
   123  H   -0.009371
   124  H    0.001158
   125  H    0.017232
   126  H    0.021958
   127  H    0.004105
   128  H   -0.016939
   129  H   -0.006903
   130  H   -0.001406
   131  H   -0.012727
   132  H    0.000280
   133  H   -0.020646
   134  H    0.004847
   135  H   -0.006229
   136  H   -0.005767
   137  H    0.003562
   138  H    0.005431
   139  H    0.010527
   140  H    0.004051
 Sum of Mulliken charges =  -0.00000

 Dipole moment (field-independent basis, Debye):
    X=              3.3235    Y=              0.6931    Z=             -0.6679  Tot=              3.4600
 Quadrupole moment (field-independent basis, Debye-Ang):
   XX=           -369.1811   YY=           -433.5285   ZZ=           -414.6831
   XY=            -11.2525   XZ=              7.3152   YZ=            -10.3854

 Normal termination of Gaussian 16 at Wed May  4 05:31:19 2022.
