 Gaussian 16, Revision A.03,
 Gaussian 16:  ES64L-G16RevA.03 25-Dec-2016

 ---------------------------------
 #p PBE1PBE/Def2SVP td=(nstates=5)
 ---------------------------------

 ------------------------------------------------------
 step_1401_chromophore_27 TDDFT with PBE1PBE functional
 ------------------------------------------------------
 Symbolic Z-matrix:
 Charge =  0 Multiplicity = 1

                         Standard orientation:
 ---------------------------------------------------------------------
 Center     Atomic      Atomic             Coordinates (Angstroms)
 Number     Number       Type             X           Y           Z
 ---------------------------------------------------------------------
      1         12           0       -4.627781    0.795409   -0.417006
      2          6           0       -4.016858   -2.517488    0.320591
      3          6           0       -1.329663    1.424290   -0.523106
      4          6           0       -5.346305    4.176482   -0.179369
      5          6           0       -7.949562    0.258019    0.352818
      6          7           0       -2.828097   -0.379080    0.014594
      7          6           0       -2.812103   -1.744494    0.186160
      8          6           0       -1.388703   -2.300609    0.035232
      9          6           0       -0.516301   -0.995149    0.125849
     10          6           0       -1.628494    0.101319   -0.170726
     11          6           0        0.318229   -0.875374    1.447158
     12          6           0       -1.207702   -3.172261   -1.179024
     13          6           0       -0.354382   -4.468261   -0.935916
     14          6           0        1.092947   -4.560830   -1.527683
     15          8           0        1.326473   -4.991495   -2.611444
     16          8           0        2.077048   -4.139041   -0.675263
     17          7           0       -3.503335    2.600034   -0.541271
     18          6           0       -2.118499    2.632799   -0.666234
     19          6           0       -1.680487    3.956149   -0.721335
     20          6           0       -2.849405    4.776555   -0.540345
     21          6           0       -3.981199    3.837347   -0.411406
     22          6           0       -0.292190    4.403121   -0.959901
     23          6           0       -2.865801    6.291941   -0.520743
     24          8           0       -3.891337    6.946860   -0.388018
     25          6           0       -1.634821    7.167881   -0.720131
     26          7           0       -6.319987    2.017004    0.043363
     27          6           0       -6.368545    3.363259    0.027035
     28          6           0       -7.827347    3.922103    0.387420
     29          6           0       -8.608870    2.648215    0.340841
     30          6           0       -7.559251    1.542596    0.205617
     31          6           0       -7.880383    4.680231    1.719618
     32          6           0       -9.731228    2.552550   -0.862455
     33          6           0      -11.126771    3.121377   -0.567581
     34          7           0       -5.875580   -0.819765   -0.067802
     35          6           0       -7.178530   -0.929233    0.206758
     36          6           0       -7.620910   -2.314683    0.330928
     37          6           0       -6.382204   -3.007141    0.407358
     38          6           0       -5.320513   -2.035139    0.212213
     39          6           0       -9.052447   -2.781871    0.515470
     40          6           0       -5.781367   -4.297992    0.576841
     41          8           0       -6.239579   -5.431672    0.697694
     42          6           0       -4.226665   -4.013637    0.529191
     43          6           0       -3.593127   -4.632003    1.704571
     44          8           0       -3.346988   -4.007263    2.744267
     45          8           0       -3.053668   -5.865553    1.360697
     46          6           0       -2.233952   -6.444686    2.475554
     47          6           0        3.443101   -4.309874   -1.267483
     48          6           0        4.193945   -3.034512   -1.592412
     49          6           0        5.584269   -2.828680   -1.552965
     50          6           0        6.588447   -3.839986   -1.294485
     51          6           0        6.065425   -1.337086   -1.645529
     52          6           0        6.619302   -1.061752   -2.977546
     53          6           0        8.125307   -0.713486   -2.896812
     54          6           0        8.481639    0.616335   -3.655477
     55          6           0        8.483006    0.393032   -5.192656
     56          6           0        9.766515    1.328919   -3.236839
     57          6           0        9.538841    2.347929   -2.129534
     58          6           0       10.708340    2.404995   -0.978477
     59          6           0       10.147343    1.941739    0.364830
     60          6           0       10.017799    0.371890    0.545948
     61          6           0       10.936855    2.559200    1.554761
     62          6           0       10.002750    2.701687    2.785503
     63          6           0       10.530140    2.267471    4.219717
     64          6           0        9.895054    1.006988    4.753087
     65          6           0        8.705708    1.469394    5.612387
     66          6           0       10.901526    0.167714    5.509165
     67          1           0       -0.256384    1.627317   -0.529325
     68          1           0       -5.516371    5.255859   -0.177571
     69          1           0       -9.017355    0.091628    0.508992
     70          1           0       -1.088946   -2.878018    0.908946
     71          1           0        0.230769   -1.088066   -0.662948
     72          1           0       -0.109640   -1.388703    2.307595
     73          1           0        0.313676    0.197940    1.640107
     74          1           0        1.355718   -1.170212    1.291346
     75          1           0       -0.638328   -2.677668   -1.965439
     76          1           0       -2.193408   -3.366733   -1.600225
     77          1           0       -1.028656   -5.275682   -1.223309
     78          1           0       -0.321306   -4.712840    0.126829
     79          1           0        0.219198    3.540820   -1.387023
     80          1           0        0.224918    4.700674   -0.047512
     81          1           0       -0.364404    5.144554   -1.755577
     82          1           0       -1.286044    7.065107   -1.747937
     83          1           0       -0.887963    7.081367    0.068899
     84          1           0       -1.908361    8.220529   -0.785106
     85          1           0       -8.189801    4.490843   -0.468185
     86          1           0       -9.209628    2.546321    1.244469
     87          1           0       -6.876763    4.727103    2.142342
     88          1           0       -8.464918    4.216551    2.514726
     89          1           0       -8.289797    5.666670    1.501965
     90          1           0       -9.911581    1.605397   -1.370730
     91          1           0       -9.270264    3.124423   -1.666873
     92          1           0      -11.803858    2.321476   -0.266387
     93          1           0      -11.461398    3.695501   -1.432222
     94          1           0      -11.119819    3.836083    0.255243
     95          1           0       -9.807575   -2.023498    0.306748
     96          1           0       -9.250658   -3.386490    1.400506
     97          1           0       -9.180503   -3.491348   -0.301915
     98          1           0       -3.665357   -4.515267   -0.259270
     99          1           0       -1.297460   -5.891196    2.545208
    100          1           0       -2.036353   -7.488346    2.234534
    101          1           0       -2.766119   -6.396918    3.426060
    102          1           0        3.520855   -4.992482   -2.113773
    103          1           0        3.987721   -4.889087   -0.522242
    104          1           0        3.496805   -2.196917   -1.590835
    105          1           0        7.344507   -3.468588   -0.601451
    106          1           0        7.171307   -4.165618   -2.155617
    107          1           0        6.155193   -4.724280   -0.828741
    108          1           0        6.831510   -1.105808   -0.905290
    109          1           0        5.139088   -0.787298   -1.478784
    110          1           0        6.134229   -0.225741   -3.482655
    111          1           0        6.499295   -1.935105   -3.617232
    112          1           0        8.675287   -1.513224   -3.392247
    113          1           0        8.552393   -0.489950   -1.919527
    114          1           0        7.738802    1.409191   -3.571170
    115          1           0        7.710475    0.983408   -5.685572
    116          1           0        8.425600   -0.649173   -5.507307
    117          1           0        9.385300    0.791994   -5.657961
    118          1           0       10.122335    1.882239   -4.106199
    119          1           0       10.457994    0.634161   -2.759694
    120          1           0        8.529650    2.275439   -1.723197
    121          1           0        9.682108    3.299210   -2.641201
    122          1           0       11.124373    3.405197   -0.856894
    123          1           0       11.606043    1.873360   -1.296633
    124          1           0        9.161857    2.400458    0.444663
    125          1           0       10.521761   -0.034112    1.422695
    126          1           0       10.274358   -0.177650   -0.359535
    127          1           0        8.953781    0.184527    0.692176
    128          1           0       11.281590    3.530822    1.201564
    129          1           0       11.852728    2.032133    1.824199
    130          1           0        8.998662    2.338059    2.567130
    131          1           0        9.856011    3.779125    2.848913
    132          1           0       10.488892    3.134999    4.877036
    133          1           0       11.597755    2.087389    4.095584
    134          1           0        9.443838    0.452059    3.930545
    135          1           0        8.483411    0.905551    6.517824
    136          1           0        7.718445    1.386494    5.159028
    137          1           0        8.735957    2.514441    5.921795
    138          1           0       10.632912    0.075486    6.561736
    139          1           0       11.923009    0.533485    5.412184
    140          1           0       10.814271   -0.830114    5.079446
 ---------------------------------------------------------------------

 SCF Done:  E(RPBE1PBE) =  -3005.33426918     A.U. after   15 cycles

 Excitation energies and oscillator strengths:

 Excited State   1:      Singlet-A      1.8932 eV  654.90 nm  f=0.3980  <S**2>=0.000
     245 -> 248        0.15692
     246 -> 247        0.69269
     246 <- 247       -0.10976
 This state for optimization and/or second-order correction.
 Total Energy, E(TD-HF/TD-DFT) =  -3005.26469602
 Copying the excited state density for this state as the 1-particle RhoCI density.

 Excited State   2:      Singlet-A      2.2049 eV  562.32 nm  f=0.1524  <S**2>=0.000
     245 -> 247        0.66533
     246 -> 248       -0.20242

 Excited State   3:      Singlet-A      2.8204 eV  439.60 nm  f=0.0000  <S**2>=0.000
     243 -> 247        0.68494
     243 -> 249       -0.12571

 Excited State   4:      Singlet-A      2.9612 eV  418.69 nm  f=0.0085  <S**2>=0.000
     242 -> 247        0.68837

 Excited State   5:      Singlet-A      3.0211 eV  410.39 nm  f=0.0003  <S**2>=0.000
     240 -> 247        0.66025
     240 -> 248       -0.14844
     240 -> 249        0.13554

 The electronic state is 1-A.
 Alpha  occ. eigenvalues --  -46.92720 -19.26700 -19.26248 -19.20348 -19.20165
 Alpha  occ. eigenvalues --  -19.19701 -19.18162 -14.42461 -14.40977 -14.39413
 Alpha  occ. eigenvalues --  -14.38915 -10.36845 -10.36356 -10.32726 -10.31655
 Alpha  occ. eigenvalues --  -10.29912 -10.29631 -10.29274 -10.28868 -10.27905
 Alpha  occ. eigenvalues --  -10.27771 -10.27522 -10.27445 -10.27315 -10.27246
 Alpha  occ. eigenvalues --  -10.27045 -10.26606 -10.26198 -10.25913 -10.25742
 Alpha  occ. eigenvalues --  -10.25573 -10.25518 -10.25379 -10.25282 -10.25148
 Alpha  occ. eigenvalues --  -10.24992 -10.24841 -10.24599 -10.24446 -10.24326
 Alpha  occ. eigenvalues --  -10.24250 -10.24190 -10.23897 -10.23689 -10.23596
 Alpha  occ. eigenvalues --  -10.23595 -10.23403 -10.23207 -10.23206 -10.23099
 Alpha  occ. eigenvalues --  -10.22991 -10.22987 -10.22885 -10.22802 -10.22792
 Alpha  occ. eigenvalues --  -10.22687 -10.22534 -10.22512 -10.22441 -10.22304
 Alpha  occ. eigenvalues --  -10.22218 -10.22136 -10.22020 -10.21608 -10.21525
 Alpha  occ. eigenvalues --  -10.21460  -3.14802  -1.87631  -1.87169  -1.87036
 Alpha  occ. eigenvalues --   -1.12405  -1.10192  -1.04561  -1.04105  -1.03690
 Alpha  occ. eigenvalues --   -1.01917  -1.00059  -0.99410  -0.98756  -0.97535
 Alpha  occ. eigenvalues --   -0.87577  -0.85226  -0.84399  -0.83841  -0.83407
 Alpha  occ. eigenvalues --   -0.83206  -0.82756  -0.81819  -0.81665  -0.81578
 Alpha  occ. eigenvalues --   -0.80517  -0.79691  -0.78849  -0.78193  -0.77430
 Alpha  occ. eigenvalues --   -0.76641  -0.76148  -0.75526  -0.75412  -0.74352
 Alpha  occ. eigenvalues --   -0.73896  -0.72842  -0.72256  -0.71617  -0.70753
 Alpha  occ. eigenvalues --   -0.70307  -0.70019  -0.69871  -0.69616  -0.68282
 Alpha  occ. eigenvalues --   -0.67972  -0.67290  -0.65861  -0.65189  -0.64120
 Alpha  occ. eigenvalues --   -0.62909  -0.62791  -0.61758  -0.61017  -0.60401
 Alpha  occ. eigenvalues --   -0.59752  -0.59543  -0.59338  -0.58931  -0.58192
 Alpha  occ. eigenvalues --   -0.58188  -0.57617  -0.56943  -0.56374  -0.55566
 Alpha  occ. eigenvalues --   -0.54904  -0.54857  -0.54044  -0.53679  -0.52818
 Alpha  occ. eigenvalues --   -0.52682  -0.51865  -0.50938  -0.50541  -0.50356
 Alpha  occ. eigenvalues --   -0.49631  -0.49446  -0.49007  -0.48835  -0.48503
 Alpha  occ. eigenvalues --   -0.48479  -0.48274  -0.48041  -0.47749  -0.47380
 Alpha  occ. eigenvalues --   -0.47204  -0.47000  -0.46638  -0.46496  -0.46440
 Alpha  occ. eigenvalues --   -0.45852  -0.45839  -0.45798  -0.45440  -0.45418
 Alpha  occ. eigenvalues --   -0.44943  -0.44831  -0.44650  -0.44446  -0.44319
 Alpha  occ. eigenvalues --   -0.44071  -0.43919  -0.43605  -0.43479  -0.43340
 Alpha  occ. eigenvalues --   -0.43165  -0.42913  -0.42757  -0.42676  -0.42593
 Alpha  occ. eigenvalues --   -0.42136  -0.42055  -0.41832  -0.41695  -0.41386
 Alpha  occ. eigenvalues --   -0.41227  -0.40992  -0.40847  -0.40730  -0.40604
 Alpha  occ. eigenvalues --   -0.40427  -0.40399  -0.39911  -0.39794  -0.39752
 Alpha  occ. eigenvalues --   -0.39683  -0.39565  -0.39374  -0.39098  -0.39009
 Alpha  occ. eigenvalues --   -0.38815  -0.38730  -0.38406  -0.38149  -0.38120
 Alpha  occ. eigenvalues --   -0.37903  -0.37715  -0.37670  -0.37558  -0.36982
 Alpha  occ. eigenvalues --   -0.36818  -0.36613  -0.36358  -0.36298  -0.36081
 Alpha  occ. eigenvalues --   -0.35813  -0.35662  -0.35511  -0.35405  -0.34969
 Alpha  occ. eigenvalues --   -0.34633  -0.34418  -0.34047  -0.33589  -0.33541
 Alpha  occ. eigenvalues --   -0.33194  -0.32958  -0.32926  -0.32903  -0.32817
 Alpha  occ. eigenvalues --   -0.32196  -0.32008  -0.31985  -0.31951  -0.31720
 Alpha  occ. eigenvalues --   -0.31167  -0.30646  -0.30390  -0.29887  -0.29256
 Alpha  occ. eigenvalues --   -0.29207  -0.29201  -0.28434  -0.27343  -0.26235
 Alpha  occ. eigenvalues --   -0.26164  -0.25186  -0.24806  -0.24552  -0.21059
 Alpha  occ. eigenvalues --   -0.19202
 Alpha virt. eigenvalues --   -0.11526  -0.05304  -0.03862  -0.01826  -0.00812
 Alpha virt. eigenvalues --   -0.00463  -0.00326   0.00457   0.01471   0.03804
 Alpha virt. eigenvalues --    0.04109   0.04591   0.04796   0.05360   0.05552

 Mulliken charges:
               1
     1  Mg   0.981649
     2  C    0.039262
     3  C   -0.050857
     4  C   -0.057196
     5  C   -0.086698
     6  N   -0.361184
     7  C    0.052685
     8  C   -0.098657
     9  C   -0.127290
    10  C    0.056932
    11  C    0.011844
    12  C    0.010894
    13  C   -0.012586
    14  C    0.210548
    15  O   -0.229889
    16  O   -0.365349
    17  N   -0.460640
    18  C    0.147224
    19  C   -0.198179
    20  C   -0.083246
    21  C    0.125348
    22  C    0.086744
    23  C    0.034851
    24  O   -0.246964
    25  C   -0.017478
    26  N   -0.380206
    27  C    0.067287
    28  C   -0.064841
    29  C   -0.116076
    30  C    0.132045
    31  C    0.027837
    32  C   -0.068400
    33  C   -0.060453
    34  N   -0.464278
    35  C    0.112855
    36  C   -0.154341
    37  C   -0.034092
    38  C    0.107985
    39  C    0.081816
    40  C    0.155302
    41  O   -0.213070
    42  C   -0.169259
    43  C    0.295352
    44  O   -0.272164
    45  O   -0.382242
    46  C    0.121762
    47  C    0.195189
    48  C   -0.104171
    49  C   -0.249068
    50  C    0.043573
    51  C    0.026057
    52  C    0.000595
    53  C   -0.014604
    54  C   -0.261591
    55  C   -0.018224
    56  C    0.023923
    57  C   -0.066002
    58  C   -0.010711
    59  C   -0.237868
    60  C   -0.013739
    61  C    0.008233
    62  C   -0.062374
    63  C   -0.007988
    64  C   -0.230826
    65  C   -0.022878
    66  C    0.013386
    67  H   -0.001599
    68  H    0.022586
    69  H   -0.005213
    70  H    0.052575
    71  H    0.037368
    72  H    0.059781
    73  H    0.035814
    74  H    0.052828
    75  H    0.048648
    76  H    0.054572
    77  H    0.059876
    78  H    0.041592
    79  H    0.035417
    80  H    0.064888
    81  H    0.052448
    82  H    0.053813
    83  H    0.064462
    84  H    0.038892
    85  H    0.044044
    86  H    0.040239
    87  H    0.052961
    88  H    0.039049
    89  H    0.052228
    90  H    0.041149
    91  H    0.026748
    92  H    0.049286
    93  H    0.048695
    94  H    0.033184
    95  H    0.038869
    96  H    0.072131
    97  H    0.054724
    98  H    0.077930
    99  H    0.057528
   100  H    0.062934
   101  H    0.072209
   102  H    0.077474
   103  H    0.046753
   104  H    0.026750
   105  H    0.040319
   106  H    0.055205
   107  H    0.029861
   108  H    0.044752
   109  H    0.023618
   110  H    0.035649
   111  H    0.041262
   112  H    0.033918
   113  H    0.025501
   114  H    0.028881
   115  H    0.029676
   116  H    0.031370
   117  H    0.020745
   118  H    0.027739
   119  H    0.028313
   120  H    0.038246
   121  H    0.028760
   122  H    0.016630
   123  H    0.022433
   124  H    0.040189
   125  H    0.045209
   126  H    0.048113
   127  H    0.031974
   128  H    0.015769
   129  H    0.024711
   130  H    0.029380
   131  H    0.021714
   132  H    0.031660
   133  H    0.012821
   134  H    0.043033
   135  H    0.020877
   136  H    0.021629
   137  H    0.029950
   138  H    0.032577
   139  H    0.036622
   140  H    0.031765
 Sum of Mulliken charges =  -0.00000

 Dipole moment (field-independent basis, Debye):
    X=              3.3463    Y=              1.1171    Z=             -0.7144  Tot=              3.5994
 Quadrupole moment (field-independent basis, Debye-Ang):
   XX=           -364.1224   YY=           -430.1302   ZZ=           -412.3377
   XY=            -13.8973   XZ=              7.4179   YZ=            -10.3491

 Normal termination of Gaussian 16 at Wed May  4 05:47:30 2022.
