 Gaussian 16, Revision A.03,
 Gaussian 16:  ES64L-G16RevA.03 25-Dec-2016

 --------------------------------
 #p wB97XD/Def2SVP td=(nstates=5)
 --------------------------------

 -----------------------------------------------------
 step_1401_chromophore_27 TDDFT with wB97XD functional
 -----------------------------------------------------
 Symbolic Z-matrix:
 Charge =  0 Multiplicity = 1

                         Standard orientation:
 ---------------------------------------------------------------------
 Center     Atomic      Atomic             Coordinates (Angstroms)
 Number     Number       Type             X           Y           Z
 ---------------------------------------------------------------------
      1         12           0       -4.627781    0.795409   -0.417006
      2          6           0       -4.016858   -2.517488    0.320591
      3          6           0       -1.329663    1.424290   -0.523106
      4          6           0       -5.346305    4.176482   -0.179369
      5          6           0       -7.949562    0.258019    0.352818
      6          7           0       -2.828097   -0.379080    0.014594
      7          6           0       -2.812103   -1.744494    0.186160
      8          6           0       -1.388703   -2.300609    0.035232
      9          6           0       -0.516301   -0.995149    0.125849
     10          6           0       -1.628494    0.101319   -0.170726
     11          6           0        0.318229   -0.875374    1.447158
     12          6           0       -1.207702   -3.172261   -1.179024
     13          6           0       -0.354382   -4.468261   -0.935916
     14          6           0        1.092947   -4.560830   -1.527683
     15          8           0        1.326473   -4.991495   -2.611444
     16          8           0        2.077048   -4.139041   -0.675263
     17          7           0       -3.503335    2.600034   -0.541271
     18          6           0       -2.118499    2.632799   -0.666234
     19          6           0       -1.680487    3.956149   -0.721335
     20          6           0       -2.849405    4.776555   -0.540345
     21          6           0       -3.981199    3.837347   -0.411406
     22          6           0       -0.292190    4.403121   -0.959901
     23          6           0       -2.865801    6.291941   -0.520743
     24          8           0       -3.891337    6.946860   -0.388018
     25          6           0       -1.634821    7.167881   -0.720131
     26          7           0       -6.319987    2.017004    0.043363
     27          6           0       -6.368545    3.363259    0.027035
     28          6           0       -7.827347    3.922103    0.387420
     29          6           0       -8.608870    2.648215    0.340841
     30          6           0       -7.559251    1.542596    0.205617
     31          6           0       -7.880383    4.680231    1.719618
     32          6           0       -9.731228    2.552550   -0.862455
     33          6           0      -11.126771    3.121377   -0.567581
     34          7           0       -5.875580   -0.819765   -0.067802
     35          6           0       -7.178530   -0.929233    0.206758
     36          6           0       -7.620910   -2.314683    0.330928
     37          6           0       -6.382204   -3.007141    0.407358
     38          6           0       -5.320513   -2.035139    0.212213
     39          6           0       -9.052447   -2.781871    0.515470
     40          6           0       -5.781367   -4.297992    0.576841
     41          8           0       -6.239579   -5.431672    0.697694
     42          6           0       -4.226665   -4.013637    0.529191
     43          6           0       -3.593127   -4.632003    1.704571
     44          8           0       -3.346988   -4.007263    2.744267
     45          8           0       -3.053668   -5.865553    1.360697
     46          6           0       -2.233952   -6.444686    2.475554
     47          6           0        3.443101   -4.309874   -1.267483
     48          6           0        4.193945   -3.034512   -1.592412
     49          6           0        5.584269   -2.828680   -1.552965
     50          6           0        6.588447   -3.839986   -1.294485
     51          6           0        6.065425   -1.337086   -1.645529
     52          6           0        6.619302   -1.061752   -2.977546
     53          6           0        8.125307   -0.713486   -2.896812
     54          6           0        8.481639    0.616335   -3.655477
     55          6           0        8.483006    0.393032   -5.192656
     56          6           0        9.766515    1.328919   -3.236839
     57          6           0        9.538841    2.347929   -2.129534
     58          6           0       10.708340    2.404995   -0.978477
     59          6           0       10.147343    1.941739    0.364830
     60          6           0       10.017799    0.371890    0.545948
     61          6           0       10.936855    2.559200    1.554761
     62          6           0       10.002750    2.701687    2.785503
     63          6           0       10.530140    2.267471    4.219717
     64          6           0        9.895054    1.006988    4.753087
     65          6           0        8.705708    1.469394    5.612387
     66          6           0       10.901526    0.167714    5.509165
     67          1           0       -0.256384    1.627317   -0.529325
     68          1           0       -5.516371    5.255859   -0.177571
     69          1           0       -9.017355    0.091628    0.508992
     70          1           0       -1.088946   -2.878018    0.908946
     71          1           0        0.230769   -1.088066   -0.662948
     72          1           0       -0.109640   -1.388703    2.307595
     73          1           0        0.313676    0.197940    1.640107
     74          1           0        1.355718   -1.170212    1.291346
     75          1           0       -0.638328   -2.677668   -1.965439
     76          1           0       -2.193408   -3.366733   -1.600225
     77          1           0       -1.028656   -5.275682   -1.223309
     78          1           0       -0.321306   -4.712840    0.126829
     79          1           0        0.219198    3.540820   -1.387023
     80          1           0        0.224918    4.700674   -0.047512
     81          1           0       -0.364404    5.144554   -1.755577
     82          1           0       -1.286044    7.065107   -1.747937
     83          1           0       -0.887963    7.081367    0.068899
     84          1           0       -1.908361    8.220529   -0.785106
     85          1           0       -8.189801    4.490843   -0.468185
     86          1           0       -9.209628    2.546321    1.244469
     87          1           0       -6.876763    4.727103    2.142342
     88          1           0       -8.464918    4.216551    2.514726
     89          1           0       -8.289797    5.666670    1.501965
     90          1           0       -9.911581    1.605397   -1.370730
     91          1           0       -9.270264    3.124423   -1.666873
     92          1           0      -11.803858    2.321476   -0.266387
     93          1           0      -11.461398    3.695501   -1.432222
     94          1           0      -11.119819    3.836083    0.255243
     95          1           0       -9.807575   -2.023498    0.306748
     96          1           0       -9.250658   -3.386490    1.400506
     97          1           0       -9.180503   -3.491348   -0.301915
     98          1           0       -3.665357   -4.515267   -0.259270
     99          1           0       -1.297460   -5.891196    2.545208
    100          1           0       -2.036353   -7.488346    2.234534
    101          1           0       -2.766119   -6.396918    3.426060
    102          1           0        3.520855   -4.992482   -2.113773
    103          1           0        3.987721   -4.889087   -0.522242
    104          1           0        3.496805   -2.196917   -1.590835
    105          1           0        7.344507   -3.468588   -0.601451
    106          1           0        7.171307   -4.165618   -2.155617
    107          1           0        6.155193   -4.724280   -0.828741
    108          1           0        6.831510   -1.105808   -0.905290
    109          1           0        5.139088   -0.787298   -1.478784
    110          1           0        6.134229   -0.225741   -3.482655
    111          1           0        6.499295   -1.935105   -3.617232
    112          1           0        8.675287   -1.513224   -3.392247
    113          1           0        8.552393   -0.489950   -1.919527
    114          1           0        7.738802    1.409191   -3.571170
    115          1           0        7.710475    0.983408   -5.685572
    116          1           0        8.425600   -0.649173   -5.507307
    117          1           0        9.385300    0.791994   -5.657961
    118          1           0       10.122335    1.882239   -4.106199
    119          1           0       10.457994    0.634161   -2.759694
    120          1           0        8.529650    2.275439   -1.723197
    121          1           0        9.682108    3.299210   -2.641201
    122          1           0       11.124373    3.405197   -0.856894
    123          1           0       11.606043    1.873360   -1.296633
    124          1           0        9.161857    2.400458    0.444663
    125          1           0       10.521761   -0.034112    1.422695
    126          1           0       10.274358   -0.177650   -0.359535
    127          1           0        8.953781    0.184527    0.692176
    128          1           0       11.281590    3.530822    1.201564
    129          1           0       11.852728    2.032133    1.824199
    130          1           0        8.998662    2.338059    2.567130
    131          1           0        9.856011    3.779125    2.848913
    132          1           0       10.488892    3.134999    4.877036
    133          1           0       11.597755    2.087389    4.095584
    134          1           0        9.443838    0.452059    3.930545
    135          1           0        8.483411    0.905551    6.517824
    136          1           0        7.718445    1.386494    5.159028
    137          1           0        8.735957    2.514441    5.921795
    138          1           0       10.632912    0.075486    6.561736
    139          1           0       11.923009    0.533485    5.412184
    140          1           0       10.814271   -0.830114    5.079446
 ---------------------------------------------------------------------

 SCF Done:  E(RwB97XD) =  -3007.84153615     A.U. after   17 cycles

 Excitation energies and oscillator strengths:

 Excited State   1:      Singlet-A      1.6907 eV  733.31 nm  f=0.4182  <S**2>=0.000
     245 -> 248        0.17170
     246 -> 247        0.68353
     245 <- 248        0.10445
 This state for optimization and/or second-order correction.
 Total Energy, E(TD-HF/TD-DFT) =  -3007.77940234
 Copying the excited state density for this state as the 1-particle RhoCI density.

 Excited State   2:      Singlet-A      2.1623 eV  573.40 nm  f=0.1560  <S**2>=0.000
     245 -> 247        0.65484
     246 -> 248       -0.23656

 Excited State   3:      Singlet-A      3.3602 eV  368.98 nm  f=0.0103  <S**2>=0.000
     241 -> 247       -0.17956
     243 -> 247        0.65857

 Excited State   4:      Singlet-A      3.4715 eV  357.15 nm  f=0.0063  <S**2>=0.000
     239 -> 247       -0.12998
     240 -> 247        0.53690
     240 -> 248       -0.22259
     240 -> 249        0.28459
     240 -> 250       -0.10440
     246 -> 248       -0.10354

 Excited State   5:      Singlet-A      3.5162 eV  352.61 nm  f=0.1242  <S**2>=0.000
     241 -> 247        0.48133
     242 -> 247        0.11440
     245 -> 247        0.10670
     246 -> 248        0.44189

 The electronic state is 1-A.
 Alpha  occ. eigenvalues --  -46.95648 -19.31248 -19.30934 -19.25022 -19.25016
 Alpha  occ. eigenvalues --  -19.24814 -19.22747 -14.47713 -14.45890 -14.44465
 Alpha  occ. eigenvalues --  -14.43717 -10.43632 -10.43327 -10.39867 -10.38284
 Alpha  occ. eigenvalues --  -10.36285 -10.36102 -10.35890 -10.35029 -10.34460
 Alpha  occ. eigenvalues --  -10.34163 -10.33911 -10.33760 -10.33696 -10.33452
 Alpha  occ. eigenvalues --  -10.33299 -10.33144 -10.32520 -10.32427 -10.32099
 Alpha  occ. eigenvalues --  -10.31963 -10.31871 -10.31810 -10.31785 -10.31428
 Alpha  occ. eigenvalues --  -10.31178 -10.31047 -10.30990 -10.30985 -10.30786
 Alpha  occ. eigenvalues --  -10.30518 -10.30385 -10.30301 -10.30154 -10.29954
 Alpha  occ. eigenvalues --  -10.29869 -10.29705 -10.29596 -10.29478 -10.29381
 Alpha  occ. eigenvalues --  -10.29368 -10.29358 -10.29233 -10.29173 -10.29150
 Alpha  occ. eigenvalues --  -10.29041 -10.28960 -10.28928 -10.28661 -10.28577
 Alpha  occ. eigenvalues --  -10.28572 -10.28487 -10.28387 -10.28029 -10.27949
 Alpha  occ. eigenvalues --  -10.27876  -3.21593  -1.95170  -1.94707  -1.94575
 Alpha  occ. eigenvalues --   -1.19765  -1.17739  -1.12322  -1.11375  -1.11019
 Alpha  occ. eigenvalues --   -1.09433  -1.07505  -1.06813  -1.06104  -1.04716
 Alpha  occ. eigenvalues --   -0.95377  -0.92913  -0.92060  -0.91510  -0.90919
 Alpha  occ. eigenvalues --   -0.90866  -0.90253  -0.89478  -0.89413  -0.89134
 Alpha  occ. eigenvalues --   -0.88140  -0.87350  -0.86489  -0.85871  -0.85011
 Alpha  occ. eigenvalues --   -0.84301  -0.83826  -0.83171  -0.83031  -0.82021
 Alpha  occ. eigenvalues --   -0.81565  -0.80537  -0.79814  -0.79239  -0.78414
 Alpha  occ. eigenvalues --   -0.77990  -0.77705  -0.77439  -0.77322  -0.75938
 Alpha  occ. eigenvalues --   -0.75549  -0.74912  -0.73370  -0.72820  -0.71710
 Alpha  occ. eigenvalues --   -0.70457  -0.70424  -0.69181  -0.68649  -0.67938
 Alpha  occ. eigenvalues --   -0.67183  -0.66992  -0.66945  -0.66393  -0.65879
 Alpha  occ. eigenvalues --   -0.65653  -0.65272  -0.64578  -0.63884  -0.63108
 Alpha  occ. eigenvalues --   -0.62403  -0.62269  -0.61403  -0.61053  -0.60327
 Alpha  occ. eigenvalues --   -0.60105  -0.59483  -0.58332  -0.58027  -0.57827
 Alpha  occ. eigenvalues --   -0.57011  -0.56753  -0.56454  -0.56319  -0.55930
 Alpha  occ. eigenvalues --   -0.55880  -0.55618  -0.55507  -0.55060  -0.54769
 Alpha  occ. eigenvalues --   -0.54649  -0.54396  -0.53997  -0.53856  -0.53751
 Alpha  occ. eigenvalues --   -0.53292  -0.53205  -0.53166  -0.52897  -0.52802
 Alpha  occ. eigenvalues --   -0.52375  -0.52148  -0.51990  -0.51738  -0.51620
 Alpha  occ. eigenvalues --   -0.51408  -0.51133  -0.50964  -0.50785  -0.50653
 Alpha  occ. eigenvalues --   -0.50461  -0.50205  -0.50016  -0.49887  -0.49860
 Alpha  occ. eigenvalues --   -0.49413  -0.49295  -0.49143  -0.48932  -0.48613
 Alpha  occ. eigenvalues --   -0.48451  -0.48223  -0.48000  -0.47925  -0.47843
 Alpha  occ. eigenvalues --   -0.47626  -0.47559  -0.47195  -0.47028  -0.46994
 Alpha  occ. eigenvalues --   -0.46905  -0.46762  -0.46596  -0.46317  -0.46152
 Alpha  occ. eigenvalues --   -0.45914  -0.45866  -0.45557  -0.45303  -0.45266
 Alpha  occ. eigenvalues --   -0.45000  -0.44961  -0.44863  -0.44611  -0.44079
 Alpha  occ. eigenvalues --   -0.43963  -0.43656  -0.43474  -0.43303  -0.43144
 Alpha  occ. eigenvalues --   -0.42828  -0.42703  -0.42622  -0.42466  -0.42090
 Alpha  occ. eigenvalues --   -0.41645  -0.41340  -0.40977  -0.40611  -0.40487
 Alpha  occ. eigenvalues --   -0.40261  -0.40037  -0.39951  -0.39868  -0.39844
 Alpha  occ. eigenvalues --   -0.39223  -0.39176  -0.39013  -0.38829  -0.38699
 Alpha  occ. eigenvalues --   -0.38195  -0.37560  -0.37378  -0.36613  -0.36378
 Alpha  occ. eigenvalues --   -0.36287  -0.36049  -0.35234  -0.33944  -0.33572
 Alpha  occ. eigenvalues --   -0.32857  -0.31805  -0.31534  -0.31259  -0.26033
 Alpha  occ. eigenvalues --   -0.23419
 Alpha virt. eigenvalues --   -0.07437   0.00249   0.02283   0.04572   0.05307
 Alpha virt. eigenvalues --    0.06182   0.06297   0.07207   0.08198   0.10203
 Alpha virt. eigenvalues --    0.10730   0.11328   0.11441   0.12191   0.12292

 Mulliken charges:
               1
     1  Mg   0.973916
     2  C    0.037647
     3  C   -0.057408
     4  C   -0.079437
     5  C   -0.112204
     6  N   -0.321213
     7  C    0.021439
     8  C   -0.072236
     9  C   -0.103629
    10  C    0.035052
    11  C    0.023100
    12  C    0.020559
    13  C    0.003607
    14  C    0.202727
    15  O   -0.228825
    16  O   -0.364881
    17  N   -0.425855
    18  C    0.132057
    19  C   -0.186439
    20  C   -0.078351
    21  C    0.112961
    22  C    0.100345
    23  C    0.029461
    24  O   -0.243811
    25  C   -0.006041
    26  N   -0.346454
    27  C    0.058323
    28  C   -0.040600
    29  C   -0.092796
    30  C    0.127529
    31  C    0.037042
    32  C   -0.055054
    33  C   -0.044214
    34  N   -0.428447
    35  C    0.110565
    36  C   -0.154826
    37  C   -0.031413
    38  C    0.095409
    39  C    0.092345
    40  C    0.144464
    41  O   -0.201110
    42  C   -0.124970
    43  C    0.269319
    44  O   -0.266187
    45  O   -0.381475
    46  C    0.137587
    47  C    0.210491
    48  C   -0.113950
    49  C   -0.230775
    50  C    0.053304
    51  C    0.050289
    52  C    0.010953
    53  C    0.017840
    54  C   -0.231466
    55  C   -0.008761
    56  C    0.043498
    57  C   -0.050183
    58  C    0.002854
    59  C   -0.202354
    60  C   -0.002145
    61  C    0.021852
    62  C   -0.047653
    63  C    0.010782
    64  C   -0.198714
    65  C   -0.014110
    66  C    0.024634
    67  H   -0.008022
    68  H    0.017611
    69  H   -0.014168
    70  H    0.035023
    71  H    0.026395
    72  H    0.054685
    73  H    0.027854
    74  H    0.048781
    75  H    0.040968
    76  H    0.045485
    77  H    0.055375
    78  H    0.032575
    79  H    0.028917
    80  H    0.060969
    81  H    0.044840
    82  H    0.048198
    83  H    0.059897
    84  H    0.036664
    85  H    0.033247
    86  H    0.027895
    87  H    0.046737
    88  H    0.033329
    89  H    0.047243
    90  H    0.033672
    91  H    0.017064
    92  H    0.043396
    93  H    0.043471
    94  H    0.025556
    95  H    0.035704
    96  H    0.069447
    97  H    0.049606
    98  H    0.065959
    99  H    0.053259
   100  H    0.060397
   101  H    0.068201
   102  H    0.072865
   103  H    0.040263
   104  H    0.022625
   105  H    0.035096
   106  H    0.050603
   107  H    0.023850
   108  H    0.034136
   109  H    0.016755
   110  H    0.027937
   111  H    0.031776
   112  H    0.025119
   113  H   -0.002680
   114  H    0.014033
   115  H    0.024515
   116  H    0.025327
   117  H    0.014166
   118  H    0.019781
   119  H    0.014179
   120  H    0.028145
   121  H    0.021211
   122  H    0.008607
   123  H    0.014105
   124  H    0.024321
   125  H    0.039369
   126  H    0.041003
   127  H    0.024443
   128  H    0.007022
   129  H    0.015731
   130  H    0.018321
   131  H    0.014315
   132  H    0.023817
   133  H    0.000631
   134  H    0.030397
   135  H    0.014900
   136  H    0.016026
   137  H    0.023001
   138  H    0.026623
   139  H    0.031159
   140  H    0.026316
 Sum of Mulliken charges =  -0.00000

 Dipole moment (field-independent basis, Debye):
    X=              3.3442    Y=              0.6284    Z=             -0.6706  Tot=              3.4682
 Quadrupole moment (field-independent basis, Debye-Ang):
   XX=           -363.6336   YY=           -429.4518   ZZ=           -411.8920
   XY=            -10.8401   XZ=              7.3082   YZ=            -10.7825

 Normal termination of Gaussian 16 at Wed May  4 06:15:56 2022.
