 Gaussian 16, Revision A.03,
 Gaussian 16:  ES64L-G16RevA.03 25-Dec-2016

 --------------------
 #p ZINDO=(nstates=5)
 --------------------

 ------------------------------
 step_1401_chromophore_27 ZINDO
 ------------------------------
 Symbolic Z-matrix:
 Charge =  0 Multiplicity = 1

                         Standard orientation:
 ---------------------------------------------------------------------
 Center     Atomic      Atomic             Coordinates (Angstroms)
 Number     Number       Type             X           Y           Z
 ---------------------------------------------------------------------
      1         12           0       -4.627781    0.795409   -0.417006
      2          6           0       -4.016858   -2.517488    0.320591
      3          6           0       -1.329663    1.424290   -0.523106
      4          6           0       -5.346305    4.176482   -0.179369
      5          6           0       -7.949562    0.258019    0.352818
      6          7           0       -2.828097   -0.379080    0.014594
      7          6           0       -2.812103   -1.744494    0.186160
      8          6           0       -1.388703   -2.300609    0.035232
      9          6           0       -0.516301   -0.995149    0.125849
     10          6           0       -1.628494    0.101319   -0.170726
     11          6           0        0.318229   -0.875374    1.447158
     12          6           0       -1.207702   -3.172261   -1.179024
     13          6           0       -0.354382   -4.468261   -0.935916
     14          6           0        1.092947   -4.560830   -1.527683
     15          8           0        1.326473   -4.991495   -2.611444
     16          8           0        2.077048   -4.139041   -0.675263
     17          7           0       -3.503335    2.600034   -0.541271
     18          6           0       -2.118499    2.632799   -0.666234
     19          6           0       -1.680487    3.956149   -0.721335
     20          6           0       -2.849405    4.776555   -0.540345
     21          6           0       -3.981199    3.837347   -0.411406
     22          6           0       -0.292190    4.403121   -0.959901
     23          6           0       -2.865801    6.291941   -0.520743
     24          8           0       -3.891337    6.946860   -0.388018
     25          6           0       -1.634821    7.167881   -0.720131
     26          7           0       -6.319987    2.017004    0.043363
     27          6           0       -6.368545    3.363259    0.027035
     28          6           0       -7.827347    3.922103    0.387420
     29          6           0       -8.608870    2.648215    0.340841
     30          6           0       -7.559251    1.542596    0.205617
     31          6           0       -7.880383    4.680231    1.719618
     32          6           0       -9.731228    2.552550   -0.862455
     33          6           0      -11.126771    3.121377   -0.567581
     34          7           0       -5.875580   -0.819765   -0.067802
     35          6           0       -7.178530   -0.929233    0.206758
     36          6           0       -7.620910   -2.314683    0.330928
     37          6           0       -6.382204   -3.007141    0.407358
     38          6           0       -5.320513   -2.035139    0.212213
     39          6           0       -9.052447   -2.781871    0.515470
     40          6           0       -5.781367   -4.297992    0.576841
     41          8           0       -6.239579   -5.431672    0.697694
     42          6           0       -4.226665   -4.013637    0.529191
     43          6           0       -3.593127   -4.632003    1.704571
     44          8           0       -3.346988   -4.007263    2.744267
     45          8           0       -3.053668   -5.865553    1.360697
     46          6           0       -2.233952   -6.444686    2.475554
     47          6           0        3.443101   -4.309874   -1.267483
     48          6           0        4.193945   -3.034512   -1.592412
     49          6           0        5.584269   -2.828680   -1.552965
     50          6           0        6.588447   -3.839986   -1.294485
     51          6           0        6.065425   -1.337086   -1.645529
     52          6           0        6.619302   -1.061752   -2.977546
     53          6           0        8.125307   -0.713486   -2.896812
     54          6           0        8.481639    0.616335   -3.655477
     55          6           0        8.483006    0.393032   -5.192656
     56          6           0        9.766515    1.328919   -3.236839
     57          6           0        9.538841    2.347929   -2.129534
     58          6           0       10.708340    2.404995   -0.978477
     59          6           0       10.147343    1.941739    0.364830
     60          6           0       10.017799    0.371890    0.545948
     61          6           0       10.936855    2.559200    1.554761
     62          6           0       10.002750    2.701687    2.785503
     63          6           0       10.530140    2.267471    4.219717
     64          6           0        9.895054    1.006988    4.753087
     65          6           0        8.705708    1.469394    5.612387
     66          6           0       10.901526    0.167714    5.509165
     67          1           0       -0.256384    1.627317   -0.529325
     68          1           0       -5.516371    5.255859   -0.177571
     69          1           0       -9.017355    0.091628    0.508992
     70          1           0       -1.088946   -2.878018    0.908946
     71          1           0        0.230769   -1.088066   -0.662948
     72          1           0       -0.109640   -1.388703    2.307595
     73          1           0        0.313676    0.197940    1.640107
     74          1           0        1.355718   -1.170212    1.291346
     75          1           0       -0.638328   -2.677668   -1.965439
     76          1           0       -2.193408   -3.366733   -1.600225
     77          1           0       -1.028656   -5.275682   -1.223309
     78          1           0       -0.321306   -4.712840    0.126829
     79          1           0        0.219198    3.540820   -1.387023
     80          1           0        0.224918    4.700674   -0.047512
     81          1           0       -0.364404    5.144554   -1.755577
     82          1           0       -1.286044    7.065107   -1.747937
     83          1           0       -0.887963    7.081367    0.068899
     84          1           0       -1.908361    8.220529   -0.785106
     85          1           0       -8.189801    4.490843   -0.468185
     86          1           0       -9.209628    2.546321    1.244469
     87          1           0       -6.876763    4.727103    2.142342
     88          1           0       -8.464918    4.216551    2.514726
     89          1           0       -8.289797    5.666670    1.501965
     90          1           0       -9.911581    1.605397   -1.370730
     91          1           0       -9.270264    3.124423   -1.666873
     92          1           0      -11.803858    2.321476   -0.266387
     93          1           0      -11.461398    3.695501   -1.432222
     94          1           0      -11.119819    3.836083    0.255243
     95          1           0       -9.807575   -2.023498    0.306748
     96          1           0       -9.250658   -3.386490    1.400506
     97          1           0       -9.180503   -3.491348   -0.301915
     98          1           0       -3.665357   -4.515267   -0.259270
     99          1           0       -1.297460   -5.891196    2.545208
    100          1           0       -2.036353   -7.488346    2.234534
    101          1           0       -2.766119   -6.396918    3.426060
    102          1           0        3.520855   -4.992482   -2.113773
    103          1           0        3.987721   -4.889087   -0.522242
    104          1           0        3.496805   -2.196917   -1.590835
    105          1           0        7.344507   -3.468588   -0.601451
    106          1           0        7.171307   -4.165618   -2.155617
    107          1           0        6.155193   -4.724280   -0.828741
    108          1           0        6.831510   -1.105808   -0.905290
    109          1           0        5.139088   -0.787298   -1.478784
    110          1           0        6.134229   -0.225741   -3.482655
    111          1           0        6.499295   -1.935105   -3.617232
    112          1           0        8.675287   -1.513224   -3.392247
    113          1           0        8.552393   -0.489950   -1.919527
    114          1           0        7.738802    1.409191   -3.571170
    115          1           0        7.710475    0.983408   -5.685572
    116          1           0        8.425600   -0.649173   -5.507307
    117          1           0        9.385300    0.791994   -5.657961
    118          1           0       10.122335    1.882239   -4.106199
    119          1           0       10.457994    0.634161   -2.759694
    120          1           0        8.529650    2.275439   -1.723197
    121          1           0        9.682108    3.299210   -2.641201
    122          1           0       11.124373    3.405197   -0.856894
    123          1           0       11.606043    1.873360   -1.296633
    124          1           0        9.161857    2.400458    0.444663
    125          1           0       10.521761   -0.034112    1.422695
    126          1           0       10.274358   -0.177650   -0.359535
    127          1           0        8.953781    0.184527    0.692176
    128          1           0       11.281590    3.530822    1.201564
    129          1           0       11.852728    2.032133    1.824199
    130          1           0        8.998662    2.338059    2.567130
    131          1           0        9.856011    3.779125    2.848913
    132          1           0       10.488892    3.134999    4.877036
    133          1           0       11.597755    2.087389    4.095584
    134          1           0        9.443838    0.452059    3.930545
    135          1           0        8.483411    0.905551    6.517824
    136          1           0        7.718445    1.386494    5.159028
    137          1           0        8.735957    2.514441    5.921795
    138          1           0       10.632912    0.075486    6.561736
    139          1           0       11.923009    0.533485    5.412184
    140          1           0       10.814271   -0.830114    5.079446
 ---------------------------------------------------------------------

 SCF Done:  E(RZINDO/S) =  -474.377135187     A.U. after   19 cycles

 Excitation energies and oscillator strengths:

 Excited State   1:      Singlet-A      1.2770 eV  970.86 nm  f=0.6276  <S**2>=0.000
     175 ->178         0.16013
     176 ->177         0.66421
 This state for optimization and/or second-order correction.
 Total Energy, E(CIS/TDA) =  -474.330204506
 Copying the excited state density for this state as the 1-particle RhoCI density.

 Excited State   2:      Singlet-A      1.9204 eV  645.61 nm  f=0.0760  <S**2>=0.000
     175 ->177         0.56245
     176 ->178        -0.36781
     176 ->179        -0.15489

 Excited State   3:      Singlet-A      2.8187 eV  439.86 nm  f=0.6110  <S**2>=0.000
     175 ->177         0.31344
     176 ->178         0.56141
     176 ->179        -0.15885

 Excited State   4:      Singlet-A      2.9429 eV  421.30 nm  f=0.0237  <S**2>=0.000
     168 ->177         0.37694
     168 ->178        -0.31025
     168 ->179         0.30518
     168 ->182         0.16242
     168 ->186        -0.17671

 Excited State   5:      Singlet-A      2.9529 eV  419.88 nm  f=0.0058  <S**2>=0.000
     170 ->177        -0.11994
     170 ->179         0.10577
     170 ->182        -0.18801
     171 ->177         0.23917
     171 ->179        -0.21307
     171 ->180         0.12674
     171 ->181         0.13366
     171 ->182         0.36104
     171 ->186         0.17334
     171 ->188         0.17879

 The electronic state is 1-A.
 Alpha  occ. eigenvalues --   -1.85637  -1.82087  -1.80771  -1.73558  -1.72454
 Alpha  occ. eigenvalues --   -1.71528  -1.65579  -1.61764  -1.58749  -1.58093
 Alpha  occ. eigenvalues --   -1.56053  -1.51767  -1.49314  -1.48895  -1.46896
 Alpha  occ. eigenvalues --   -1.45726  -1.43805  -1.40986  -1.38661  -1.38514
 Alpha  occ. eigenvalues --   -1.35723  -1.34006  -1.32860  -1.31437  -1.29864
 Alpha  occ. eigenvalues --   -1.25756  -1.25644  -1.20856  -1.19926  -1.19047
 Alpha  occ. eigenvalues --   -1.17942  -1.17153  -1.16312  -1.16013  -1.14647
 Alpha  occ. eigenvalues --   -1.13415  -1.10238  -1.09892  -1.05082  -1.03955
 Alpha  occ. eigenvalues --   -1.02263  -1.01693  -0.99115  -0.97795  -0.96355
 Alpha  occ. eigenvalues --   -0.95256  -0.94850  -0.93790  -0.93443  -0.93056
 Alpha  occ. eigenvalues --   -0.91143  -0.90655  -0.89177  -0.88959  -0.87224
 Alpha  occ. eigenvalues --   -0.86714  -0.84351  -0.83574  -0.83158  -0.81914
 Alpha  occ. eigenvalues --   -0.81196  -0.78877  -0.77340  -0.76825  -0.76294
 Alpha  occ. eigenvalues --   -0.75621  -0.75496  -0.75461  -0.74758  -0.74096
 Alpha  occ. eigenvalues --   -0.73470  -0.72015  -0.71895  -0.71484  -0.70717
 Alpha  occ. eigenvalues --   -0.70157  -0.70074  -0.68584  -0.68456  -0.67707
 Alpha  occ. eigenvalues --   -0.67646  -0.67126  -0.66755  -0.66200  -0.66048
 Alpha  occ. eigenvalues --   -0.65718  -0.65025  -0.64053  -0.63946  -0.63838
 Alpha  occ. eigenvalues --   -0.63666  -0.63522  -0.62490  -0.62019  -0.61874
 Alpha  occ. eigenvalues --   -0.61475  -0.61227  -0.60901  -0.60497  -0.60291
 Alpha  occ. eigenvalues --   -0.59711  -0.59111  -0.58640  -0.58264  -0.57904
 Alpha  occ. eigenvalues --   -0.57732  -0.57203  -0.57033  -0.56574  -0.56198
 Alpha  occ. eigenvalues --   -0.55932  -0.55409  -0.55049  -0.54870  -0.54339
 Alpha  occ. eigenvalues --   -0.54108  -0.53955  -0.53754  -0.53385  -0.53038
 Alpha  occ. eigenvalues --   -0.52996  -0.51859  -0.51806  -0.51751  -0.51643
 Alpha  occ. eigenvalues --   -0.51447  -0.51397  -0.50907  -0.50769  -0.50634
 Alpha  occ. eigenvalues --   -0.50218  -0.49975  -0.49719  -0.49350  -0.49105
 Alpha  occ. eigenvalues --   -0.48939  -0.48762  -0.48500  -0.48176  -0.48043
 Alpha  occ. eigenvalues --   -0.47689  -0.47051  -0.46976  -0.46683  -0.46282
 Alpha  occ. eigenvalues --   -0.46173  -0.46000  -0.45871  -0.45763  -0.45533
 Alpha  occ. eigenvalues --   -0.45126  -0.44874  -0.44467  -0.44090  -0.43926
 Alpha  occ. eigenvalues --   -0.43882  -0.43687  -0.43110  -0.42851  -0.42736
 Alpha  occ. eigenvalues --   -0.42424  -0.42154  -0.41961  -0.39369  -0.38976
 Alpha  occ. eigenvalues --   -0.38786  -0.37615  -0.36503  -0.34637  -0.33886
 Alpha  occ. eigenvalues --   -0.33637  -0.33172  -0.31736  -0.31255  -0.26791
 Alpha  occ. eigenvalues --   -0.22213
 Alpha virt. eigenvalues --   -0.08880  -0.02598  -0.00476   0.00899   0.01427
 Alpha virt. eigenvalues --    0.01933   0.02145   0.03183   0.03232   0.04684
 Alpha virt. eigenvalues --    0.06193   0.06539   0.07288   0.07664   0.07994

 Mulliken charges:
               1
     1  Mg   0.425755
     2  C   -0.036802
     3  C   -0.056267
     4  C   -0.062151
     5  C   -0.095774
     6  N   -0.240095
     7  C    0.129361
     8  C    0.005472
     9  C   -0.007850
    10  C    0.104303
    11  C   -0.050618
    12  C   -0.014493
    13  C   -0.007095
    14  C    0.474672
    15  O   -0.499897
    16  O   -0.266367
    17  N   -0.318576
    18  C    0.064811
    19  C    0.012183
    20  C   -0.083480
    21  C    0.148876
    22  C   -0.045138
    23  C    0.319681
    24  O   -0.537457
    25  C   -0.032592
    26  N   -0.280799
    27  C    0.125508
    28  C    0.000279
    29  C    0.002118
    30  C    0.170573
    31  C   -0.047367
    32  C   -0.044188
    33  C   -0.055455
    34  N   -0.318519
    35  C    0.145868
    36  C    0.044807
    37  C   -0.041383
    38  C    0.107114
    39  C   -0.035644
    40  C    0.341140
    41  O   -0.509267
    42  C    0.054651
    43  C    0.485418
    44  O   -0.526143
    45  O   -0.268296
    46  C    0.074823
    47  C    0.101787
    48  C   -0.103036
    49  C   -0.001556
    50  C   -0.030488
    51  C   -0.020219
    52  C   -0.021230
    53  C   -0.037123
    54  C   -0.022326
    55  C   -0.066153
    56  C   -0.035966
    57  C   -0.051489
    58  C   -0.042023
    59  C   -0.009950
    60  C   -0.060343
    61  C   -0.034455
    62  C   -0.048747
    63  C   -0.030695
    64  C    0.005361
    65  C   -0.062468
    66  C   -0.053537
    67  H    0.017512
    68  H    0.042805
    69  H    0.017019
    70  H    0.034073
    71  H    0.024789
    72  H    0.032114
    73  H    0.017648
    74  H    0.024413
    75  H    0.026641
    76  H    0.028739
    77  H    0.036211
    78  H    0.028404
    79  H    0.015706
    80  H    0.039558
    81  H    0.033544
    82  H    0.034214
    83  H    0.037685
    84  H    0.027473
    85  H    0.034598
    86  H    0.027470
    87  H    0.027195
    88  H    0.020697
    89  H    0.024384
    90  H    0.024997
    91  H    0.012379
    92  H    0.022043
    93  H    0.023093
    94  H    0.014984
    95  H    0.031202
    96  H    0.047761
    97  H    0.029070
    98  H    0.056326
    99  H    0.040695
   100  H    0.033479
   101  H    0.051985
   102  H    0.060086
   103  H    0.027509
   104  H    0.032833
   105  H    0.021231
   106  H    0.033654
   107  H    0.020266
   108  H    0.031093
   109  H    0.020656
   110  H    0.021845
   111  H    0.022410
   112  H    0.021267
   113  H    0.026340
   114  H    0.019277
   115  H    0.014276
   116  H    0.018426
   117  H    0.011207
   118  H    0.027775
   119  H    0.023808
   120  H    0.030224
   121  H    0.010826
   122  H    0.015729
   123  H    0.019613
   124  H    0.021378
   125  H    0.026853
   126  H    0.022100
   127  H    0.009865
   128  H    0.014041
   129  H    0.020691
   130  H    0.023962
   131  H    0.005080
   132  H    0.024581
   133  H    0.007720
   134  H    0.024826
   135  H    0.011188
   136  H    0.009002
   137  H    0.017646
   138  H    0.020353
   139  H    0.025154
   140  H    0.013261
 Sum of Mulliken charges =  -0.00000

 Dipole moment (field-independent basis, Debye):
    X=              3.5824    Y=             -0.9870    Z=             -0.7183  Tot=              3.7847
 N-N= 4.360525635288D+03 E-N= 0.000000000000D+00  KE=-9.394885185539D+03
 Leave Link  601 at Wed May  4 06:28:40 2022, MaxMem=  6710886400 cpu:               0.8 elap:               0.0
 (Enter /sw/apps/gaussian-16.0/g16/l9999.exe)
 1\1\GINC-BP1-COMPUTE092\SP\RZINDO CIS\STO-3G\C55H74Mg1N4O6\OF15641\04-
 May-2022\0\\#p ZINDO=(nstates=5)\\step_1401_chromophore_27 ZINDO\\0,1\
 Mg,0,-5.596,25.299,26.928\C,0,-3.852,27.1,29.296\C,0,-6.745,23.214,29.
 298\C,0,-6.467,23.065,24.427\C,0,-3.882,27.031,24.483\N,0,-5.219,25.06
 ,29.074\C,0,-4.56,25.981,29.856\C,0,-4.841,25.738,31.346\C,0,-5.464,24
 .294,31.33\C,0,-5.862,24.182,29.795\C,0,-4.535,23.191,31.944\C,0,-5.64
 6,26.833,31.994\C,0,-5.157,27.247,33.428\C,0,-6.011,26.848,34.679\O,0,

 Normal termination of Gaussian 16 at Wed May  4 06:28:41 2022.
