 Gaussian 16, Revision A.03,
 Gaussian 16:  ES64L-G16RevA.03 25-Dec-2016

 ------------------------------
 #p blyp/Def2SVP td=(nstates=5)
 ------------------------------

 --------------------------------------------------
 step_751_chromophore_17 TDDFT with blyp functional
 --------------------------------------------------
 Symbolic Z-matrix:
 Charge =  0 Multiplicity = 1

                         Standard orientation:
 ---------------------------------------------------------------------
 Center     Atomic      Atomic             Coordinates (Angstroms)
 Number     Number       Type             X           Y           Z
 ---------------------------------------------------------------------
      1         12           0        3.787867    1.415545   -0.701149
      2          6           0        4.109852   -2.091172   -0.725473
      3          6           0        1.015938    1.083776   -2.786866
      4          6           0        3.054778    4.715290   -0.225650
      5          6           0        5.754328    1.367633    2.125354
      6          7           0        2.674937   -0.343125   -1.670347
      7          6           0        2.936310   -1.611028   -1.369056
      8          6           0        1.931148   -2.495503   -2.030849
      9          6           0        1.110041   -1.570801   -3.025113
     10          6           0        1.636661   -0.186360   -2.493763
     11          6           0        1.437125   -1.672384   -4.568919
     12          6           0        1.063623   -3.296891   -1.023120
     13          6           0        0.294868   -4.523839   -1.613161
     14          6           0       -0.577148   -5.347751   -0.774436
     15          8           0       -0.349224   -6.382150   -0.234184
     16          8           0       -1.755818   -4.605174   -0.627379
     17          7           0        2.481126    2.776392   -1.626289
     18          6           0        1.343325    2.436132   -2.387065
     19          6           0        0.689606    3.643251   -2.805014
     20          6           0        1.288592    4.725194   -2.186745
     21          6           0        2.286617    4.158558   -1.323389
     22          6           0       -0.508148    3.605057   -3.787374
     23          6           0        0.901982    6.203381   -2.351826
     24          8           0       -0.123523    6.477907   -3.027204
     25          6           0        1.734144    7.320885   -1.755493
     26          7           0        4.334894    2.807796    0.738891
     27          6           0        3.919978    4.108203    0.702383
     28          6           0        4.694029    4.989621    1.773484
     29          6           0        5.596469    3.950931    2.520229
     30          6           0        5.221130    2.614325    1.776873
     31          6           0        5.470142    6.180898    1.133050
     32          6           0        5.332168    3.842341    4.072131
     33          6           0        6.543122    3.397310    4.919413
     34          7           0        4.981891    0.024372    0.311542
     35          6           0        5.713025    0.150003    1.428416
     36          6           0        6.458677   -1.052525    1.680970
     37          6           0        5.884590   -1.962537    0.838632
     38          6           0        4.933574   -1.293850    0.020116
     39          6           0        7.498267   -1.310817    2.718013
     40          6           0        5.880552   -3.353309    0.435507
     41          8           0        6.610865   -4.231809    0.818136
     42          6           0        4.607415   -3.527571   -0.461983
     43          6           0        4.813079   -4.250208   -1.704581
     44          8           0        5.756249   -3.957598   -2.456930
     45          8           0        3.912403   -5.277209   -2.012737
     46          6           0        4.184702   -5.953376   -3.273974
     47          6           0       -2.791908   -5.302477    0.144786
     48          6           0       -3.536910   -4.185004    0.853881
     49          6           0       -4.414286   -4.352833    1.839814
     50          6           0       -4.691779   -5.612156    2.578289
     51          6           0       -4.949423   -3.033067    2.532696
     52          6           0       -3.901737   -2.425718    3.557155
     53          6           0       -3.857465   -0.903823    3.709575
     54          6           0       -5.024204   -0.244206    4.394596
     55          6           0       -4.814025   -0.056494    5.877226
     56          6           0       -5.527266    1.079420    3.656934
     57          6           0       -6.674841    0.843094    2.655501
     58          6           0       -6.321469    1.113346    1.212653
     59          6           0       -7.502688    0.883866    0.250401
     60          6           0       -7.353627   -0.495003   -0.456402
     61          6           0       -7.798299    2.058021   -0.659617
     62          6           0       -9.270963    2.471339   -0.730157
     63          6           0      -10.335538    1.359362   -1.140795
     64          6           0      -11.719487    2.012499   -1.533530
     65          6           0      -12.930361    1.470696   -0.743423
     66          6           0      -11.947190    1.873720   -3.045014
     67          1           0        0.180679    0.942938   -3.475914
     68          1           0        2.934637    5.741630    0.127865
     69          1           0        6.406644    1.195927    2.985065
     70          1           0        2.566541   -3.209248   -2.555361
     71          1           0        0.055696   -1.619907   -2.753306
     72          1           0        2.015075   -2.537328   -4.893733
     73          1           0        1.967460   -0.765259   -4.858082
     74          1           0        0.533191   -1.536838   -5.163094
     75          1           0        0.267374   -2.585717   -0.802172
     76          1           0        1.622312   -3.561168   -0.124596
     77          1           0        1.007659   -5.189221   -2.101206
     78          1           0       -0.239107   -4.337132   -2.545641
     79          1           0       -1.382712    3.546330   -3.138954
     80          1           0       -0.744447    2.759645   -4.434079
     81          1           0       -0.444598    4.520009   -4.377546
     82          1           0        1.448870    7.586955   -0.738193
     83          1           0        1.480705    8.102074   -2.472356
     84          1           0        2.810912    7.154289   -1.794638
     85          1           0        4.094621    5.488780    2.534504
     86          1           0        6.650269    4.189479    2.372681
     87          1           0        6.549325    6.162973    1.283009
     88          1           0        5.062484    7.086756    1.582314
     89          1           0        5.241696    6.165907    0.066709
     90          1           0        4.473432    3.198320    4.258950
     91          1           0        5.007141    4.856750    4.305577
     92          1           0        7.332129    3.269131    4.178198
     93          1           0        6.410352    2.447381    5.437272
     94          1           0        6.888658    4.151891    5.625355
     95          1           0        8.125625   -2.175482    2.500733
     96          1           0        6.958221   -1.472720    3.651435
     97          1           0        8.203522   -0.500225    2.906085
     98          1           0        3.887291   -4.029250    0.184844
     99          1           0        3.331507   -6.595833   -3.491482
    100          1           0        5.137839   -6.481736   -3.265587
    101          1           0        4.269477   -5.302382   -4.144243
    102          1           0       -2.438768   -5.992621    0.910549
    103          1           0       -3.418698   -5.849316   -0.560435
    104          1           0       -3.351631   -3.217029    0.387936
    105          1           0       -4.299682   -5.453193    3.583152
    106          1           0       -4.073150   -6.436541    2.225118
    107          1           0       -5.729005   -5.946845    2.567877
    108          1           0       -5.914795   -3.249055    2.989536
    109          1           0       -5.231468   -2.214722    1.870048
    110          1           0       -2.874193   -2.771441    3.441988
    111          1           0       -4.340312   -2.787546    4.486663
    112          1           0       -3.891387   -0.451181    2.718498
    113          1           0       -2.844631   -0.726742    4.073325
    114          1           0       -5.833466   -0.974174    4.364272
    115          1           0       -5.214820   -0.978520    6.299952
    116          1           0       -5.443910    0.687311    6.363698
    117          1           0       -3.741286   -0.035871    6.070963
    118          1           0       -4.761141    1.557404    3.046651
    119          1           0       -5.737003    1.836697    4.411853
    120          1           0       -7.447161    1.582205    2.868711
    121          1           0       -7.098024   -0.159979    2.601364
    122          1           0       -5.582536    0.327120    1.061188
    123          1           0       -5.909789    2.115519    1.086072
    124          1           0       -8.361232    0.885103    0.922160
    125          1           0       -8.345476   -0.946770   -0.437356
    126          1           0       -6.617776   -1.074954    0.099811
    127          1           0       -7.041855   -0.386867   -1.495866
    128          1           0       -7.368244    1.759632   -1.615453
    129          1           0       -7.239001    2.925445   -0.308706
    130          1           0       -9.327487    3.064768   -1.642353
    131          1           0       -9.443631    3.060215    0.170188
    132          1           0      -10.393566    0.688539   -0.284214
    133          1           0       -9.832077    0.812278   -1.937468
    134          1           0      -11.670766    3.090685   -1.379261
    135          1           0      -13.586155    2.274352   -0.409176
    136          1           0      -12.548528    0.919546    0.116381
    137          1           0      -13.569837    0.800587   -1.317662
    138          1           0      -12.335597    0.872379   -3.232705
    139          1           0      -11.044917    1.869441   -3.655851
    140          1           0      -12.726008    2.535409   -3.424007
 ---------------------------------------------------------------------

 SCF Done:  E(RB-LYP) =  -3007.37024440     A.U. after   21 cycles

 Excitation energies and oscillator strengths:

 Excited State   1:      Singlet-A      1.8243 eV  679.62 nm  f=0.2911  <S**2>=0.000
     245 -> 248        0.21241
     246 -> 247        0.68179
     246 <- 247       -0.14172
 This state for optimization and/or second-order correction.
 Total Energy, E(TD-HF/TD-DFT) =  -3007.30320239
 Copying the excited state density for this state as the 1-particle RhoCI density.

 Excited State   2:      Singlet-A      1.9991 eV  620.21 nm  f=0.0301  <S**2>=0.000
     244 -> 247        0.38241
     245 -> 247        0.53947
     246 -> 248       -0.23268

 Excited State   3:      Singlet-A      2.0501 eV  604.77 nm  f=0.0163  <S**2>=0.000
     244 -> 247        0.59093
     245 -> 247       -0.33139
     246 -> 248        0.17151

 Excited State   4:      Singlet-A      2.1514 eV  576.30 nm  f=0.0009  <S**2>=0.000
     243 -> 247        0.70480

 Excited State   5:      Singlet-A      2.3451 eV  528.70 nm  f=0.0000  <S**2>=0.000
     242 -> 247        0.70704

 The electronic state is 1-A.
 Alpha  occ. eigenvalues --  -46.27644 -18.83011 -18.81368 -18.77405 -18.76836
 Alpha  occ. eigenvalues --  -18.76281 -18.75927 -14.03661 -14.03654 -14.01418
 Alpha  occ. eigenvalues --  -14.00858 -10.04315 -10.03720 -10.00641 -10.00003
 Alpha  occ. eigenvalues --   -9.97859  -9.97240  -9.97203  -9.97155  -9.97033
 Alpha  occ. eigenvalues --   -9.96905  -9.96783  -9.95885  -9.95463  -9.95172
 Alpha  occ. eigenvalues --   -9.94858  -9.94475  -9.94427  -9.94413  -9.94368
 Alpha  occ. eigenvalues --   -9.94250  -9.94068  -9.93754  -9.93733  -9.93622
 Alpha  occ. eigenvalues --   -9.93407  -9.93248  -9.93116  -9.93035  -9.92750
 Alpha  occ. eigenvalues --   -9.92733  -9.92719  -9.92697  -9.92676  -9.92532
 Alpha  occ. eigenvalues --   -9.92421  -9.92389  -9.92263  -9.92173  -9.91761
 Alpha  occ. eigenvalues --   -9.91635  -9.91609  -9.91534  -9.91167  -9.91156
 Alpha  occ. eigenvalues --   -9.91020  -9.90935  -9.90902  -9.90883  -9.90847
 Alpha  occ. eigenvalues --   -9.90806  -9.90769  -9.90634  -9.90522  -9.90438
 Alpha  occ. eigenvalues --   -9.90156  -2.92225  -1.72649  -1.72111  -1.71935
 Alpha  occ. eigenvalues --   -0.97949  -0.97455  -0.92725  -0.90805  -0.90152
 Alpha  occ. eigenvalues --   -0.89361  -0.87943  -0.87160  -0.85472  -0.83899
 Alpha  occ. eigenvalues --   -0.76563  -0.73699  -0.73221  -0.72801  -0.72303
 Alpha  occ. eigenvalues --   -0.71986  -0.71624  -0.71165  -0.70921  -0.70295
 Alpha  occ. eigenvalues --   -0.69396  -0.69248  -0.68228  -0.68034  -0.67699
 Alpha  occ. eigenvalues --   -0.66391  -0.66162  -0.65423  -0.65047  -0.64698
 Alpha  occ. eigenvalues --   -0.64247  -0.63071  -0.62235  -0.62020  -0.61246
 Alpha  occ. eigenvalues --   -0.60524  -0.60112  -0.59994  -0.59731  -0.59009
 Alpha  occ. eigenvalues --   -0.58283  -0.57775  -0.57222  -0.56235  -0.55101
 Alpha  occ. eigenvalues --   -0.54480  -0.53720  -0.52798  -0.52546  -0.52169
 Alpha  occ. eigenvalues --   -0.51671  -0.50947  -0.50713  -0.50171  -0.49923
 Alpha  occ. eigenvalues --   -0.49568  -0.49295  -0.48947  -0.48117  -0.46919
 Alpha  occ. eigenvalues --   -0.46629  -0.46127  -0.46062  -0.45671  -0.45086
 Alpha  occ. eigenvalues --   -0.44528  -0.43548  -0.43089  -0.43029  -0.42611
 Alpha  occ. eigenvalues --   -0.42390  -0.41981  -0.41686  -0.41274  -0.40968
 Alpha  occ. eigenvalues --   -0.40914  -0.40648  -0.40388  -0.40273  -0.40098
 Alpha  occ. eigenvalues --   -0.39979  -0.39663  -0.39463  -0.39323  -0.39147
 Alpha  occ. eigenvalues --   -0.39072  -0.38936  -0.38799  -0.38680  -0.38510
 Alpha  occ. eigenvalues --   -0.38336  -0.38130  -0.37927  -0.37571  -0.37508
 Alpha  occ. eigenvalues --   -0.37189  -0.36995  -0.36977  -0.36879  -0.36701
 Alpha  occ. eigenvalues --   -0.36540  -0.36356  -0.36277  -0.36017  -0.35946
 Alpha  occ. eigenvalues --   -0.35754  -0.35240  -0.35043  -0.34934  -0.34814
 Alpha  occ. eigenvalues --   -0.34369  -0.34323  -0.34138  -0.34003  -0.33850
 Alpha  occ. eigenvalues --   -0.33708  -0.33452  -0.33247  -0.33191  -0.33070
 Alpha  occ. eigenvalues --   -0.32966  -0.32801  -0.32744  -0.32666  -0.32522
 Alpha  occ. eigenvalues --   -0.32335  -0.32250  -0.31950  -0.31702  -0.31533
 Alpha  occ. eigenvalues --   -0.31343  -0.31297  -0.31176  -0.31086  -0.30937
 Alpha  occ. eigenvalues --   -0.30642  -0.30417  -0.30100  -0.30062  -0.29838
 Alpha  occ. eigenvalues --   -0.29629  -0.29601  -0.29544  -0.29302  -0.29003
 Alpha  occ. eigenvalues --   -0.28774  -0.28610  -0.28560  -0.28232  -0.28052
 Alpha  occ. eigenvalues --   -0.27503  -0.27415  -0.27093  -0.26676  -0.26479
 Alpha  occ. eigenvalues --   -0.26422  -0.26028  -0.26007  -0.25652  -0.25354
 Alpha  occ. eigenvalues --   -0.25101  -0.24813  -0.24609  -0.24384  -0.24103
 Alpha  occ. eigenvalues --   -0.23825  -0.22546  -0.22433  -0.21887  -0.21085
 Alpha  occ. eigenvalues --   -0.20443  -0.20222  -0.19388  -0.18989  -0.17598
 Alpha  occ. eigenvalues --   -0.16001
 Alpha virt. eigenvalues --   -0.11604  -0.07661  -0.06640  -0.04991  -0.03981
 Alpha virt. eigenvalues --   -0.02969  -0.02436  -0.01749  -0.01468  -0.00138
 Alpha virt. eigenvalues --    0.00775   0.01494   0.02365   0.02484   0.02770

 Mulliken charges:
               1
     1  Mg   0.707824
     2  C   -0.032130
     3  C   -0.013543
     4  C   -0.034402
     5  C   -0.058274
     6  N   -0.147285
     7  C   -0.085008
     8  C    0.005471
     9  C    0.019920
    10  C   -0.085248
    11  C    0.135561
    12  C    0.137688
    13  C    0.153198
    14  C    0.059040
    15  O   -0.138985
    16  O   -0.310308
    17  N   -0.335599
    18  C    0.154867
    19  C   -0.130825
    20  C    0.069206
    21  C    0.135677
    22  C    0.170335
    23  C   -0.071352
    24  O   -0.196443
    25  C    0.120000
    26  N   -0.251993
    27  C    0.010880
    28  C   -0.019500
    29  C    0.010068
    30  C    0.083801
    31  C    0.107578
    32  C    0.079195
    33  C    0.079167
    34  N   -0.234389
    35  C    0.034146
    36  C   -0.159390
    37  C    0.071288
    38  C    0.083489
    39  C    0.165108
    40  C   -0.025946
    41  O   -0.098510
    42  C    0.119319
    43  C    0.098368
    44  O   -0.201130
    45  O   -0.273768
    46  C    0.229189
    47  C    0.306340
    48  C   -0.117419
    49  C   -0.106627
    50  C    0.152284
    51  C    0.094994
    52  C    0.061511
    53  C    0.112108
    54  C   -0.081699
    55  C    0.142207
    56  C    0.140871
    57  C    0.037081
    58  C    0.080418
    59  C   -0.107264
    60  C    0.130049
    61  C    0.133792
    62  C    0.021470
    63  C    0.086841
    64  C   -0.044323
    65  C    0.104403
    66  C    0.081904
    67  H   -0.071452
    68  H   -0.068175
    69  H   -0.083313
    70  H   -0.026020
    71  H   -0.014312
    72  H    0.008417
    73  H   -0.006127
    74  H   -0.008667
    75  H   -0.019566
    76  H   -0.008254
    77  H   -0.035654
    78  H   -0.026159
    79  H   -0.004028
    80  H   -0.020111
    81  H    0.020802
    82  H    0.028489
    83  H    0.003922
    84  H    0.005443
    85  H   -0.021220
    86  H   -0.017021
    87  H   -0.005099
    88  H   -0.009832
    89  H   -0.000556
    90  H   -0.016200
    91  H   -0.025451
    92  H   -0.009450
    93  H    0.004033
    94  H   -0.006156
    95  H    0.011908
    96  H    0.004780
    97  H   -0.008485
    98  H    0.004469
    99  H    0.014634
   100  H    0.018915
   101  H    0.001520
   102  H    0.011566
   103  H    0.001174
   104  H   -0.028123
   105  H   -0.001654
   106  H   -0.029886
   107  H    0.008655
   108  H   -0.035632
   109  H   -0.030431
   110  H   -0.018342
   111  H   -0.033055
   112  H   -0.042037
   113  H   -0.036328
   114  H   -0.037693
   115  H   -0.034310
   116  H   -0.017937
   117  H   -0.016318
   118  H   -0.039877
   119  H   -0.048616
   120  H   -0.036210
   121  H   -0.025266
   122  H   -0.043614
   123  H   -0.035558
   124  H   -0.039323
   125  H   -0.011847
   126  H   -0.013505
   127  H   -0.016054
   128  H   -0.049696
   129  H   -0.043880
   130  H   -0.029052
   131  H   -0.015566
   132  H   -0.024604
   133  H   -0.031137
   134  H   -0.024406
   135  H   -0.015828
   136  H   -0.018740
   137  H   -0.018668
   138  H   -0.029413
   139  H   -0.015792
   140  H   -0.014320
 Sum of Mulliken charges =  -0.00000

 Dipole moment (field-independent basis, Debye):
    X=             -1.3264    Y=              2.4745    Z=              1.8830  Tot=              3.3805
 Quadrupole moment (field-independent basis, Debye-Ang):
   XX=           -411.0678   YY=           -423.4971   ZZ=           -391.9433
   XY=             48.3806   XZ=              6.0937   YZ=             28.6604

 Normal termination of Gaussian 16 at Sat Apr 30 13:37:41 2022.
