 Gaussian 16, Revision A.03,
 Gaussian 16:  ES64L-G16RevA.03 25-Dec-2016

 -----------------------------------
 #p cam-b3lyp/Def2SVP td=(nstates=5)
 -----------------------------------

 -------------------------------------------------------
 step_751_chromophore_17 TDDFT with cam-b3lyp functional
 -------------------------------------------------------
 Symbolic Z-matrix:
 Charge =  0 Multiplicity = 1

                         Standard orientation:
 ---------------------------------------------------------------------
 Center     Atomic      Atomic             Coordinates (Angstroms)
 Number     Number       Type             X           Y           Z
 ---------------------------------------------------------------------
      1         12           0        3.787867    1.415545   -0.701149
      2          6           0        4.109852   -2.091172   -0.725473
      3          6           0        1.015938    1.083776   -2.786866
      4          6           0        3.054778    4.715290   -0.225650
      5          6           0        5.754328    1.367633    2.125354
      6          7           0        2.674937   -0.343125   -1.670347
      7          6           0        2.936310   -1.611028   -1.369056
      8          6           0        1.931148   -2.495503   -2.030849
      9          6           0        1.110041   -1.570801   -3.025113
     10          6           0        1.636661   -0.186360   -2.493763
     11          6           0        1.437125   -1.672384   -4.568919
     12          6           0        1.063623   -3.296891   -1.023120
     13          6           0        0.294868   -4.523839   -1.613161
     14          6           0       -0.577148   -5.347751   -0.774436
     15          8           0       -0.349224   -6.382150   -0.234184
     16          8           0       -1.755818   -4.605174   -0.627379
     17          7           0        2.481126    2.776392   -1.626289
     18          6           0        1.343325    2.436132   -2.387065
     19          6           0        0.689606    3.643251   -2.805014
     20          6           0        1.288592    4.725194   -2.186745
     21          6           0        2.286617    4.158558   -1.323389
     22          6           0       -0.508148    3.605057   -3.787374
     23          6           0        0.901982    6.203381   -2.351826
     24          8           0       -0.123523    6.477907   -3.027204
     25          6           0        1.734144    7.320885   -1.755493
     26          7           0        4.334894    2.807796    0.738891
     27          6           0        3.919978    4.108203    0.702383
     28          6           0        4.694029    4.989621    1.773484
     29          6           0        5.596469    3.950931    2.520229
     30          6           0        5.221130    2.614325    1.776873
     31          6           0        5.470142    6.180898    1.133050
     32          6           0        5.332168    3.842341    4.072131
     33          6           0        6.543122    3.397310    4.919413
     34          7           0        4.981891    0.024372    0.311542
     35          6           0        5.713025    0.150003    1.428416
     36          6           0        6.458677   -1.052525    1.680970
     37          6           0        5.884590   -1.962537    0.838632
     38          6           0        4.933574   -1.293850    0.020116
     39          6           0        7.498267   -1.310817    2.718013
     40          6           0        5.880552   -3.353309    0.435507
     41          8           0        6.610865   -4.231809    0.818136
     42          6           0        4.607415   -3.527571   -0.461983
     43          6           0        4.813079   -4.250208   -1.704581
     44          8           0        5.756249   -3.957598   -2.456930
     45          8           0        3.912403   -5.277209   -2.012737
     46          6           0        4.184702   -5.953376   -3.273974
     47          6           0       -2.791908   -5.302477    0.144786
     48          6           0       -3.536910   -4.185004    0.853881
     49          6           0       -4.414286   -4.352833    1.839814
     50          6           0       -4.691779   -5.612156    2.578289
     51          6           0       -4.949423   -3.033067    2.532696
     52          6           0       -3.901737   -2.425718    3.557155
     53          6           0       -3.857465   -0.903823    3.709575
     54          6           0       -5.024204   -0.244206    4.394596
     55          6           0       -4.814025   -0.056494    5.877226
     56          6           0       -5.527266    1.079420    3.656934
     57          6           0       -6.674841    0.843094    2.655501
     58          6           0       -6.321469    1.113346    1.212653
     59          6           0       -7.502688    0.883866    0.250401
     60          6           0       -7.353627   -0.495003   -0.456402
     61          6           0       -7.798299    2.058021   -0.659617
     62          6           0       -9.270963    2.471339   -0.730157
     63          6           0      -10.335538    1.359362   -1.140795
     64          6           0      -11.719487    2.012499   -1.533530
     65          6           0      -12.930361    1.470696   -0.743423
     66          6           0      -11.947190    1.873720   -3.045014
     67          1           0        0.180679    0.942938   -3.475914
     68          1           0        2.934637    5.741630    0.127865
     69          1           0        6.406644    1.195927    2.985065
     70          1           0        2.566541   -3.209248   -2.555361
     71          1           0        0.055696   -1.619907   -2.753306
     72          1           0        2.015075   -2.537328   -4.893733
     73          1           0        1.967460   -0.765259   -4.858082
     74          1           0        0.533191   -1.536838   -5.163094
     75          1           0        0.267374   -2.585717   -0.802172
     76          1           0        1.622312   -3.561168   -0.124596
     77          1           0        1.007659   -5.189221   -2.101206
     78          1           0       -0.239107   -4.337132   -2.545641
     79          1           0       -1.382712    3.546330   -3.138954
     80          1           0       -0.744447    2.759645   -4.434079
     81          1           0       -0.444598    4.520009   -4.377546
     82          1           0        1.448870    7.586955   -0.738193
     83          1           0        1.480705    8.102074   -2.472356
     84          1           0        2.810912    7.154289   -1.794638
     85          1           0        4.094621    5.488780    2.534504
     86          1           0        6.650269    4.189479    2.372681
     87          1           0        6.549325    6.162973    1.283009
     88          1           0        5.062484    7.086756    1.582314
     89          1           0        5.241696    6.165907    0.066709
     90          1           0        4.473432    3.198320    4.258950
     91          1           0        5.007141    4.856750    4.305577
     92          1           0        7.332129    3.269131    4.178198
     93          1           0        6.410352    2.447381    5.437272
     94          1           0        6.888658    4.151891    5.625355
     95          1           0        8.125625   -2.175482    2.500733
     96          1           0        6.958221   -1.472720    3.651435
     97          1           0        8.203522   -0.500225    2.906085
     98          1           0        3.887291   -4.029250    0.184844
     99          1           0        3.331507   -6.595833   -3.491482
    100          1           0        5.137839   -6.481736   -3.265587
    101          1           0        4.269477   -5.302382   -4.144243
    102          1           0       -2.438768   -5.992621    0.910549
    103          1           0       -3.418698   -5.849316   -0.560435
    104          1           0       -3.351631   -3.217029    0.387936
    105          1           0       -4.299682   -5.453193    3.583152
    106          1           0       -4.073150   -6.436541    2.225118
    107          1           0       -5.729005   -5.946845    2.567877
    108          1           0       -5.914795   -3.249055    2.989536
    109          1           0       -5.231468   -2.214722    1.870048
    110          1           0       -2.874193   -2.771441    3.441988
    111          1           0       -4.340312   -2.787546    4.486663
    112          1           0       -3.891387   -0.451181    2.718498
    113          1           0       -2.844631   -0.726742    4.073325
    114          1           0       -5.833466   -0.974174    4.364272
    115          1           0       -5.214820   -0.978520    6.299952
    116          1           0       -5.443910    0.687311    6.363698
    117          1           0       -3.741286   -0.035871    6.070963
    118          1           0       -4.761141    1.557404    3.046651
    119          1           0       -5.737003    1.836697    4.411853
    120          1           0       -7.447161    1.582205    2.868711
    121          1           0       -7.098024   -0.159979    2.601364
    122          1           0       -5.582536    0.327120    1.061188
    123          1           0       -5.909789    2.115519    1.086072
    124          1           0       -8.361232    0.885103    0.922160
    125          1           0       -8.345476   -0.946770   -0.437356
    126          1           0       -6.617776   -1.074954    0.099811
    127          1           0       -7.041855   -0.386867   -1.495866
    128          1           0       -7.368244    1.759632   -1.615453
    129          1           0       -7.239001    2.925445   -0.308706
    130          1           0       -9.327487    3.064768   -1.642353
    131          1           0       -9.443631    3.060215    0.170188
    132          1           0      -10.393566    0.688539   -0.284214
    133          1           0       -9.832077    0.812278   -1.937468
    134          1           0      -11.670766    3.090685   -1.379261
    135          1           0      -13.586155    2.274352   -0.409176
    136          1           0      -12.548528    0.919546    0.116381
    137          1           0      -13.569837    0.800587   -1.317662
    138          1           0      -12.335597    0.872379   -3.232705
    139          1           0      -11.044917    1.869441   -3.655851
    140          1           0      -12.726008    2.535409   -3.424007
 ---------------------------------------------------------------------

 SCF Done:  E(RCAM-B3LYP) =  -3007.16275059     A.U. after   17 cycles

 Excitation energies and oscillator strengths:

 Excited State   1:      Singlet-A      1.7277 eV  717.64 nm  f=0.3625  <S**2>=0.000
     245 -> 248        0.20148
     246 -> 247        0.67997
     245 <- 248        0.11082
 This state for optimization and/or second-order correction.
 Total Energy, E(TD-HF/TD-DFT) =  -3007.09926046
 Copying the excited state density for this state as the 1-particle RhoCI density.

 Excited State   2:      Singlet-A      2.2560 eV  549.59 nm  f=0.0536  <S**2>=0.000
     245 -> 247        0.60628
     246 -> 248       -0.35428

 Excited State   3:      Singlet-A      3.3429 eV  370.89 nm  f=0.3354  <S**2>=0.000
     242 -> 247       -0.11859
     244 -> 247        0.42803
     245 -> 247        0.24479
     246 -> 248        0.48071

 Excited State   4:      Singlet-A      3.4447 eV  359.93 nm  f=0.2896  <S**2>=0.000
     242 -> 247        0.23415
     244 -> 247        0.52433
     245 -> 247       -0.21024
     246 -> 248       -0.33103

 Excited State   5:      Singlet-A      3.6223 eV  342.28 nm  f=0.0227  <S**2>=0.000
     239 -> 247        0.26736
     239 -> 249       -0.14019
     239 -> 250       -0.11362
     240 -> 247        0.50450
     240 -> 249       -0.23984
     240 -> 250       -0.19628
     242 -> 247        0.11231

 The electronic state is 1-A.
 Alpha  occ. eigenvalues --  -46.89172 -19.26151 -19.24230 -19.20510 -19.20158
 Alpha  occ. eigenvalues --  -19.19720 -19.19084 -14.42642 -14.42364 -14.39817
 Alpha  occ. eigenvalues --  -14.39337 -10.40022 -10.39026 -10.35835 -10.35520
 Alpha  occ. eigenvalues --  -10.31946 -10.31812 -10.31629 -10.31413 -10.31364
 Alpha  occ. eigenvalues --  -10.31220 -10.31214 -10.29989 -10.29867 -10.29437
 Alpha  occ. eigenvalues --  -10.29235 -10.28904 -10.28829 -10.28418 -10.28412
 Alpha  occ. eigenvalues --  -10.28206 -10.28161 -10.28135 -10.28114 -10.28058
 Alpha  occ. eigenvalues --  -10.27346 -10.26999 -10.26986 -10.26873 -10.26820
 Alpha  occ. eigenvalues --  -10.26816 -10.26647 -10.26548 -10.26483 -10.26415
 Alpha  occ. eigenvalues --  -10.26063 -10.26007 -10.25967 -10.25965 -10.25457
 Alpha  occ. eigenvalues --  -10.25318 -10.25267 -10.25254 -10.25252 -10.25097
 Alpha  occ. eigenvalues --  -10.24824 -10.24703 -10.24536 -10.24506 -10.24477
 Alpha  occ. eigenvalues --  -10.24388 -10.24379 -10.24213 -10.24066 -10.24055
 Alpha  occ. eigenvalues --  -10.23794  -3.17654  -1.92556  -1.92110  -1.91953
 Alpha  occ. eigenvalues --   -1.16525  -1.16126  -1.11400  -1.08709  -1.08411
 Alpha  occ. eigenvalues --   -1.07474  -1.05808  -1.04902  -1.03026  -1.01262
 Alpha  occ. eigenvalues --   -0.93921  -0.90565  -0.90048  -0.89586  -0.88949
 Alpha  occ. eigenvalues --   -0.88680  -0.88277  -0.87851  -0.87501  -0.86809
 Alpha  occ. eigenvalues --   -0.85818  -0.85609  -0.84528  -0.84302  -0.83913
 Alpha  occ. eigenvalues --   -0.82424  -0.82246  -0.81456  -0.80838  -0.80552
 Alpha  occ. eigenvalues --   -0.80048  -0.78772  -0.77787  -0.77581  -0.76708
 Alpha  occ. eigenvalues --   -0.75868  -0.75404  -0.75328  -0.75059  -0.74243
 Alpha  occ. eigenvalues --   -0.73334  -0.72781  -0.72115  -0.71073  -0.69809
 Alpha  occ. eigenvalues --   -0.69112  -0.68285  -0.67155  -0.66953  -0.66414
 Alpha  occ. eigenvalues --   -0.65772  -0.64966  -0.64787  -0.64326  -0.63793
 Alpha  occ. eigenvalues --   -0.63571  -0.63145  -0.62859  -0.61945  -0.60684
 Alpha  occ. eigenvalues --   -0.60240  -0.59728  -0.59622  -0.59300  -0.58394
 Alpha  occ. eigenvalues --   -0.57896  -0.56705  -0.56401  -0.56305  -0.55863
 Alpha  occ. eigenvalues --   -0.55666  -0.54913  -0.54815  -0.54395  -0.54064
 Alpha  occ. eigenvalues --   -0.53826  -0.53576  -0.53306  -0.52981  -0.52757
 Alpha  occ. eigenvalues --   -0.52686  -0.52335  -0.52172  -0.51933  -0.51820
 Alpha  occ. eigenvalues --   -0.51560  -0.51387  -0.51240  -0.51038  -0.50860
 Alpha  occ. eigenvalues --   -0.50662  -0.50538  -0.50255  -0.50128  -0.49996
 Alpha  occ. eigenvalues --   -0.49760  -0.49447  -0.49202  -0.49069  -0.48914
 Alpha  occ. eigenvalues --   -0.48852  -0.48479  -0.48396  -0.48348  -0.47999
 Alpha  occ. eigenvalues --   -0.47929  -0.47466  -0.46991  -0.46843  -0.46773
 Alpha  occ. eigenvalues --   -0.46283  -0.46143  -0.46074  -0.45950  -0.45768
 Alpha  occ. eigenvalues --   -0.45566  -0.45412  -0.45006  -0.44876  -0.44807
 Alpha  occ. eigenvalues --   -0.44553  -0.44434  -0.44366  -0.44314  -0.44228
 Alpha  occ. eigenvalues --   -0.43944  -0.43849  -0.43543  -0.43278  -0.43162
 Alpha  occ. eigenvalues --   -0.43072  -0.42953  -0.42700  -0.42598  -0.42567
 Alpha  occ. eigenvalues --   -0.42182  -0.41643  -0.41447  -0.41221  -0.41138
 Alpha  occ. eigenvalues --   -0.40841  -0.40767  -0.40748  -0.40408  -0.39966
 Alpha  occ. eigenvalues --   -0.39790  -0.39687  -0.39668  -0.39212  -0.38988
 Alpha  occ. eigenvalues --   -0.38357  -0.38350  -0.38239  -0.37449  -0.37393
 Alpha  occ. eigenvalues --   -0.37382  -0.37013  -0.36728  -0.36649  -0.36434
 Alpha  occ. eigenvalues --   -0.35902  -0.35685  -0.35299  -0.35141  -0.34704
 Alpha  occ. eigenvalues --   -0.34556  -0.34504  -0.33263  -0.31716  -0.31561
 Alpha  occ. eigenvalues --   -0.31405  -0.30603  -0.29857  -0.29643  -0.24437
 Alpha  occ. eigenvalues --   -0.21222
 Alpha virt. eigenvalues --   -0.08557  -0.02652  -0.00032   0.01999   0.02505
 Alpha virt. eigenvalues --    0.03584   0.04751   0.05420   0.05977   0.06616
 Alpha virt. eigenvalues --    0.07502   0.08415   0.08634   0.08688   0.08816

 Mulliken charges:
               1
     1  Mg   0.838660
     2  C   -0.050052
     3  C   -0.024663
     4  C   -0.062379
     5  C   -0.075546
     6  N   -0.214249
     7  C   -0.031819
     8  C   -0.051090
     9  C   -0.032456
    10  C   -0.068468
    11  C    0.077919
    12  C    0.090127
    13  C    0.080739
    14  C    0.143619
    15  O   -0.179270
    16  O   -0.375442
    17  N   -0.416288
    18  C    0.155432
    19  C   -0.136644
    20  C   -0.003999
    21  C    0.158473
    22  C    0.117122
    23  C    0.008214
    24  O   -0.236727
    25  C    0.039818
    26  N   -0.329692
    27  C    0.037796
    28  C   -0.071957
    29  C   -0.038175
    30  C    0.108702
    31  C    0.050151
    32  C    0.023432
    33  C    0.014500
    34  N   -0.324668
    35  C    0.048242
    36  C   -0.158536
    37  C   -0.004123
    38  C    0.113409
    39  C    0.110485
    40  C    0.081543
    41  O   -0.135569
    42  C    0.028071
    43  C    0.190315
    44  O   -0.235961
    45  O   -0.338149
    46  C    0.186071
    47  C    0.274372
    48  C   -0.130989
    49  C   -0.137001
    50  C    0.088188
    51  C    0.048489
    52  C    0.009700
    53  C    0.060013
    54  C   -0.142123
    55  C    0.083247
    56  C    0.083713
    57  C   -0.013946
    58  C    0.036025
    59  C   -0.168775
    60  C    0.077537
    61  C    0.082370
    62  C   -0.029335
    63  C    0.034535
    64  C   -0.108324
    65  C    0.045444
    66  C    0.025105
    67  H   -0.035378
    68  H   -0.034791
    69  H   -0.047849
    70  H    0.004047
    71  H    0.019824
    72  H    0.030790
    73  H    0.020864
    74  H    0.015763
    75  H    0.010528
    76  H    0.020108
    77  H   -0.003279
    78  H    0.008107
    79  H    0.022709
    80  H    0.006047
    81  H    0.047520
    82  H    0.055627
    83  H    0.037406
    84  H    0.033338
    85  H    0.012976
    86  H    0.016484
    87  H    0.019868
    88  H    0.013597
    89  H    0.023648
    90  H    0.014158
    91  H    0.002868
    92  H    0.011173
    93  H    0.026869
    94  H    0.019444
    95  H    0.040634
    96  H    0.031349
    97  H    0.017456
    98  H    0.048656
    99  H    0.037546
   100  H    0.043682
   101  H    0.025437
   102  H    0.039680
   103  H    0.028219
   104  H    0.006580
   105  H    0.021830
   106  H   -0.004575
   107  H    0.033479
   108  H   -0.006998
   109  H   -0.010230
   110  H    0.011148
   111  H   -0.007106
   112  H   -0.014617
   113  H   -0.005672
   114  H   -0.006266
   115  H   -0.010074
   116  H    0.008024
   117  H    0.007625
   118  H   -0.009267
   119  H   -0.016416
   120  H   -0.007768
   121  H   -0.000947
   122  H   -0.020018
   123  H   -0.007229
   124  H   -0.008215
   125  H    0.010906
   126  H    0.006664
   127  H    0.007643
   128  H   -0.021176
   129  H   -0.012003
   130  H   -0.001672
   131  H    0.010075
   132  H   -0.000068
   133  H   -0.003282
   134  H    0.007483
   135  H    0.008737
   136  H    0.005483
   137  H    0.005222
   138  H   -0.006158
   139  H    0.008049
   140  H    0.010514
 Sum of Mulliken charges =  -0.00000

 Dipole moment (field-independent basis, Debye):
    X=             -1.2120    Y=              2.4757    Z=              1.8627  Tot=              3.3267
 Quadrupole moment (field-independent basis, Debye-Ang):
   XX=           -410.2924   YY=           -420.1185   ZZ=           -390.4268
   XY=             49.2306   XZ=              7.3592   YZ=             30.2209

 Normal termination of Gaussian 16 at Sat Apr 30 12:36:48 2022.
