 Gaussian 16, Revision A.03,
 Gaussian 16:  ES64L-G16RevA.03 25-Dec-2016

 ---------------------------------
 #p PBE1PBE/Def2SVP td=(nstates=5)
 ---------------------------------

 -----------------------------------------------------
 step_751_chromophore_17 TDDFT with PBE1PBE functional
 -----------------------------------------------------
 Symbolic Z-matrix:
 Charge =  0 Multiplicity = 1

                         Standard orientation:
 ---------------------------------------------------------------------
 Center     Atomic      Atomic             Coordinates (Angstroms)
 Number     Number       Type             X           Y           Z
 ---------------------------------------------------------------------
      1         12           0        3.787867    1.415545   -0.701149
      2          6           0        4.109852   -2.091172   -0.725473
      3          6           0        1.015938    1.083776   -2.786866
      4          6           0        3.054778    4.715290   -0.225650
      5          6           0        5.754328    1.367633    2.125354
      6          7           0        2.674937   -0.343125   -1.670347
      7          6           0        2.936310   -1.611028   -1.369056
      8          6           0        1.931148   -2.495503   -2.030849
      9          6           0        1.110041   -1.570801   -3.025113
     10          6           0        1.636661   -0.186360   -2.493763
     11          6           0        1.437125   -1.672384   -4.568919
     12          6           0        1.063623   -3.296891   -1.023120
     13          6           0        0.294868   -4.523839   -1.613161
     14          6           0       -0.577148   -5.347751   -0.774436
     15          8           0       -0.349224   -6.382150   -0.234184
     16          8           0       -1.755818   -4.605174   -0.627379
     17          7           0        2.481126    2.776392   -1.626289
     18          6           0        1.343325    2.436132   -2.387065
     19          6           0        0.689606    3.643251   -2.805014
     20          6           0        1.288592    4.725194   -2.186745
     21          6           0        2.286617    4.158558   -1.323389
     22          6           0       -0.508148    3.605057   -3.787374
     23          6           0        0.901982    6.203381   -2.351826
     24          8           0       -0.123523    6.477907   -3.027204
     25          6           0        1.734144    7.320885   -1.755493
     26          7           0        4.334894    2.807796    0.738891
     27          6           0        3.919978    4.108203    0.702383
     28          6           0        4.694029    4.989621    1.773484
     29          6           0        5.596469    3.950931    2.520229
     30          6           0        5.221130    2.614325    1.776873
     31          6           0        5.470142    6.180898    1.133050
     32          6           0        5.332168    3.842341    4.072131
     33          6           0        6.543122    3.397310    4.919413
     34          7           0        4.981891    0.024372    0.311542
     35          6           0        5.713025    0.150003    1.428416
     36          6           0        6.458677   -1.052525    1.680970
     37          6           0        5.884590   -1.962537    0.838632
     38          6           0        4.933574   -1.293850    0.020116
     39          6           0        7.498267   -1.310817    2.718013
     40          6           0        5.880552   -3.353309    0.435507
     41          8           0        6.610865   -4.231809    0.818136
     42          6           0        4.607415   -3.527571   -0.461983
     43          6           0        4.813079   -4.250208   -1.704581
     44          8           0        5.756249   -3.957598   -2.456930
     45          8           0        3.912403   -5.277209   -2.012737
     46          6           0        4.184702   -5.953376   -3.273974
     47          6           0       -2.791908   -5.302477    0.144786
     48          6           0       -3.536910   -4.185004    0.853881
     49          6           0       -4.414286   -4.352833    1.839814
     50          6           0       -4.691779   -5.612156    2.578289
     51          6           0       -4.949423   -3.033067    2.532696
     52          6           0       -3.901737   -2.425718    3.557155
     53          6           0       -3.857465   -0.903823    3.709575
     54          6           0       -5.024204   -0.244206    4.394596
     55          6           0       -4.814025   -0.056494    5.877226
     56          6           0       -5.527266    1.079420    3.656934
     57          6           0       -6.674841    0.843094    2.655501
     58          6           0       -6.321469    1.113346    1.212653
     59          6           0       -7.502688    0.883866    0.250401
     60          6           0       -7.353627   -0.495003   -0.456402
     61          6           0       -7.798299    2.058021   -0.659617
     62          6           0       -9.270963    2.471339   -0.730157
     63          6           0      -10.335538    1.359362   -1.140795
     64          6           0      -11.719487    2.012499   -1.533530
     65          6           0      -12.930361    1.470696   -0.743423
     66          6           0      -11.947190    1.873720   -3.045014
     67          1           0        0.180679    0.942938   -3.475914
     68          1           0        2.934637    5.741630    0.127865
     69          1           0        6.406644    1.195927    2.985065
     70          1           0        2.566541   -3.209248   -2.555361
     71          1           0        0.055696   -1.619907   -2.753306
     72          1           0        2.015075   -2.537328   -4.893733
     73          1           0        1.967460   -0.765259   -4.858082
     74          1           0        0.533191   -1.536838   -5.163094
     75          1           0        0.267374   -2.585717   -0.802172
     76          1           0        1.622312   -3.561168   -0.124596
     77          1           0        1.007659   -5.189221   -2.101206
     78          1           0       -0.239107   -4.337132   -2.545641
     79          1           0       -1.382712    3.546330   -3.138954
     80          1           0       -0.744447    2.759645   -4.434079
     81          1           0       -0.444598    4.520009   -4.377546
     82          1           0        1.448870    7.586955   -0.738193
     83          1           0        1.480705    8.102074   -2.472356
     84          1           0        2.810912    7.154289   -1.794638
     85          1           0        4.094621    5.488780    2.534504
     86          1           0        6.650269    4.189479    2.372681
     87          1           0        6.549325    6.162973    1.283009
     88          1           0        5.062484    7.086756    1.582314
     89          1           0        5.241696    6.165907    0.066709
     90          1           0        4.473432    3.198320    4.258950
     91          1           0        5.007141    4.856750    4.305577
     92          1           0        7.332129    3.269131    4.178198
     93          1           0        6.410352    2.447381    5.437272
     94          1           0        6.888658    4.151891    5.625355
     95          1           0        8.125625   -2.175482    2.500733
     96          1           0        6.958221   -1.472720    3.651435
     97          1           0        8.203522   -0.500225    2.906085
     98          1           0        3.887291   -4.029250    0.184844
     99          1           0        3.331507   -6.595833   -3.491482
    100          1           0        5.137839   -6.481736   -3.265587
    101          1           0        4.269477   -5.302382   -4.144243
    102          1           0       -2.438768   -5.992621    0.910549
    103          1           0       -3.418698   -5.849316   -0.560435
    104          1           0       -3.351631   -3.217029    0.387936
    105          1           0       -4.299682   -5.453193    3.583152
    106          1           0       -4.073150   -6.436541    2.225118
    107          1           0       -5.729005   -5.946845    2.567877
    108          1           0       -5.914795   -3.249055    2.989536
    109          1           0       -5.231468   -2.214722    1.870048
    110          1           0       -2.874193   -2.771441    3.441988
    111          1           0       -4.340312   -2.787546    4.486663
    112          1           0       -3.891387   -0.451181    2.718498
    113          1           0       -2.844631   -0.726742    4.073325
    114          1           0       -5.833466   -0.974174    4.364272
    115          1           0       -5.214820   -0.978520    6.299952
    116          1           0       -5.443910    0.687311    6.363698
    117          1           0       -3.741286   -0.035871    6.070963
    118          1           0       -4.761141    1.557404    3.046651
    119          1           0       -5.737003    1.836697    4.411853
    120          1           0       -7.447161    1.582205    2.868711
    121          1           0       -7.098024   -0.159979    2.601364
    122          1           0       -5.582536    0.327120    1.061188
    123          1           0       -5.909789    2.115519    1.086072
    124          1           0       -8.361232    0.885103    0.922160
    125          1           0       -8.345476   -0.946770   -0.437356
    126          1           0       -6.617776   -1.074954    0.099811
    127          1           0       -7.041855   -0.386867   -1.495866
    128          1           0       -7.368244    1.759632   -1.615453
    129          1           0       -7.239001    2.925445   -0.308706
    130          1           0       -9.327487    3.064768   -1.642353
    131          1           0       -9.443631    3.060215    0.170188
    132          1           0      -10.393566    0.688539   -0.284214
    133          1           0       -9.832077    0.812278   -1.937468
    134          1           0      -11.670766    3.090685   -1.379261
    135          1           0      -13.586155    2.274352   -0.409176
    136          1           0      -12.548528    0.919546    0.116381
    137          1           0      -13.569837    0.800587   -1.317662
    138          1           0      -12.335597    0.872379   -3.232705
    139          1           0      -11.044917    1.869441   -3.655851
    140          1           0      -12.726008    2.535409   -3.424007
 ---------------------------------------------------------------------

 SCF Done:  E(RPBE1PBE) =  -3005.35077376     A.U. after   15 cycles

 Excitation energies and oscillator strengths:

 Excited State   1:      Singlet-A      1.8816 eV  658.95 nm  f=0.3531  <S**2>=0.000
     245 -> 248        0.19437
     246 -> 247        0.68661
 This state for optimization and/or second-order correction.
 Total Energy, E(TD-HF/TD-DFT) =  -3005.28162796
 Copying the excited state density for this state as the 1-particle RhoCI density.

 Excited State   2:      Singlet-A      2.2526 eV  550.41 nm  f=0.0578  <S**2>=0.000
     245 -> 247        0.62462
     246 -> 248       -0.32100

 Excited State   3:      Singlet-A      3.0284 eV  409.41 nm  f=0.0076  <S**2>=0.000
     243 -> 247        0.66873
     246 -> 248        0.18149

 Excited State   4:      Singlet-A      3.1626 eV  392.04 nm  f=0.0234  <S**2>=0.000
     240 -> 247        0.46657
     240 -> 249       -0.12107
     241 -> 247        0.40449
     242 -> 247       -0.18677
     246 -> 248       -0.16875

 Excited State   5:      Singlet-A      3.1998 eV  387.48 nm  f=0.2397  <S**2>=0.000
     240 -> 247        0.29023
     242 -> 247        0.31419
     243 -> 247       -0.15902
     245 -> 247        0.21217
     246 -> 248        0.45933
     246 -> 249       -0.12306

 The electronic state is 1-A.
 Alpha  occ. eigenvalues --  -46.92589 -19.26705 -19.24950 -19.20724 -19.20294
 Alpha  occ. eigenvalues --  -19.19799 -19.19403 -14.42020 -14.41997 -14.39587
 Alpha  occ. eigenvalues --  -14.38918 -10.36942 -10.35998 -10.33085 -10.32535
 Alpha  occ. eigenvalues --  -10.29512 -10.29409 -10.29215 -10.29125 -10.29101
 Alpha  occ. eigenvalues --  -10.28983 -10.28620 -10.27861 -10.27426 -10.27079
 Alpha  occ. eigenvalues --  -10.26934 -10.26577 -10.26444 -10.26284 -10.26274
 Alpha  occ. eigenvalues --  -10.25930 -10.25884 -10.25813 -10.25734 -10.25662
 Alpha  occ. eigenvalues --  -10.25153 -10.24694 -10.24643 -10.24476 -10.24458
 Alpha  occ. eigenvalues --  -10.24345 -10.24326 -10.23951 -10.23899 -10.23857
 Alpha  occ. eigenvalues --  -10.23642 -10.23543 -10.23510 -10.23372 -10.23001
 Alpha  occ. eigenvalues --  -10.22987 -10.22849 -10.22823 -10.22809 -10.22626
 Alpha  occ. eigenvalues --  -10.22382 -10.22284 -10.22242 -10.22025 -10.21916
 Alpha  occ. eigenvalues --  -10.21912 -10.21763 -10.21623 -10.21599 -10.21437
 Alpha  occ. eigenvalues --  -10.21363  -3.14651  -1.87493  -1.87026  -1.86872
 Alpha  occ. eigenvalues --   -1.11303  -1.10790  -1.06034  -1.03584  -1.03199
 Alpha  occ. eigenvalues --   -1.02190  -1.00407  -0.99533  -0.97666  -0.95995
 Alpha  occ. eigenvalues --   -0.88188  -0.84659  -0.84204  -0.83733  -0.83225
 Alpha  occ. eigenvalues --   -0.82816  -0.82606  -0.82153  -0.81605  -0.81123
 Alpha  occ. eigenvalues --   -0.80259  -0.79859  -0.78758  -0.78495  -0.78171
 Alpha  occ. eigenvalues --   -0.76630  -0.76450  -0.75691  -0.75196  -0.74780
 Alpha  occ. eigenvalues --   -0.74215  -0.73012  -0.72122  -0.71860  -0.71005
 Alpha  occ. eigenvalues --   -0.70042  -0.69748  -0.69421  -0.69170  -0.68433
 Alpha  occ. eigenvalues --   -0.67717  -0.67158  -0.66588  -0.65362  -0.64231
 Alpha  occ. eigenvalues --   -0.63495  -0.62508  -0.61631  -0.61158  -0.60903
 Alpha  occ. eigenvalues --   -0.60168  -0.59533  -0.59345  -0.58467  -0.58236
 Alpha  occ. eigenvalues --   -0.57770  -0.57661  -0.57046  -0.56124  -0.55118
 Alpha  occ. eigenvalues --   -0.54692  -0.54253  -0.54229  -0.53734  -0.52965
 Alpha  occ. eigenvalues --   -0.52542  -0.51302  -0.50920  -0.50713  -0.50366
 Alpha  occ. eigenvalues --   -0.50252  -0.49299  -0.49200  -0.48918  -0.48564
 Alpha  occ. eigenvalues --   -0.48392  -0.47967  -0.47919  -0.47457  -0.47291
 Alpha  occ. eigenvalues --   -0.47133  -0.46880  -0.46712  -0.46389  -0.46331
 Alpha  occ. eigenvalues --   -0.46146  -0.45935  -0.45745  -0.45656  -0.45373
 Alpha  occ. eigenvalues --   -0.45232  -0.45107  -0.44791  -0.44679  -0.44596
 Alpha  occ. eigenvalues --   -0.44262  -0.44004  -0.43792  -0.43675  -0.43568
 Alpha  occ. eigenvalues --   -0.43457  -0.43173  -0.43060  -0.42989  -0.42619
 Alpha  occ. eigenvalues --   -0.42563  -0.42139  -0.41672  -0.41561  -0.41456
 Alpha  occ. eigenvalues --   -0.41013  -0.40932  -0.40715  -0.40655  -0.40500
 Alpha  occ. eigenvalues --   -0.40170  -0.40029  -0.39768  -0.39641  -0.39506
 Alpha  occ. eigenvalues --   -0.39273  -0.39233  -0.39133  -0.39059  -0.39021
 Alpha  occ. eigenvalues --   -0.38713  -0.38623  -0.38244  -0.38054  -0.37913
 Alpha  occ. eigenvalues --   -0.37800  -0.37724  -0.37503  -0.37459  -0.37343
 Alpha  occ. eigenvalues --   -0.37097  -0.36402  -0.36332  -0.36146  -0.36008
 Alpha  occ. eigenvalues --   -0.35738  -0.35676  -0.35491  -0.35138  -0.34936
 Alpha  occ. eigenvalues --   -0.34665  -0.34647  -0.34491  -0.34013  -0.33757
 Alpha  occ. eigenvalues --   -0.33346  -0.33122  -0.33046  -0.32366  -0.32317
 Alpha  occ. eigenvalues --   -0.32261  -0.32077  -0.31640  -0.31530  -0.31285
 Alpha  occ. eigenvalues --   -0.30777  -0.30557  -0.30467  -0.30000  -0.29472
 Alpha  occ. eigenvalues --   -0.29440  -0.29386  -0.28792  -0.27328  -0.26365
 Alpha  occ. eigenvalues --   -0.26327  -0.26081  -0.25257  -0.25115  -0.21333
 Alpha  occ. eigenvalues --   -0.18895
 Alpha virt. eigenvalues --   -0.11115  -0.06085  -0.04312  -0.02419  -0.01041
 Alpha virt. eigenvalues --   -0.00220   0.00247   0.01132   0.01595   0.02893
 Alpha virt. eigenvalues --    0.03382   0.04478   0.05156   0.05375   0.05583

 Mulliken charges:
               1
     1  Mg   0.984596
     2  C   -0.047289
     3  C   -0.026561
     4  C   -0.066767
     5  C   -0.067569
     6  N   -0.322580
     7  C    0.052175
     8  C   -0.132221
     9  C   -0.110034
    10  C   -0.024578
    11  C    0.023030
    12  C    0.035114
    13  C    0.005966
    14  C    0.210570
    15  O   -0.215588
    16  O   -0.403743
    17  N   -0.515884
    18  C    0.177710
    19  C   -0.167626
    20  C   -0.047792
    21  C    0.175932
    22  C    0.062481
    23  C    0.058822
    24  O   -0.269125
    25  C   -0.031418
    26  N   -0.433031
    27  C    0.075135
    28  C   -0.145787
    29  C   -0.108881
    30  C    0.142415
    31  C   -0.007766
    32  C   -0.035091
    33  C   -0.059224
    34  N   -0.453184
    35  C    0.068947
    36  C   -0.178696
    37  C   -0.064043
    38  C    0.161897
    39  C    0.057290
    40  C    0.194787
    41  O   -0.184575
    42  C   -0.095204
    43  C    0.278542
    44  O   -0.268453
    45  O   -0.371670
    46  C    0.129100
    47  C    0.236042
    48  C   -0.138293
    49  C   -0.185902
    50  C    0.023129
    51  C   -0.022599
    52  C   -0.053099
    53  C    0.004930
    54  C   -0.230855
    55  C    0.024733
    56  C    0.028537
    57  C   -0.080426
    58  C   -0.023750
    59  C   -0.251752
    60  C    0.009290
    61  C    0.033841
    62  C   -0.103508
    63  C   -0.016889
    64  C   -0.202290
    65  C   -0.013402
    66  C   -0.035211
    67  H   -0.002675
    68  H    0.001314
    69  H   -0.009887
    70  H    0.051758
    71  H    0.054907
    72  H    0.057178
    73  H    0.048851
    74  H    0.043163
    75  H    0.044925
    76  H    0.053883
    77  H    0.032667
    78  H    0.039729
    79  H    0.052136
    80  H    0.032503
    81  H    0.074392
    82  H    0.081133
    83  H    0.064737
    84  H    0.059772
    85  H    0.048720
    86  H    0.052490
    87  H    0.046933
    88  H    0.040821
    89  H    0.052089
    90  H    0.046679
    91  H    0.036692
    92  H    0.037896
    93  H    0.053678
    94  H    0.047725
    95  H    0.067408
    96  H    0.059548
    97  H    0.043506
    98  H    0.086221
    99  H    0.058582
   100  H    0.066205
   101  H    0.047041
   102  H    0.065205
   103  H    0.055953
   104  H    0.035444
   105  H    0.050285
   106  H    0.023438
   107  H    0.060620
   108  H    0.024478
   109  H    0.031967
   110  H    0.042401
   111  H    0.028326
   112  H    0.021569
   113  H    0.026342
   114  H    0.034009
   115  H    0.018192
   116  H    0.035087
   117  H    0.035109
   118  H    0.023676
   119  H    0.015753
   120  H    0.027088
   121  H    0.031595
   122  H    0.017641
   123  H    0.024174
   124  H    0.032158
   125  H    0.038884
   126  H    0.039859
   127  H    0.034124
   128  H    0.011463
   129  H    0.021040
   130  H    0.034363
   131  H    0.042010
   132  H    0.031921
   133  H    0.029181
   134  H    0.044455
   135  H    0.036252
   136  H    0.032870
   137  H    0.031593
   138  H    0.022217
   139  H    0.035295
   140  H    0.038587
 Sum of Mulliken charges =  -0.00000

 Dipole moment (field-independent basis, Debye):
    X=             -1.2987    Y=              2.7239    Z=              1.8852  Tot=              3.5581
 Quadrupole moment (field-independent basis, Debye-Ang):
   XX=           -407.3990   YY=           -416.7357   ZZ=           -386.4978
   XY=             50.6198   XZ=              8.4873   YZ=             30.6245

 Normal termination of Gaussian 16 at Sat Apr 30 12:58:31 2022.
