 Gaussian 16, Revision A.03,
 Gaussian 16:  ES64L-G16RevA.03 25-Dec-2016

 --------------------------------
 #p wB97XD/Def2SVP td=(nstates=5)
 --------------------------------

 ----------------------------------------------------
 step_751_chromophore_17 TDDFT with wB97XD functional
 ----------------------------------------------------
 Symbolic Z-matrix:
 Charge =  0 Multiplicity = 1

                         Standard orientation:
 ---------------------------------------------------------------------
 Center     Atomic      Atomic             Coordinates (Angstroms)
 Number     Number       Type             X           Y           Z
 ---------------------------------------------------------------------
      1         12           0        3.787867    1.415545   -0.701149
      2          6           0        4.109852   -2.091172   -0.725473
      3          6           0        1.015938    1.083776   -2.786866
      4          6           0        3.054778    4.715290   -0.225650
      5          6           0        5.754328    1.367633    2.125354
      6          7           0        2.674937   -0.343125   -1.670347
      7          6           0        2.936310   -1.611028   -1.369056
      8          6           0        1.931148   -2.495503   -2.030849
      9          6           0        1.110041   -1.570801   -3.025113
     10          6           0        1.636661   -0.186360   -2.493763
     11          6           0        1.437125   -1.672384   -4.568919
     12          6           0        1.063623   -3.296891   -1.023120
     13          6           0        0.294868   -4.523839   -1.613161
     14          6           0       -0.577148   -5.347751   -0.774436
     15          8           0       -0.349224   -6.382150   -0.234184
     16          8           0       -1.755818   -4.605174   -0.627379
     17          7           0        2.481126    2.776392   -1.626289
     18          6           0        1.343325    2.436132   -2.387065
     19          6           0        0.689606    3.643251   -2.805014
     20          6           0        1.288592    4.725194   -2.186745
     21          6           0        2.286617    4.158558   -1.323389
     22          6           0       -0.508148    3.605057   -3.787374
     23          6           0        0.901982    6.203381   -2.351826
     24          8           0       -0.123523    6.477907   -3.027204
     25          6           0        1.734144    7.320885   -1.755493
     26          7           0        4.334894    2.807796    0.738891
     27          6           0        3.919978    4.108203    0.702383
     28          6           0        4.694029    4.989621    1.773484
     29          6           0        5.596469    3.950931    2.520229
     30          6           0        5.221130    2.614325    1.776873
     31          6           0        5.470142    6.180898    1.133050
     32          6           0        5.332168    3.842341    4.072131
     33          6           0        6.543122    3.397310    4.919413
     34          7           0        4.981891    0.024372    0.311542
     35          6           0        5.713025    0.150003    1.428416
     36          6           0        6.458677   -1.052525    1.680970
     37          6           0        5.884590   -1.962537    0.838632
     38          6           0        4.933574   -1.293850    0.020116
     39          6           0        7.498267   -1.310817    2.718013
     40          6           0        5.880552   -3.353309    0.435507
     41          8           0        6.610865   -4.231809    0.818136
     42          6           0        4.607415   -3.527571   -0.461983
     43          6           0        4.813079   -4.250208   -1.704581
     44          8           0        5.756249   -3.957598   -2.456930
     45          8           0        3.912403   -5.277209   -2.012737
     46          6           0        4.184702   -5.953376   -3.273974
     47          6           0       -2.791908   -5.302477    0.144786
     48          6           0       -3.536910   -4.185004    0.853881
     49          6           0       -4.414286   -4.352833    1.839814
     50          6           0       -4.691779   -5.612156    2.578289
     51          6           0       -4.949423   -3.033067    2.532696
     52          6           0       -3.901737   -2.425718    3.557155
     53          6           0       -3.857465   -0.903823    3.709575
     54          6           0       -5.024204   -0.244206    4.394596
     55          6           0       -4.814025   -0.056494    5.877226
     56          6           0       -5.527266    1.079420    3.656934
     57          6           0       -6.674841    0.843094    2.655501
     58          6           0       -6.321469    1.113346    1.212653
     59          6           0       -7.502688    0.883866    0.250401
     60          6           0       -7.353627   -0.495003   -0.456402
     61          6           0       -7.798299    2.058021   -0.659617
     62          6           0       -9.270963    2.471339   -0.730157
     63          6           0      -10.335538    1.359362   -1.140795
     64          6           0      -11.719487    2.012499   -1.533530
     65          6           0      -12.930361    1.470696   -0.743423
     66          6           0      -11.947190    1.873720   -3.045014
     67          1           0        0.180679    0.942938   -3.475914
     68          1           0        2.934637    5.741630    0.127865
     69          1           0        6.406644    1.195927    2.985065
     70          1           0        2.566541   -3.209248   -2.555361
     71          1           0        0.055696   -1.619907   -2.753306
     72          1           0        2.015075   -2.537328   -4.893733
     73          1           0        1.967460   -0.765259   -4.858082
     74          1           0        0.533191   -1.536838   -5.163094
     75          1           0        0.267374   -2.585717   -0.802172
     76          1           0        1.622312   -3.561168   -0.124596
     77          1           0        1.007659   -5.189221   -2.101206
     78          1           0       -0.239107   -4.337132   -2.545641
     79          1           0       -1.382712    3.546330   -3.138954
     80          1           0       -0.744447    2.759645   -4.434079
     81          1           0       -0.444598    4.520009   -4.377546
     82          1           0        1.448870    7.586955   -0.738193
     83          1           0        1.480705    8.102074   -2.472356
     84          1           0        2.810912    7.154289   -1.794638
     85          1           0        4.094621    5.488780    2.534504
     86          1           0        6.650269    4.189479    2.372681
     87          1           0        6.549325    6.162973    1.283009
     88          1           0        5.062484    7.086756    1.582314
     89          1           0        5.241696    6.165907    0.066709
     90          1           0        4.473432    3.198320    4.258950
     91          1           0        5.007141    4.856750    4.305577
     92          1           0        7.332129    3.269131    4.178198
     93          1           0        6.410352    2.447381    5.437272
     94          1           0        6.888658    4.151891    5.625355
     95          1           0        8.125625   -2.175482    2.500733
     96          1           0        6.958221   -1.472720    3.651435
     97          1           0        8.203522   -0.500225    2.906085
     98          1           0        3.887291   -4.029250    0.184844
     99          1           0        3.331507   -6.595833   -3.491482
    100          1           0        5.137839   -6.481736   -3.265587
    101          1           0        4.269477   -5.302382   -4.144243
    102          1           0       -2.438768   -5.992621    0.910549
    103          1           0       -3.418698   -5.849316   -0.560435
    104          1           0       -3.351631   -3.217029    0.387936
    105          1           0       -4.299682   -5.453193    3.583152
    106          1           0       -4.073150   -6.436541    2.225118
    107          1           0       -5.729005   -5.946845    2.567877
    108          1           0       -5.914795   -3.249055    2.989536
    109          1           0       -5.231468   -2.214722    1.870048
    110          1           0       -2.874193   -2.771441    3.441988
    111          1           0       -4.340312   -2.787546    4.486663
    112          1           0       -3.891387   -0.451181    2.718498
    113          1           0       -2.844631   -0.726742    4.073325
    114          1           0       -5.833466   -0.974174    4.364272
    115          1           0       -5.214820   -0.978520    6.299952
    116          1           0       -5.443910    0.687311    6.363698
    117          1           0       -3.741286   -0.035871    6.070963
    118          1           0       -4.761141    1.557404    3.046651
    119          1           0       -5.737003    1.836697    4.411853
    120          1           0       -7.447161    1.582205    2.868711
    121          1           0       -7.098024   -0.159979    2.601364
    122          1           0       -5.582536    0.327120    1.061188
    123          1           0       -5.909789    2.115519    1.086072
    124          1           0       -8.361232    0.885103    0.922160
    125          1           0       -8.345476   -0.946770   -0.437356
    126          1           0       -6.617776   -1.074954    0.099811
    127          1           0       -7.041855   -0.386867   -1.495866
    128          1           0       -7.368244    1.759632   -1.615453
    129          1           0       -7.239001    2.925445   -0.308706
    130          1           0       -9.327487    3.064768   -1.642353
    131          1           0       -9.443631    3.060215    0.170188
    132          1           0      -10.393566    0.688539   -0.284214
    133          1           0       -9.832077    0.812278   -1.937468
    134          1           0      -11.670766    3.090685   -1.379261
    135          1           0      -13.586155    2.274352   -0.409176
    136          1           0      -12.548528    0.919546    0.116381
    137          1           0      -13.569837    0.800587   -1.317662
    138          1           0      -12.335597    0.872379   -3.232705
    139          1           0      -11.044917    1.869441   -3.655851
    140          1           0      -12.726008    2.535409   -3.424007
 ---------------------------------------------------------------------

 SCF Done:  E(RwB97XD) =  -3007.86134774     A.U. after   17 cycles

 Excitation energies and oscillator strengths:

 Excited State   1:      Singlet-A      1.6682 eV  743.21 nm  f=0.3603  <S**2>=0.000
     245 -> 248        0.20696
     246 -> 247        0.67793
     245 <- 248        0.12033
 This state for optimization and/or second-order correction.
 Total Energy, E(TD-HF/TD-DFT) =  -3007.80004152
 Copying the excited state density for this state as the 1-particle RhoCI density.

 Excited State   2:      Singlet-A      2.2029 eV  562.81 nm  f=0.0529  <S**2>=0.000
     245 -> 247        0.60563
     246 -> 248       -0.35423

 Excited State   3:      Singlet-A      3.3532 eV  369.75 nm  f=0.3782  <S**2>=0.000
     242 -> 247       -0.12557
     244 -> 247        0.39441
     245 -> 247        0.25368
     246 -> 248        0.50065

 Excited State   4:      Singlet-A      3.4593 eV  358.40 nm  f=0.2347  <S**2>=0.000
     242 -> 247        0.26350
     244 -> 247        0.53381
     245 -> 247       -0.18727
     246 -> 248       -0.29154

 Excited State   5:      Singlet-A      3.6374 eV  340.86 nm  f=0.0321  <S**2>=0.000
     239 -> 247       -0.10184
     240 -> 247        0.54497
     240 -> 249       -0.28861
     240 -> 250       -0.22420
     242 -> 247        0.12574

 The electronic state is 1-A.
 Alpha  occ. eigenvalues --  -46.95519 -19.31383 -19.29503 -19.25431 -19.25128
 Alpha  occ. eigenvalues --  -19.24807 -19.24102 -14.47224 -14.46949 -14.44460
 Alpha  occ. eigenvalues --  -14.43949 -10.43893 -10.42812 -10.39806 -10.39571
 Alpha  occ. eigenvalues --  -10.35874 -10.35706 -10.35664 -10.35421 -10.35377
 Alpha  occ. eigenvalues --  -10.35273 -10.35112 -10.34016 -10.33905 -10.33506
 Alpha  occ. eigenvalues --  -10.33304 -10.33068 -10.32858 -10.32478 -10.32460
 Alpha  occ. eigenvalues --  -10.32306 -10.32224 -10.32201 -10.32192 -10.32166
 Alpha  occ. eigenvalues --  -10.31398 -10.30940 -10.30914 -10.30894 -10.30807
 Alpha  occ. eigenvalues --  -10.30686 -10.30669 -10.30406 -10.30390 -10.30287
 Alpha  occ. eigenvalues --  -10.29922 -10.29919 -10.29901 -10.29828 -10.29374
 Alpha  occ. eigenvalues --  -10.29334 -10.29280 -10.29206 -10.29173 -10.29016
 Alpha  occ. eigenvalues --  -10.28735 -10.28629 -10.28501 -10.28386 -10.28333
 Alpha  occ. eigenvalues --  -10.28279 -10.28182 -10.28028 -10.27974 -10.27863
 Alpha  occ. eigenvalues --  -10.27710  -3.21449  -1.95038  -1.94572  -1.94417
 Alpha  occ. eigenvalues --   -1.18687  -1.18307  -1.13680  -1.10931  -1.10602
 Alpha  occ. eigenvalues --   -1.09689  -1.07840  -1.06947  -1.05026  -1.03299
 Alpha  occ. eigenvalues --   -0.95935  -0.92322  -0.91861  -0.91387  -0.90802
 Alpha  occ. eigenvalues --   -0.90473  -0.90219  -0.89800  -0.89262  -0.88747
 Alpha  occ. eigenvalues --   -0.87784  -0.87498  -0.86424  -0.86148  -0.85799
 Alpha  occ. eigenvalues --   -0.84285  -0.84125  -0.83367  -0.82801  -0.82446
 Alpha  occ. eigenvalues --   -0.81872  -0.80689  -0.79730  -0.79520  -0.78630
 Alpha  occ. eigenvalues --   -0.77706  -0.77350  -0.77113  -0.76855  -0.76077
 Alpha  occ. eigenvalues --   -0.75288  -0.74745  -0.74107  -0.72983  -0.71803
 Alpha  occ. eigenvalues --   -0.71056  -0.70140  -0.69131  -0.68801  -0.68386
 Alpha  occ. eigenvalues --   -0.67697  -0.66978  -0.66800  -0.66132  -0.65751
 Alpha  occ. eigenvalues --   -0.65403  -0.65149  -0.64683  -0.63756  -0.62632
 Alpha  occ. eigenvalues --   -0.62189  -0.61726  -0.61615  -0.61278  -0.60373
 Alpha  occ. eigenvalues --   -0.59905  -0.58680  -0.58354  -0.58230  -0.57811
 Alpha  occ. eigenvalues --   -0.57645  -0.56817  -0.56667  -0.56326  -0.55984
 Alpha  occ. eigenvalues --   -0.55778  -0.55422  -0.55278  -0.54865  -0.54702
 Alpha  occ. eigenvalues --   -0.54540  -0.54288  -0.54095  -0.53836  -0.53710
 Alpha  occ. eigenvalues --   -0.53469  -0.53300  -0.53115  -0.52939  -0.52736
 Alpha  occ. eigenvalues --   -0.52582  -0.52438  -0.52179  -0.52047  -0.51973
 Alpha  occ. eigenvalues --   -0.51618  -0.51355  -0.51110  -0.50959  -0.50833
 Alpha  occ. eigenvalues --   -0.50753  -0.50413  -0.50302  -0.50243  -0.49869
 Alpha  occ. eigenvalues --   -0.49827  -0.49420  -0.48955  -0.48732  -0.48679
 Alpha  occ. eigenvalues --   -0.48247  -0.48086  -0.47936  -0.47884  -0.47703
 Alpha  occ. eigenvalues --   -0.47512  -0.47267  -0.46980  -0.46792  -0.46671
 Alpha  occ. eigenvalues --   -0.46414  -0.46329  -0.46303  -0.46214  -0.46178
 Alpha  occ. eigenvalues --   -0.45842  -0.45756  -0.45416  -0.45222  -0.45086
 Alpha  occ. eigenvalues --   -0.45010  -0.44894  -0.44616  -0.44492  -0.44460
 Alpha  occ. eigenvalues --   -0.44111  -0.43505  -0.43446  -0.43146  -0.43041
 Alpha  occ. eigenvalues --   -0.42731  -0.42654  -0.42606  -0.42246  -0.41881
 Alpha  occ. eigenvalues --   -0.41684  -0.41577  -0.41549  -0.41065  -0.40816
 Alpha  occ. eigenvalues --   -0.40306  -0.40180  -0.40076  -0.39463  -0.39380
 Alpha  occ. eigenvalues --   -0.39237  -0.38938  -0.38739  -0.38547  -0.38302
 Alpha  occ. eigenvalues --   -0.37789  -0.37515  -0.37313  -0.36973  -0.36645
 Alpha  occ. eigenvalues --   -0.36478  -0.36334  -0.35514  -0.33919  -0.33599
 Alpha  occ. eigenvalues --   -0.33329  -0.32782  -0.31877  -0.31793  -0.26371
 Alpha  occ. eigenvalues --   -0.23028
 Alpha virt. eigenvalues --   -0.06906  -0.00749   0.02028   0.04093   0.05552
 Alpha virt. eigenvalues --    0.05826   0.06995   0.07848   0.08322   0.09359
 Alpha virt. eigenvalues --    0.09896   0.11244   0.11853   0.11960   0.12351

 Mulliken charges:
               1
     1  Mg   0.975789
     2  C   -0.056885
     3  C   -0.036336
     4  C   -0.079392
     5  C   -0.083704
     6  N   -0.282354
     7  C    0.014857
     8  C   -0.093757
     9  C   -0.086128
    10  C   -0.043043
    11  C    0.032565
    12  C    0.049170
    13  C    0.021434
    14  C    0.204166
    15  O   -0.213655
    16  O   -0.403557
    17  N   -0.492577
    18  C    0.168458
    19  C   -0.156119
    20  C   -0.045230
    21  C    0.177420
    22  C    0.072952
    23  C    0.053281
    24  O   -0.265184
    25  C   -0.021328
    26  N   -0.403642
    27  C    0.064394
    28  C   -0.122272
    29  C   -0.083139
    30  C    0.134013
    31  C    0.004922
    32  C   -0.022281
    33  C   -0.042775
    34  N   -0.414923
    35  C    0.063191
    36  C   -0.172326
    37  C   -0.052811
    38  C    0.145833
    39  C    0.065429
    40  C    0.167556
    41  O   -0.173099
    42  C   -0.051646
    43  C    0.259018
    44  O   -0.263715
    45  O   -0.369329
    46  C    0.143201
    47  C    0.247652
    48  C   -0.147093
    49  C   -0.170221
    50  C    0.036561
    51  C    0.008388
    52  C   -0.034870
    53  C    0.021390
    54  C   -0.199640
    55  C    0.035513
    56  C    0.045363
    57  C   -0.060011
    58  C    0.003667
    59  C   -0.221785
    60  C    0.028608
    61  C    0.043590
    62  C   -0.078047
    63  C   -0.003404
    64  C   -0.173373
    65  C   -0.001502
    66  C   -0.022389
    67  H   -0.009202
    68  H   -0.010903
    69  H   -0.022670
    70  H    0.026314
    71  H    0.045385
    72  H    0.052663
    73  H    0.041602
    74  H    0.037853
    75  H    0.035280
    76  H    0.044746
    77  H    0.023786
    78  H    0.033691
    79  H    0.046431
    80  H    0.027745
    81  H    0.069755
    82  H    0.078388
    83  H    0.062433
    84  H    0.054054
    85  H    0.038635
    86  H    0.040245
    87  H    0.041949
    88  H    0.035548
    89  H    0.043265
    90  H    0.039341
    91  H    0.027403
    92  H    0.029362
    93  H    0.048678
    94  H    0.043454
    95  H    0.065059
    96  H    0.054760
    97  H    0.039266
    98  H    0.079629
    99  H    0.056067
   100  H    0.062584
   101  H    0.042729
   102  H    0.058279
   103  H    0.051730
   104  H    0.032942
   105  H    0.043524
   106  H    0.017294
   107  H    0.056539
   108  H    0.017001
   109  H    0.007627
   110  H    0.035436
   111  H    0.015786
   112  H    0.007048
   113  H    0.019804
   114  H    0.017396
   115  H    0.011523
   116  H    0.030148
   117  H    0.028966
   118  H    0.013332
   119  H    0.009075
   120  H    0.017544
   121  H    0.019045
   122  H   -0.002815
   123  H    0.015123
   124  H    0.012306
   125  H    0.032196
   126  H    0.030016
   127  H    0.028340
   128  H    0.002043
   129  H    0.013199
   130  H    0.022437
   131  H    0.034596
   132  H    0.019768
   133  H    0.019088
   134  H    0.033575
   135  H    0.031247
   136  H    0.026602
   137  H    0.025478
   138  H    0.013660
   139  H    0.029309
   140  H    0.033634
 Sum of Mulliken charges =  -0.00000

 Dipole moment (field-independent basis, Debye):
    X=             -1.1790    Y=              2.5122    Z=              1.8768  Tot=              3.3502
 Quadrupole moment (field-independent basis, Debye-Ang):
   XX=           -406.1445   YY=           -416.0273   ZZ=           -386.2641
   XY=             49.5992   XZ=              8.3511   YZ=             30.6158

 Normal termination of Gaussian 16 at Sat Apr 30 13:24:46 2022.
