 Gaussian 16, Revision A.03,
 Gaussian 16:  ES64L-G16RevA.03 25-Dec-2016

 --------------------
 #p ZINDO=(nstates=5)
 --------------------

 -----------------------------
 step_751_chromophore_17 ZINDO
 -----------------------------
 Symbolic Z-matrix:
 Charge =  0 Multiplicity = 1

                         Standard orientation:
 ---------------------------------------------------------------------
 Center     Atomic      Atomic             Coordinates (Angstroms)
 Number     Number       Type             X           Y           Z
 ---------------------------------------------------------------------
      1         12           0        3.787867    1.415545   -0.701149
      2          6           0        4.109852   -2.091172   -0.725473
      3          6           0        1.015938    1.083776   -2.786866
      4          6           0        3.054778    4.715290   -0.225650
      5          6           0        5.754328    1.367633    2.125354
      6          7           0        2.674937   -0.343125   -1.670347
      7          6           0        2.936310   -1.611028   -1.369056
      8          6           0        1.931148   -2.495503   -2.030849
      9          6           0        1.110041   -1.570801   -3.025113
     10          6           0        1.636661   -0.186360   -2.493763
     11          6           0        1.437125   -1.672384   -4.568919
     12          6           0        1.063623   -3.296891   -1.023120
     13          6           0        0.294868   -4.523839   -1.613161
     14          6           0       -0.577148   -5.347751   -0.774436
     15          8           0       -0.349224   -6.382150   -0.234184
     16          8           0       -1.755818   -4.605174   -0.627379
     17          7           0        2.481126    2.776392   -1.626289
     18          6           0        1.343325    2.436132   -2.387065
     19          6           0        0.689606    3.643251   -2.805014
     20          6           0        1.288592    4.725194   -2.186745
     21          6           0        2.286617    4.158558   -1.323389
     22          6           0       -0.508148    3.605057   -3.787374
     23          6           0        0.901982    6.203381   -2.351826
     24          8           0       -0.123523    6.477907   -3.027204
     25          6           0        1.734144    7.320885   -1.755493
     26          7           0        4.334894    2.807796    0.738891
     27          6           0        3.919978    4.108203    0.702383
     28          6           0        4.694029    4.989621    1.773484
     29          6           0        5.596469    3.950931    2.520229
     30          6           0        5.221130    2.614325    1.776873
     31          6           0        5.470142    6.180898    1.133050
     32          6           0        5.332168    3.842341    4.072131
     33          6           0        6.543122    3.397310    4.919413
     34          7           0        4.981891    0.024372    0.311542
     35          6           0        5.713025    0.150003    1.428416
     36          6           0        6.458677   -1.052525    1.680970
     37          6           0        5.884590   -1.962537    0.838632
     38          6           0        4.933574   -1.293850    0.020116
     39          6           0        7.498267   -1.310817    2.718013
     40          6           0        5.880552   -3.353309    0.435507
     41          8           0        6.610865   -4.231809    0.818136
     42          6           0        4.607415   -3.527571   -0.461983
     43          6           0        4.813079   -4.250208   -1.704581
     44          8           0        5.756249   -3.957598   -2.456930
     45          8           0        3.912403   -5.277209   -2.012737
     46          6           0        4.184702   -5.953376   -3.273974
     47          6           0       -2.791908   -5.302477    0.144786
     48          6           0       -3.536910   -4.185004    0.853881
     49          6           0       -4.414286   -4.352833    1.839814
     50          6           0       -4.691779   -5.612156    2.578289
     51          6           0       -4.949423   -3.033067    2.532696
     52          6           0       -3.901737   -2.425718    3.557155
     53          6           0       -3.857465   -0.903823    3.709575
     54          6           0       -5.024204   -0.244206    4.394596
     55          6           0       -4.814025   -0.056494    5.877226
     56          6           0       -5.527266    1.079420    3.656934
     57          6           0       -6.674841    0.843094    2.655501
     58          6           0       -6.321469    1.113346    1.212653
     59          6           0       -7.502688    0.883866    0.250401
     60          6           0       -7.353627   -0.495003   -0.456402
     61          6           0       -7.798299    2.058021   -0.659617
     62          6           0       -9.270963    2.471339   -0.730157
     63          6           0      -10.335538    1.359362   -1.140795
     64          6           0      -11.719487    2.012499   -1.533530
     65          6           0      -12.930361    1.470696   -0.743423
     66          6           0      -11.947190    1.873720   -3.045014
     67          1           0        0.180679    0.942938   -3.475914
     68          1           0        2.934637    5.741630    0.127865
     69          1           0        6.406644    1.195927    2.985065
     70          1           0        2.566541   -3.209248   -2.555361
     71          1           0        0.055696   -1.619907   -2.753306
     72          1           0        2.015075   -2.537328   -4.893733
     73          1           0        1.967460   -0.765259   -4.858082
     74          1           0        0.533191   -1.536838   -5.163094
     75          1           0        0.267374   -2.585717   -0.802172
     76          1           0        1.622312   -3.561168   -0.124596
     77          1           0        1.007659   -5.189221   -2.101206
     78          1           0       -0.239107   -4.337132   -2.545641
     79          1           0       -1.382712    3.546330   -3.138954
     80          1           0       -0.744447    2.759645   -4.434079
     81          1           0       -0.444598    4.520009   -4.377546
     82          1           0        1.448870    7.586955   -0.738193
     83          1           0        1.480705    8.102074   -2.472356
     84          1           0        2.810912    7.154289   -1.794638
     85          1           0        4.094621    5.488780    2.534504
     86          1           0        6.650269    4.189479    2.372681
     87          1           0        6.549325    6.162973    1.283009
     88          1           0        5.062484    7.086756    1.582314
     89          1           0        5.241696    6.165907    0.066709
     90          1           0        4.473432    3.198320    4.258950
     91          1           0        5.007141    4.856750    4.305577
     92          1           0        7.332129    3.269131    4.178198
     93          1           0        6.410352    2.447381    5.437272
     94          1           0        6.888658    4.151891    5.625355
     95          1           0        8.125625   -2.175482    2.500733
     96          1           0        6.958221   -1.472720    3.651435
     97          1           0        8.203522   -0.500225    2.906085
     98          1           0        3.887291   -4.029250    0.184844
     99          1           0        3.331507   -6.595833   -3.491482
    100          1           0        5.137839   -6.481736   -3.265587
    101          1           0        4.269477   -5.302382   -4.144243
    102          1           0       -2.438768   -5.992621    0.910549
    103          1           0       -3.418698   -5.849316   -0.560435
    104          1           0       -3.351631   -3.217029    0.387936
    105          1           0       -4.299682   -5.453193    3.583152
    106          1           0       -4.073150   -6.436541    2.225118
    107          1           0       -5.729005   -5.946845    2.567877
    108          1           0       -5.914795   -3.249055    2.989536
    109          1           0       -5.231468   -2.214722    1.870048
    110          1           0       -2.874193   -2.771441    3.441988
    111          1           0       -4.340312   -2.787546    4.486663
    112          1           0       -3.891387   -0.451181    2.718498
    113          1           0       -2.844631   -0.726742    4.073325
    114          1           0       -5.833466   -0.974174    4.364272
    115          1           0       -5.214820   -0.978520    6.299952
    116          1           0       -5.443910    0.687311    6.363698
    117          1           0       -3.741286   -0.035871    6.070963
    118          1           0       -4.761141    1.557404    3.046651
    119          1           0       -5.737003    1.836697    4.411853
    120          1           0       -7.447161    1.582205    2.868711
    121          1           0       -7.098024   -0.159979    2.601364
    122          1           0       -5.582536    0.327120    1.061188
    123          1           0       -5.909789    2.115519    1.086072
    124          1           0       -8.361232    0.885103    0.922160
    125          1           0       -8.345476   -0.946770   -0.437356
    126          1           0       -6.617776   -1.074954    0.099811
    127          1           0       -7.041855   -0.386867   -1.495866
    128          1           0       -7.368244    1.759632   -1.615453
    129          1           0       -7.239001    2.925445   -0.308706
    130          1           0       -9.327487    3.064768   -1.642353
    131          1           0       -9.443631    3.060215    0.170188
    132          1           0      -10.393566    0.688539   -0.284214
    133          1           0       -9.832077    0.812278   -1.937468
    134          1           0      -11.670766    3.090685   -1.379261
    135          1           0      -13.586155    2.274352   -0.409176
    136          1           0      -12.548528    0.919546    0.116381
    137          1           0      -13.569837    0.800587   -1.317662
    138          1           0      -12.335597    0.872379   -3.232705
    139          1           0      -11.044917    1.869441   -3.655851
    140          1           0      -12.726008    2.535409   -3.424007
 ---------------------------------------------------------------------

 SCF Done:  E(RZINDO/S) =  -474.270572301     A.U. after   20 cycles

 Excitation energies and oscillator strengths:

 Excited State   1:      Singlet-A      1.2694 eV  976.75 nm  f=0.5668  <S**2>=0.000
     175 ->178         0.21003
     176 ->177         0.65825
 This state for optimization and/or second-order correction.
 Total Energy, E(CIS/TDA) =  -474.223924386
 Copying the excited state density for this state as the 1-particle RhoCI density.

 Excited State   2:      Singlet-A      1.8919 eV  655.34 nm  f=0.0007  <S**2>=0.000
     175 ->177        -0.47080
     176 ->178         0.50831

 Excited State   3:      Singlet-A      2.9380 eV  422.00 nm  f=0.4218  <S**2>=0.000
     168 ->177         0.15823
     168 ->179        -0.15617
     175 ->177         0.27515
     176 ->178         0.27474
     176 ->179         0.42862

 Excited State   4:      Singlet-A      2.9485 eV  420.50 nm  f=0.5715  <S**2>=0.000
     168 ->177        -0.21646
     168 ->179         0.22930
     168 ->180        -0.11464
     168 ->181        -0.11893
     168 ->185         0.12617
     169 ->177         0.14758
     169 ->179        -0.10678
     169 ->180         0.10307
     171 ->177         0.14626
     175 ->177         0.32171
     176 ->178         0.31567

 Excited State   5:      Singlet-A      2.9932 eV  414.22 nm  f=0.2257  <S**2>=0.000
     168 ->177        -0.16787
     168 ->180        -0.13142
     169 ->179        -0.14418
     175 ->177        -0.19468
     176 ->178        -0.16620
     176 ->179         0.49526
     176 ->180         0.14825

 The electronic state is 1-A.
 Alpha  occ. eigenvalues --   -1.87713  -1.80421  -1.78050  -1.73935  -1.72154
 Alpha  occ. eigenvalues --   -1.70534  -1.67181  -1.61319  -1.60979  -1.56468
 Alpha  occ. eigenvalues --   -1.54493  -1.52082  -1.49699  -1.47587  -1.47236
 Alpha  occ. eigenvalues --   -1.45836  -1.43823  -1.40651  -1.40522  -1.36676
 Alpha  occ. eigenvalues --   -1.35837  -1.33698  -1.32920  -1.30532  -1.27512
 Alpha  occ. eigenvalues --   -1.27212  -1.25514  -1.23290  -1.21627  -1.18999
 Alpha  occ. eigenvalues --   -1.17470  -1.15329  -1.15120  -1.14643  -1.14070
 Alpha  occ. eigenvalues --   -1.11863  -1.10926  -1.09855  -1.05502  -1.04801
 Alpha  occ. eigenvalues --   -1.01868  -1.01389  -0.99083  -0.98201  -0.97726
 Alpha  occ. eigenvalues --   -0.96244  -0.95564  -0.93896  -0.93537  -0.91813
 Alpha  occ. eigenvalues --   -0.91348  -0.89421  -0.88980  -0.87816  -0.86501
 Alpha  occ. eigenvalues --   -0.86127  -0.85567  -0.83707  -0.83271  -0.81375
 Alpha  occ. eigenvalues --   -0.80540  -0.78986  -0.77535  -0.77114  -0.76981
 Alpha  occ. eigenvalues --   -0.75718  -0.75399  -0.74945  -0.74278  -0.73596
 Alpha  occ. eigenvalues --   -0.73024  -0.72339  -0.70906  -0.70614  -0.70314
 Alpha  occ. eigenvalues --   -0.70070  -0.69660  -0.68974  -0.68368  -0.68009
 Alpha  occ. eigenvalues --   -0.67107  -0.67032  -0.66527  -0.66260  -0.65603
 Alpha  occ. eigenvalues --   -0.65328  -0.64552  -0.64278  -0.64156  -0.63821
 Alpha  occ. eigenvalues --   -0.63638  -0.63251  -0.63194  -0.62821  -0.62568
 Alpha  occ. eigenvalues --   -0.61824  -0.61504  -0.61280  -0.60706  -0.60319
 Alpha  occ. eigenvalues --   -0.60080  -0.59456  -0.59144  -0.58585  -0.58235
 Alpha  occ. eigenvalues --   -0.57747  -0.57429  -0.57198  -0.56592  -0.56511
 Alpha  occ. eigenvalues --   -0.56141  -0.55888  -0.55336  -0.54898  -0.54574
 Alpha  occ. eigenvalues --   -0.54344  -0.53784  -0.53471  -0.53268  -0.52861
 Alpha  occ. eigenvalues --   -0.52506  -0.52037  -0.51770  -0.51568  -0.51283
 Alpha  occ. eigenvalues --   -0.51211  -0.50939  -0.50898  -0.50672  -0.50485
 Alpha  occ. eigenvalues --   -0.50026  -0.49902  -0.49765  -0.49273  -0.49033
 Alpha  occ. eigenvalues --   -0.48632  -0.48400  -0.48309  -0.48004  -0.47775
 Alpha  occ. eigenvalues --   -0.47259  -0.47223  -0.47055  -0.46883  -0.46642
 Alpha  occ. eigenvalues --   -0.46474  -0.46433  -0.46114  -0.45936  -0.45616
 Alpha  occ. eigenvalues --   -0.45250  -0.44936  -0.44746  -0.44573  -0.44129
 Alpha  occ. eigenvalues --   -0.43750  -0.43279  -0.42991  -0.42824  -0.42717
 Alpha  occ. eigenvalues --   -0.42468  -0.42193  -0.41966  -0.39361  -0.39186
 Alpha  occ. eigenvalues --   -0.38451  -0.38039  -0.35688  -0.35642  -0.34782
 Alpha  occ. eigenvalues --   -0.33588  -0.32786  -0.32666  -0.32601  -0.27026
 Alpha  occ. eigenvalues --   -0.21676
 Alpha virt. eigenvalues --   -0.08171  -0.02999  -0.00653   0.01144   0.01479
 Alpha virt. eigenvalues --    0.01914   0.01978   0.02665   0.04407   0.04775
 Alpha virt. eigenvalues --    0.06068   0.06393   0.07119   0.07402   0.07628

 Mulliken charges:
               1
     1  Mg   0.425311
     2  C   -0.035726
     3  C   -0.064579
     4  C   -0.095200
     5  C   -0.091812
     6  N   -0.249759
     7  C    0.128805
     8  C    0.003487
     9  C   -0.000797
    10  C    0.096666
    11  C   -0.050326
    12  C   -0.012451
    13  C   -0.002934
    14  C    0.479393
    15  O   -0.493023
    16  O   -0.288103
    17  N   -0.347411
    18  C    0.078339
    19  C    0.048465
    20  C   -0.039157
    21  C    0.126059
    22  C   -0.048853
    23  C    0.326224
    24  O   -0.533656
    25  C   -0.031420
    26  N   -0.276194
    27  C    0.125880
    28  C   -0.007879
    29  C   -0.002321
    30  C    0.141150
    31  C   -0.055696
    32  C   -0.029214
    33  C   -0.057439
    34  N   -0.324201
    35  C    0.135666
    36  C    0.043170
    37  C   -0.037559
    38  C    0.108415
    39  C   -0.034838
    40  C    0.340893
    41  O   -0.496292
    42  C    0.068285
    43  C    0.486654
    44  O   -0.525208
    45  O   -0.270934
    46  C    0.078896
    47  C    0.096580
    48  C   -0.079949
    49  C   -0.011062
    50  C   -0.037448
    51  C   -0.033080
    52  C   -0.035812
    53  C   -0.029218
    54  C   -0.005081
    55  C   -0.060226
    56  C   -0.039870
    57  C   -0.035764
    58  C   -0.039671
    59  C   -0.020124
    60  C   -0.057768
    61  C   -0.032571
    62  C   -0.045508
    63  C   -0.034796
    64  C   -0.004262
    65  C   -0.055221
    66  C   -0.057964
    67  H    0.025482
    68  H    0.021297
    69  H    0.021637
    70  H    0.030340
    71  H    0.037448
    72  H    0.032861
    73  H    0.024748
    74  H    0.020483
    75  H    0.024256
    76  H    0.036991
    77  H    0.021252
    78  H    0.036241
    79  H    0.029914
    80  H    0.026401
    81  H    0.043202
    82  H    0.048631
    83  H    0.039868
    84  H    0.031396
    85  H    0.032871
    86  H    0.037586
    87  H    0.025144
    88  H    0.017450
    89  H    0.025205
    90  H    0.024677
    91  H    0.017085
    92  H    0.016465
    93  H    0.025304
    94  H    0.023539
    95  H    0.036616
    96  H    0.031881
    97  H    0.024064
    98  H    0.050018
    99  H    0.029610
   100  H    0.050751
   101  H    0.038137
   102  H    0.058573
   103  H    0.045349
   104  H    0.035593
   105  H    0.028533
   106  H    0.016717
   107  H    0.035561
   108  H    0.015051
   109  H    0.021037
   110  H    0.027468
   111  H    0.013543
   112  H    0.009200
   113  H    0.019576
   114  H    0.017302
   115  H    0.006213
   116  H    0.025461
   117  H    0.025492
   118  H    0.017455
   119  H    0.017701
   120  H    0.011298
   121  H    0.025375
   122  H    0.014615
   123  H    0.020719
   124  H    0.013309
   125  H    0.017182
   126  H    0.023370
   127  H    0.022609
   128  H    0.015648
   129  H    0.013461
   130  H    0.009156
   131  H    0.031267
   132  H    0.018275
   133  H    0.025991
   134  H    0.021253
   135  H    0.017801
   136  H    0.017696
   137  H    0.020235
   138  H    0.006901
   139  H    0.020308
   140  H    0.018896
 Sum of Mulliken charges =  -0.00000

 Dipole moment (field-independent basis, Debye):
    X=             -1.8354    Y=              2.0690    Z=              3.6135  Tot=              4.5505
 N-N= 4.506098647933D+03 E-N= 0.000000000000D+00  KE=-9.685905791819D+03
 Leave Link  601 at Sat Apr 30 13:37:47 2022, MaxMem=  6710886400 cpu:               1.1 elap:               0.1
 (Enter /sw/apps/gaussian-16.0/g16/l9999.exe)
 1\1\GINC-BP1-COMPUTE102\SP\RZINDO CIS\STO-3G\C55H74Mg1N4O6\OF15641\30-
 Apr-2022\0\\#p ZINDO=(nstates=5)\\step_751_chromophore_17 ZINDO\\0,1\M
 g,0,29.574,59.253,41.301\C,0,26.461,57.723,40.693\C,0,31.114,56.492,39
 .835\C,0,32.546,60.932,41.298\C,0,27.824,62.199,41.643\N,0,28.85,57.28
 8,40.36\C,0,27.567,57.038,40.119\C,0,27.446,55.764,39.349\C,0,28.889,5
 5.104,39.35\C,0,29.679,56.348,39.902\C,0,29.141,53.88,40.319\C,0,26.82
 1,55.957,37.941\C,0,26.286,54.66,37.251\C,0,25.696,54.701,35.912\O,0,2

 Normal termination of Gaussian 16 at Sat Apr 30 13:37:47 2022.
