 Gaussian 16, Revision A.03,
 Gaussian 16:  ES64L-G16RevA.03 25-Dec-2016

 ------------------------------
 #p blyp/Def2SVP td=(nstates=5)
 ------------------------------

 ---------------------------------------------------
 step_1551_chromophore_12 TDDFT with blyp functional
 ---------------------------------------------------
 Symbolic Z-matrix:
 Charge =  0 Multiplicity = 1

                         Standard orientation:
 ---------------------------------------------------------------------
 Center     Atomic      Atomic             Coordinates (Angstroms)
 Number     Number       Type             X           Y           Z
 ---------------------------------------------------------------------
      1         12           0       -4.248883    0.438237   -0.236271
      2          6           0       -2.870741   -2.663117    0.721183
      3          6           0       -1.106366    1.661901   -0.359085
      4          6           0       -5.649695    3.170588   -1.265051
      5          6           0       -7.430682   -0.970293    0.588929
      6          7           0       -2.180733   -0.504293    0.208002
      7          6           0       -1.886853   -1.787758    0.369202
      8          6           0       -0.443125   -2.076926    0.231262
      9          6           0        0.175902   -0.637705    0.077112
     10          6           0       -1.072534    0.238836   -0.105297
     11          6           0        0.990769   -0.078846    1.232056
     12          6           0       -0.045980   -3.063042   -0.858890
     13          6           0        1.227284   -3.849642   -0.622129
     14          6           0        2.189833   -3.960750   -1.816327
     15          8           0        1.859728   -3.872690   -2.982907
     16          8           0        3.448264   -4.235508   -1.333490
     17          7           0       -3.443054    2.222284   -0.741575
     18          6           0       -2.113637    2.526335   -0.738079
     19          6           0       -1.983687    3.887721   -1.303995
     20          6           0       -3.284377    4.291316   -1.659266
     21          6           0       -4.195008    3.250864   -1.218459
     22          6           0       -0.665070    4.608258   -1.586025
     23          6           0       -3.724723    5.559510   -2.340590
     24          8           0       -4.874232    5.716328   -2.842537
     25          6           0       -2.882817    6.706652   -2.519060
     26          7           0       -6.264667    1.006765   -0.216389
     27          6           0       -6.556800    2.209975   -0.775386
     28          6           0       -8.136184    2.382838   -0.733988
     29          6           0       -8.697748    1.014258   -0.223942
     30          6           0       -7.392813    0.307930    0.096458
     31          6           0       -8.604703    3.637010    0.087857
     32          6           0       -9.588496    0.299491   -1.263996
     33          6           0      -10.638459    1.038527   -2.069790
     34          7           0       -5.016219   -1.338333    0.613116
     35          6           0       -6.316849   -1.795598    0.887243
     36          6           0       -6.320761   -3.078236    1.417615
     37          6           0       -4.980087   -3.468838    1.321139
     38          6           0       -4.240050   -2.384802    0.816777
     39          6           0       -7.519102   -3.826447    1.958892
     40          6           0       -4.164211   -4.637026    1.380035
     41          8           0       -4.446919   -5.821204    1.605441
     42          6           0       -2.724021   -4.122624    1.006152
     43          6           0       -1.866768   -4.315236    2.163925
     44          8           0       -1.768677   -3.683274    3.238163
     45          8           0       -1.207096   -5.517864    1.944595
     46          6           0       -0.665672   -6.244094    3.120170
     47          6           0        4.515117   -4.200679   -2.369340
     48          6           0        5.854282   -3.891055   -1.749371
     49          6           0        7.049740   -3.713674   -2.389254
     50          6           0        7.159387   -3.610961   -3.876303
     51          6           0        8.411891   -3.508441   -1.655022
     52          6           0        9.216560   -2.257820   -2.032242
     53          6           0       10.044251   -1.741371   -0.846867
     54          6           0       10.439569   -0.238075   -0.876103
     55          6           0       11.945527   -0.119567   -1.080384
     56          6           0        9.968546    0.486367    0.460285
     57          6           0        9.443226    1.912855    0.178330
     58          6           0        8.923743    2.500924    1.550535
     59          6           0        7.980804    3.625157    1.415508
     60          6           0        8.701151    4.857128    0.905176
     61          6           0        7.149002    3.939483    2.696549
     62          6           0        5.778609    4.679846    2.498391
     63          6           0        4.651680    3.845659    3.016041
     64          6           0        3.271703    4.531681    2.924730
     65          6           0        2.676484    4.812035    1.522489
     66          6           0        3.193470    5.759026    3.779152
     67          1           0       -0.138774    2.152643   -0.478446
     68          1           0       -6.181937    4.032632   -1.673358
     69          1           0       -8.406609   -1.344407    0.907863
     70          1           0       -0.099911   -2.511879    1.170811
     71          1           0        0.803301   -0.559913   -0.810874
     72          1           0        0.353424    0.657421    1.721302
     73          1           0        1.897233    0.414367    0.879759
     74          1           0        1.244072   -0.750216    2.051352
     75          1           0        0.092829   -2.460261   -1.756832
     76          1           0       -0.866597   -3.756831   -1.039294
     77          1           0        1.106757   -4.897504   -0.346073
     78          1           0        1.668699   -3.404710    0.269476
     79          1           0       -0.352677    5.424045   -0.933483
     80          1           0       -0.495287    4.954276   -2.605240
     81          1           0        0.181055    3.943302   -1.415271
     82          1           0       -2.380078    6.904378   -1.571829
     83          1           0       -3.413980    7.587809   -2.880778
     84          1           0       -2.207123    6.483977   -3.345131
     85          1           0       -8.296017    2.462760   -1.809562
     86          1           0       -9.236363    0.954641    0.721758
     87          1           0       -7.878532    4.444197    0.185721
     88          1           0       -8.895709    3.257086    1.067723
     89          1           0       -9.405765    4.110046   -0.480663
     90          1           0      -10.050634   -0.554282   -0.768685
     91          1           0       -8.904043   -0.116531   -2.003182
     92          1           0      -10.850755    1.977893   -1.559427
     93          1           0      -11.570536    0.472643   -2.075934
     94          1           0      -10.341217    1.195131   -3.107192
     95          1           0       -7.300133   -4.887810    1.845327
     96          1           0       -8.393931   -3.598876    1.348110
     97          1           0       -7.606097   -3.447735    2.976848
     98          1           0       -2.347289   -4.718704    0.175577
     99          1           0        0.401247   -6.327472    2.914388
    100          1           0       -1.323863   -7.109091    3.029916
    101          1           0       -0.868552   -5.746792    4.068012
    102          1           0        4.334660   -3.399190   -3.086004
    103          1           0        4.556496   -5.122453   -2.949374
    104          1           0        5.904929   -4.015568   -0.667550
    105          1           0        7.744581   -4.428641   -4.298704
    106          1           0        7.662727   -2.661442   -4.059254
    107          1           0        6.241924   -3.676099   -4.462007
    108          1           0        8.990707   -4.399455   -1.898037
    109          1           0        8.232560   -3.438692   -0.582147
    110          1           0        8.492015   -1.535657   -2.409535
    111          1           0        9.932131   -2.573565   -2.791585
    112          1           0       10.972355   -2.307029   -0.935170
    113          1           0        9.639643   -2.015010    0.127980
    114          1           0        9.982649    0.208059   -1.759545
    115          1           0       12.556267   -0.692617   -0.382548
    116          1           0       12.162608    0.946914   -1.137827
    117          1           0       12.267187   -0.491562   -2.052611
    118          1           0       10.772833    0.476050    1.195062
    119          1           0        9.112997   -0.000066    0.929230
    120          1           0        8.602278    1.824067   -0.508761
    121          1           0       10.207703    2.547043   -0.270304
    122          1           0        9.843690    2.811663    2.045472
    123          1           0        8.407272    1.741097    2.136577
    124          1           0        7.318450    3.404448    0.578633
    125          1           0        9.754978    4.603263    0.791658
    126          1           0        8.498353    5.731082    1.524447
    127          1           0        8.401051    5.151788   -0.100873
    128          1           0        7.601190    4.591342    3.443346
    129          1           0        7.047960    2.994223    3.229338
    130          1           0        5.703904    4.988396    1.455261
    131          1           0        5.933932    5.660746    2.948390
    132          1           0        4.943678    3.676303    4.052652
    133          1           0        4.658498    2.902213    2.470254
    134          1           0        2.530678    3.870840    3.372572
    135          1           0        3.554920    5.048748    0.921734
    136          1           0        1.944858    5.618517    1.473020
    137          1           0        2.196044    3.931983    1.094711
    138          1           0        2.901010    6.641438    3.209650
    139          1           0        4.071521    6.034840    4.364233
    140          1           0        2.470258    5.468370    4.540299
 ---------------------------------------------------------------------

 SCF Done:  E(RB-LYP) =  -3007.40232234     A.U. after   21 cycles

 Excitation energies and oscillator strengths:

 Excited State   1:      Singlet-A      1.7354 eV  714.46 nm  f=0.0134  <S**2>=0.000
     244 -> 247        0.68311
     246 -> 247       -0.16469
 This state for optimization and/or second-order correction.
 Total Energy, E(TD-HF/TD-DFT) =  -3007.33854908
 Copying the excited state density for this state as the 1-particle RhoCI density.

 Excited State   2:      Singlet-A      1.8420 eV  673.08 nm  f=0.2876  <S**2>=0.000
     244 -> 247        0.17130
     245 -> 248       -0.19090
     246 -> 247        0.66519
     246 <- 247       -0.14022

 Excited State   3:      Singlet-A      1.9836 eV  625.03 nm  f=0.0012  <S**2>=0.000
     243 -> 247        0.70569

 Excited State   4:      Singlet-A      2.0312 eV  610.41 nm  f=0.1137  <S**2>=0.000
     245 -> 247        0.65375
     246 -> 248        0.22765

 Excited State   5:      Singlet-A      2.3319 eV  531.68 nm  f=0.0000  <S**2>=0.000
     242 -> 247        0.70708

 The electronic state is 1-A.
 Alpha  occ. eigenvalues --  -46.27142 -18.82642 -18.80739 -18.77524 -18.76203
 Alpha  occ. eigenvalues --  -18.75662 -18.74834 -14.03121 -14.02737 -14.01353
 Alpha  occ. eigenvalues --  -14.00264 -10.04501 -10.03204  -9.99404  -9.99326
 Alpha  occ. eigenvalues --   -9.98333  -9.97147  -9.97005  -9.96623  -9.96591
 Alpha  occ. eigenvalues --   -9.96123  -9.95739  -9.95584  -9.94790  -9.94556
 Alpha  occ. eigenvalues --   -9.94182  -9.94000  -9.93800  -9.93614  -9.93610
 Alpha  occ. eigenvalues --   -9.93551  -9.93445  -9.93432  -9.93346  -9.93266
 Alpha  occ. eigenvalues --   -9.93157  -9.92693  -9.92667  -9.92647  -9.92612
 Alpha  occ. eigenvalues --   -9.92401  -9.92359  -9.92343  -9.92314  -9.92259
 Alpha  occ. eigenvalues --   -9.92249  -9.92159  -9.92098  -9.92091  -9.92031
 Alpha  occ. eigenvalues --   -9.91845  -9.91768  -9.91756  -9.91648  -9.91629
 Alpha  occ. eigenvalues --   -9.91592  -9.91299  -9.91266  -9.91260  -9.91159
 Alpha  occ. eigenvalues --   -9.91067  -9.91044  -9.90978  -9.90436  -9.90416
 Alpha  occ. eigenvalues --   -9.90388  -2.91792  -1.72219  -1.71692  -1.71484
 Alpha  occ. eigenvalues --   -0.97862  -0.95828  -0.90593  -0.90348  -0.89483
 Alpha  occ. eigenvalues --   -0.87879  -0.87243  -0.86220  -0.86116  -0.85213
 Alpha  occ. eigenvalues --   -0.76111  -0.73911  -0.73587  -0.73307  -0.72564
 Alpha  occ. eigenvalues --   -0.72525  -0.71721  -0.71638  -0.70910  -0.70616
 Alpha  occ. eigenvalues --   -0.70294  -0.69497  -0.68658  -0.67609  -0.67278
 Alpha  occ. eigenvalues --   -0.66981  -0.66315  -0.65946  -0.65427  -0.64849
 Alpha  occ. eigenvalues --   -0.64600  -0.62989  -0.62872  -0.62129  -0.60739
 Alpha  occ. eigenvalues --   -0.60422  -0.60342  -0.59828  -0.59638  -0.59293
 Alpha  occ. eigenvalues --   -0.58410  -0.58082  -0.56754  -0.55824  -0.54888
 Alpha  occ. eigenvalues --   -0.54460  -0.53913  -0.53010  -0.52403  -0.51893
 Alpha  occ. eigenvalues --   -0.51087  -0.51010  -0.50865  -0.50334  -0.50219
 Alpha  occ. eigenvalues --   -0.49886  -0.48968  -0.48305  -0.47539  -0.47175
 Alpha  occ. eigenvalues --   -0.46666  -0.45999  -0.45924  -0.45151  -0.44536
 Alpha  occ. eigenvalues --   -0.44060  -0.43638  -0.43161  -0.42895  -0.42563
 Alpha  occ. eigenvalues --   -0.42307  -0.42246  -0.41968  -0.41681  -0.41432
 Alpha  occ. eigenvalues --   -0.41307  -0.40874  -0.40831  -0.40682  -0.40314
 Alpha  occ. eigenvalues --   -0.40225  -0.40156  -0.39888  -0.39711  -0.39291
 Alpha  occ. eigenvalues --   -0.39149  -0.39064  -0.38840  -0.38596  -0.38469
 Alpha  occ. eigenvalues --   -0.38202  -0.37932  -0.37690  -0.37591  -0.37490
 Alpha  occ. eigenvalues --   -0.37249  -0.37164  -0.37019  -0.36937  -0.36697
 Alpha  occ. eigenvalues --   -0.36453  -0.36348  -0.35940  -0.35773  -0.35568
 Alpha  occ. eigenvalues --   -0.35370  -0.35055  -0.34983  -0.34814  -0.34664
 Alpha  occ. eigenvalues --   -0.34510  -0.34430  -0.34279  -0.33880  -0.33712
 Alpha  occ. eigenvalues --   -0.33651  -0.33488  -0.33426  -0.33297  -0.33123
 Alpha  occ. eigenvalues --   -0.32956  -0.32690  -0.32645  -0.32513  -0.32476
 Alpha  occ. eigenvalues --   -0.32261  -0.31881  -0.31795  -0.31563  -0.31333
 Alpha  occ. eigenvalues --   -0.31236  -0.31084  -0.30925  -0.30794  -0.30723
 Alpha  occ. eigenvalues --   -0.30447  -0.30323  -0.30020  -0.29729  -0.29640
 Alpha  occ. eigenvalues --   -0.29620  -0.29515  -0.29153  -0.29100  -0.28860
 Alpha  occ. eigenvalues --   -0.28691  -0.28625  -0.28325  -0.28078  -0.28000
 Alpha  occ. eigenvalues --   -0.27898  -0.27707  -0.27241  -0.27033  -0.26957
 Alpha  occ. eigenvalues --   -0.26598  -0.26444  -0.26259  -0.26018  -0.25832
 Alpha  occ. eigenvalues --   -0.25301  -0.24662  -0.23947  -0.23925  -0.23750
 Alpha  occ. eigenvalues --   -0.23086  -0.22581  -0.22196  -0.21403  -0.21214
 Alpha  occ. eigenvalues --   -0.20475  -0.20155  -0.18756  -0.17900  -0.17243
 Alpha  occ. eigenvalues --   -0.15997
 Alpha virt. eigenvalues --   -0.11585  -0.06628  -0.06408  -0.04797  -0.02629
 Alpha virt. eigenvalues --   -0.02311  -0.02036  -0.01692  -0.01260   0.00257
 Alpha virt. eigenvalues --    0.00865   0.01488   0.01908   0.02537   0.02837

 Mulliken charges:
               1
     1  Mg   0.689523
     2  C    0.040682
     3  C   -0.040092
     4  C   -0.022612
     5  C   -0.098508
     6  N   -0.167708
     7  C   -0.132053
     8  C    0.027018
     9  C    0.004580
    10  C    0.002793
    11  C    0.133877
    12  C    0.154865
    13  C    0.107318
    14  C    0.076087
    15  O   -0.178337
    16  O   -0.278000
    17  N   -0.319344
    18  C    0.119344
    19  C   -0.101810
    20  C    0.075674
    21  C    0.097327
    22  C    0.138758
    23  C   -0.098488
    24  O   -0.211128
    25  C    0.178322
    26  N   -0.227119
    27  C   -0.000317
    28  C    0.045350
    29  C    0.036570
    30  C    0.017022
    31  C    0.133988
    32  C    0.052944
    33  C    0.093565
    34  N   -0.227572
    35  C    0.124351
    36  C   -0.198417
    37  C    0.070613
    38  C    0.105184
    39  C    0.190335
    40  C   -0.052061
    41  O   -0.145576
    42  C    0.053629
    43  C    0.112348
    44  O   -0.208002
    45  O   -0.302695
    46  C    0.200378
    47  C    0.306781
    48  C   -0.106852
    49  C   -0.157739
    50  C    0.133147
    51  C    0.136866
    52  C    0.046511
    53  C    0.105383
    54  C   -0.029104
    55  C    0.098541
    56  C    0.090195
    57  C    0.043649
    58  C    0.089980
    59  C   -0.033573
    60  C    0.115476
    61  C    0.095146
    62  C    0.045974
    63  C    0.122373
    64  C   -0.045342
    65  C    0.084536
    66  C    0.093604
    67  H   -0.072038
    68  H   -0.045237
    69  H   -0.065659
    70  H   -0.010280
    71  H   -0.027296
    72  H   -0.008125
    73  H   -0.004006
    74  H   -0.003625
    75  H   -0.019259
    76  H   -0.022928
    77  H    0.012420
    78  H   -0.010463
    79  H    0.003303
    80  H    0.001405
    81  H   -0.032040
    82  H    0.001829
    83  H   -0.009427
    84  H    0.004700
    85  H   -0.017258
    86  H   -0.026835
    87  H   -0.002947
    88  H   -0.002269
    89  H   -0.002887
    90  H   -0.026611
    91  H   -0.029127
    92  H   -0.011765
    93  H   -0.012899
    94  H    0.000903
    95  H    0.012540
    96  H   -0.006141
    97  H    0.017102
    98  H    0.005108
    99  H    0.023788
   100  H    0.033369
   101  H    0.026339
   102  H    0.010004
   103  H    0.012597
   104  H   -0.034818
   105  H   -0.008311
   106  H   -0.000552
   107  H   -0.018554
   108  H   -0.018817
   109  H   -0.033860
   110  H   -0.005099
   111  H   -0.020874
   112  H   -0.050657
   113  H   -0.032023
   114  H   -0.041628
   115  H   -0.007937
   116  H   -0.022311
   117  H   -0.028368
   118  H   -0.030332
   119  H   -0.031772
   120  H   -0.032755
   121  H   -0.020198
   122  H   -0.032542
   123  H   -0.038905
   124  H   -0.047188
   125  H   -0.024639
   126  H   -0.019561
   127  H   -0.029859
   128  H   -0.037387
   129  H   -0.046480
   130  H   -0.039183
   131  H   -0.040690
   132  H   -0.026190
   133  H   -0.031280
   134  H   -0.043321
   135  H   -0.022005
   136  H   -0.008682
   137  H   -0.019343
   138  H   -0.017685
   139  H   -0.021259
   140  H   -0.019381
 Sum of Mulliken charges =  -0.00000

 Dipole moment (field-independent basis, Debye):
    X=              3.8506    Y=              1.9776    Z=             -0.7715  Tot=              4.3970
 Quadrupole moment (field-independent basis, Debye-Ang):
   XX=           -361.8988   YY=           -424.7361   ZZ=           -416.0482
   XY=            -10.0638   XZ=             -7.3387   YZ=              8.3936

 Normal termination of Gaussian 16 at Wed May  4 09:44:33 2022.
