 Gaussian 16, Revision A.03,
 Gaussian 16:  ES64L-G16RevA.03 25-Dec-2016

 -----------------------------------
 #p cam-b3lyp/Def2SVP td=(nstates=5)
 -----------------------------------

 --------------------------------------------------------
 step_1551_chromophore_12 TDDFT with cam-b3lyp functional
 --------------------------------------------------------
 Symbolic Z-matrix:
 Charge =  0 Multiplicity = 1

                         Standard orientation:
 ---------------------------------------------------------------------
 Center     Atomic      Atomic             Coordinates (Angstroms)
 Number     Number       Type             X           Y           Z
 ---------------------------------------------------------------------
      1         12           0       -4.248883    0.438237   -0.236271
      2          6           0       -2.870741   -2.663117    0.721183
      3          6           0       -1.106366    1.661901   -0.359085
      4          6           0       -5.649695    3.170588   -1.265051
      5          6           0       -7.430682   -0.970293    0.588929
      6          7           0       -2.180733   -0.504293    0.208002
      7          6           0       -1.886853   -1.787758    0.369202
      8          6           0       -0.443125   -2.076926    0.231262
      9          6           0        0.175902   -0.637705    0.077112
     10          6           0       -1.072534    0.238836   -0.105297
     11          6           0        0.990769   -0.078846    1.232056
     12          6           0       -0.045980   -3.063042   -0.858890
     13          6           0        1.227284   -3.849642   -0.622129
     14          6           0        2.189833   -3.960750   -1.816327
     15          8           0        1.859728   -3.872690   -2.982907
     16          8           0        3.448264   -4.235508   -1.333490
     17          7           0       -3.443054    2.222284   -0.741575
     18          6           0       -2.113637    2.526335   -0.738079
     19          6           0       -1.983687    3.887721   -1.303995
     20          6           0       -3.284377    4.291316   -1.659266
     21          6           0       -4.195008    3.250864   -1.218459
     22          6           0       -0.665070    4.608258   -1.586025
     23          6           0       -3.724723    5.559510   -2.340590
     24          8           0       -4.874232    5.716328   -2.842537
     25          6           0       -2.882817    6.706652   -2.519060
     26          7           0       -6.264667    1.006765   -0.216389
     27          6           0       -6.556800    2.209975   -0.775386
     28          6           0       -8.136184    2.382838   -0.733988
     29          6           0       -8.697748    1.014258   -0.223942
     30          6           0       -7.392813    0.307930    0.096458
     31          6           0       -8.604703    3.637010    0.087857
     32          6           0       -9.588496    0.299491   -1.263996
     33          6           0      -10.638459    1.038527   -2.069790
     34          7           0       -5.016219   -1.338333    0.613116
     35          6           0       -6.316849   -1.795598    0.887243
     36          6           0       -6.320761   -3.078236    1.417615
     37          6           0       -4.980087   -3.468838    1.321139
     38          6           0       -4.240050   -2.384802    0.816777
     39          6           0       -7.519102   -3.826447    1.958892
     40          6           0       -4.164211   -4.637026    1.380035
     41          8           0       -4.446919   -5.821204    1.605441
     42          6           0       -2.724021   -4.122624    1.006152
     43          6           0       -1.866768   -4.315236    2.163925
     44          8           0       -1.768677   -3.683274    3.238163
     45          8           0       -1.207096   -5.517864    1.944595
     46          6           0       -0.665672   -6.244094    3.120170
     47          6           0        4.515117   -4.200679   -2.369340
     48          6           0        5.854282   -3.891055   -1.749371
     49          6           0        7.049740   -3.713674   -2.389254
     50          6           0        7.159387   -3.610961   -3.876303
     51          6           0        8.411891   -3.508441   -1.655022
     52          6           0        9.216560   -2.257820   -2.032242
     53          6           0       10.044251   -1.741371   -0.846867
     54          6           0       10.439569   -0.238075   -0.876103
     55          6           0       11.945527   -0.119567   -1.080384
     56          6           0        9.968546    0.486367    0.460285
     57          6           0        9.443226    1.912855    0.178330
     58          6           0        8.923743    2.500924    1.550535
     59          6           0        7.980804    3.625157    1.415508
     60          6           0        8.701151    4.857128    0.905176
     61          6           0        7.149002    3.939483    2.696549
     62          6           0        5.778609    4.679846    2.498391
     63          6           0        4.651680    3.845659    3.016041
     64          6           0        3.271703    4.531681    2.924730
     65          6           0        2.676484    4.812035    1.522489
     66          6           0        3.193470    5.759026    3.779152
     67          1           0       -0.138774    2.152643   -0.478446
     68          1           0       -6.181937    4.032632   -1.673358
     69          1           0       -8.406609   -1.344407    0.907863
     70          1           0       -0.099911   -2.511879    1.170811
     71          1           0        0.803301   -0.559913   -0.810874
     72          1           0        0.353424    0.657421    1.721302
     73          1           0        1.897233    0.414367    0.879759
     74          1           0        1.244072   -0.750216    2.051352
     75          1           0        0.092829   -2.460261   -1.756832
     76          1           0       -0.866597   -3.756831   -1.039294
     77          1           0        1.106757   -4.897504   -0.346073
     78          1           0        1.668699   -3.404710    0.269476
     79          1           0       -0.352677    5.424045   -0.933483
     80          1           0       -0.495287    4.954276   -2.605240
     81          1           0        0.181055    3.943302   -1.415271
     82          1           0       -2.380078    6.904378   -1.571829
     83          1           0       -3.413980    7.587809   -2.880778
     84          1           0       -2.207123    6.483977   -3.345131
     85          1           0       -8.296017    2.462760   -1.809562
     86          1           0       -9.236363    0.954641    0.721758
     87          1           0       -7.878532    4.444197    0.185721
     88          1           0       -8.895709    3.257086    1.067723
     89          1           0       -9.405765    4.110046   -0.480663
     90          1           0      -10.050634   -0.554282   -0.768685
     91          1           0       -8.904043   -0.116531   -2.003182
     92          1           0      -10.850755    1.977893   -1.559427
     93          1           0      -11.570536    0.472643   -2.075934
     94          1           0      -10.341217    1.195131   -3.107192
     95          1           0       -7.300133   -4.887810    1.845327
     96          1           0       -8.393931   -3.598876    1.348110
     97          1           0       -7.606097   -3.447735    2.976848
     98          1           0       -2.347289   -4.718704    0.175577
     99          1           0        0.401247   -6.327472    2.914388
    100          1           0       -1.323863   -7.109091    3.029916
    101          1           0       -0.868552   -5.746792    4.068012
    102          1           0        4.334660   -3.399190   -3.086004
    103          1           0        4.556496   -5.122453   -2.949374
    104          1           0        5.904929   -4.015568   -0.667550
    105          1           0        7.744581   -4.428641   -4.298704
    106          1           0        7.662727   -2.661442   -4.059254
    107          1           0        6.241924   -3.676099   -4.462007
    108          1           0        8.990707   -4.399455   -1.898037
    109          1           0        8.232560   -3.438692   -0.582147
    110          1           0        8.492015   -1.535657   -2.409535
    111          1           0        9.932131   -2.573565   -2.791585
    112          1           0       10.972355   -2.307029   -0.935170
    113          1           0        9.639643   -2.015010    0.127980
    114          1           0        9.982649    0.208059   -1.759545
    115          1           0       12.556267   -0.692617   -0.382548
    116          1           0       12.162608    0.946914   -1.137827
    117          1           0       12.267187   -0.491562   -2.052611
    118          1           0       10.772833    0.476050    1.195062
    119          1           0        9.112997   -0.000066    0.929230
    120          1           0        8.602278    1.824067   -0.508761
    121          1           0       10.207703    2.547043   -0.270304
    122          1           0        9.843690    2.811663    2.045472
    123          1           0        8.407272    1.741097    2.136577
    124          1           0        7.318450    3.404448    0.578633
    125          1           0        9.754978    4.603263    0.791658
    126          1           0        8.498353    5.731082    1.524447
    127          1           0        8.401051    5.151788   -0.100873
    128          1           0        7.601190    4.591342    3.443346
    129          1           0        7.047960    2.994223    3.229338
    130          1           0        5.703904    4.988396    1.455261
    131          1           0        5.933932    5.660746    2.948390
    132          1           0        4.943678    3.676303    4.052652
    133          1           0        4.658498    2.902213    2.470254
    134          1           0        2.530678    3.870840    3.372572
    135          1           0        3.554920    5.048748    0.921734
    136          1           0        1.944858    5.618517    1.473020
    137          1           0        2.196044    3.931983    1.094711
    138          1           0        2.901010    6.641438    3.209650
    139          1           0        4.071521    6.034840    4.364233
    140          1           0        2.470258    5.468370    4.540299
 ---------------------------------------------------------------------

 SCF Done:  E(RCAM-B3LYP) =  -3007.20461397     A.U. after   17 cycles

 Excitation energies and oscillator strengths:

 Excited State   1:      Singlet-A      1.7532 eV  707.19 nm  f=0.3941  <S**2>=0.000
     245 -> 248        0.18599
     246 -> 247        0.68437
     245 <- 248        0.10806
 This state for optimization and/or second-order correction.
 Total Energy, E(TD-HF/TD-DFT) =  -3007.14018537
 Copying the excited state density for this state as the 1-particle RhoCI density.

 Excited State   2:      Singlet-A      2.2426 eV  552.85 nm  f=0.1416  <S**2>=0.000
     245 -> 247        0.64974
     246 -> 248       -0.26839

 Excited State   3:      Singlet-A      3.4161 eV  362.94 nm  f=0.0017  <S**2>=0.000
     240 -> 247        0.19680
     240 -> 249        0.20349
     240 -> 250        0.11780
     241 -> 247        0.33956
     241 -> 249        0.21673
     241 -> 250        0.10258
     244 -> 247        0.45769

 Excited State   4:      Singlet-A      3.4348 eV  360.97 nm  f=0.0013  <S**2>=0.000
     240 -> 247       -0.31899
     240 -> 249       -0.20060
     241 -> 247       -0.18036
     241 -> 249       -0.16841
     244 -> 247        0.50206

 Excited State   5:      Singlet-A      3.4891 eV  355.34 nm  f=0.0006  <S**2>=0.000
     242 -> 247        0.58940
     242 -> 249       -0.25217
     242 -> 250        0.23343

 The electronic state is 1-A.
 Alpha  occ. eigenvalues --  -46.88669 -19.25567 -19.23706 -19.20519 -19.19403
 Alpha  occ. eigenvalues --  -19.18541 -19.18253 -14.42197 -14.41388 -14.39937
 Alpha  occ. eigenvalues --  -14.38504 -10.39822 -10.38865 -10.34802 -10.34532
 Alpha  occ. eigenvalues --  -10.32449 -10.31898 -10.31399 -10.31223 -10.31022
 Alpha  occ. eigenvalues --  -10.30759 -10.29876 -10.29819 -10.29810 -10.28385
 Alpha  occ. eigenvalues --  -10.28270 -10.27952 -10.27883 -10.27873 -10.27816
 Alpha  occ. eigenvalues --  -10.27783 -10.27635 -10.27585 -10.27547 -10.27420
 Alpha  occ. eigenvalues --  -10.27356 -10.26894 -10.26661 -10.26652 -10.26558
 Alpha  occ. eigenvalues --  -10.26188 -10.26148 -10.26127 -10.25959 -10.25927
 Alpha  occ. eigenvalues --  -10.25884 -10.25861 -10.25834 -10.25812 -10.25792
 Alpha  occ. eigenvalues --  -10.25782 -10.25525 -10.25511 -10.25395 -10.25348
 Alpha  occ. eigenvalues --  -10.25308 -10.25020 -10.24998 -10.24972 -10.24819
 Alpha  occ. eigenvalues --  -10.24812 -10.24779 -10.24679 -10.24101 -10.24054
 Alpha  occ. eigenvalues --  -10.24050  -3.17225  -1.92128  -1.91693  -1.91517
 Alpha  occ. eigenvalues --   -1.16350  -1.14402  -1.08478  -1.08463  -1.08018
 Alpha  occ. eigenvalues --   -1.05847  -1.05092  -1.03937  -1.03707  -1.02672
 Alpha  occ. eigenvalues --   -0.93243  -0.90839  -0.90491  -0.90162  -0.89329
 Alpha  occ. eigenvalues --   -0.89184  -0.88439  -0.88330  -0.87762  -0.87172
 Alpha  occ. eigenvalues --   -0.86778  -0.85900  -0.85010  -0.83838  -0.83382
 Alpha  occ. eigenvalues --   -0.83179  -0.82502  -0.82095  -0.81364  -0.80666
 Alpha  occ. eigenvalues --   -0.80415  -0.78928  -0.78559  -0.77550  -0.76089
 Alpha  occ. eigenvalues --   -0.75901  -0.75722  -0.75088  -0.74986  -0.74597
 Alpha  occ. eigenvalues --   -0.73492  -0.73114  -0.71669  -0.70675  -0.69505
 Alpha  occ. eigenvalues --   -0.69153  -0.68528  -0.67544  -0.66825  -0.66201
 Alpha  occ. eigenvalues --   -0.65310  -0.65159  -0.64708  -0.64298  -0.64293
 Alpha  occ. eigenvalues --   -0.63726  -0.62914  -0.62200  -0.61312  -0.60990
 Alpha  occ. eigenvalues --   -0.60343  -0.59519  -0.59460  -0.58413  -0.58064
 Alpha  occ. eigenvalues --   -0.57397  -0.57024  -0.56422  -0.56147  -0.55484
 Alpha  occ. eigenvalues --   -0.55439  -0.55209  -0.55020  -0.54718  -0.54470
 Alpha  occ. eigenvalues --   -0.54067  -0.53907  -0.53639  -0.53580  -0.53275
 Alpha  occ. eigenvalues --   -0.52988  -0.52825  -0.52572  -0.52279  -0.52209
 Alpha  occ. eigenvalues --   -0.52060  -0.51719  -0.51282  -0.50972  -0.50923
 Alpha  occ. eigenvalues --   -0.50511  -0.50305  -0.50217  -0.50034  -0.49823
 Alpha  occ. eigenvalues --   -0.49675  -0.49644  -0.49350  -0.49060  -0.48879
 Alpha  occ. eigenvalues --   -0.48769  -0.48517  -0.48424  -0.48062  -0.47883
 Alpha  occ. eigenvalues --   -0.47478  -0.47145  -0.47054  -0.46958  -0.46691
 Alpha  occ. eigenvalues --   -0.46557  -0.46248  -0.46169  -0.45884  -0.45662
 Alpha  occ. eigenvalues --   -0.45341  -0.45175  -0.45092  -0.44921  -0.44800
 Alpha  occ. eigenvalues --   -0.44566  -0.44471  -0.44371  -0.44198  -0.44107
 Alpha  occ. eigenvalues --   -0.43949  -0.43375  -0.43273  -0.43257  -0.43085
 Alpha  occ. eigenvalues --   -0.42970  -0.42649  -0.42370  -0.42179  -0.42107
 Alpha  occ. eigenvalues --   -0.41840  -0.41778  -0.41469  -0.41377  -0.40910
 Alpha  occ. eigenvalues --   -0.40852  -0.40797  -0.40649  -0.40339  -0.40254
 Alpha  occ. eigenvalues --   -0.39973  -0.39645  -0.39179  -0.39053  -0.39008
 Alpha  occ. eigenvalues --   -0.38754  -0.38612  -0.38052  -0.37924  -0.37904
 Alpha  occ. eigenvalues --   -0.37812  -0.37684  -0.36977  -0.36923  -0.36688
 Alpha  occ. eigenvalues --   -0.36382  -0.35440  -0.35191  -0.34727  -0.34356
 Alpha  occ. eigenvalues --   -0.34012  -0.33881  -0.33263  -0.31616  -0.30791
 Alpha  occ. eigenvalues --   -0.30580  -0.30464  -0.29773  -0.29526  -0.23950
 Alpha  occ. eigenvalues --   -0.21363
 Alpha virt. eigenvalues --   -0.08721  -0.01465   0.00071   0.02146   0.02837
 Alpha virt. eigenvalues --    0.05165   0.05303   0.05720   0.05962   0.06325
 Alpha virt. eigenvalues --    0.06965   0.08145   0.08740   0.08996   0.09170

 Mulliken charges:
               1
     1  Mg   0.823640
     2  C    0.013649
     3  C   -0.050388
     4  C   -0.049429
     5  C   -0.101249
     6  N   -0.232160
     7  C   -0.084365
     8  C   -0.026623
     9  C   -0.045361
    10  C    0.018878
    11  C    0.071529
    12  C    0.099196
    13  C    0.040119
    14  C    0.158743
    15  O   -0.220402
    16  O   -0.343155
    17  N   -0.412158
    18  C    0.129976
    19  C   -0.105806
    20  C    0.001805
    21  C    0.127540
    22  C    0.086903
    23  C   -0.014957
    24  O   -0.249314
    25  C    0.088668
    26  N   -0.304873
    27  C    0.031148
    28  C   -0.018079
    29  C   -0.019601
    30  C    0.038338
    31  C    0.076426
    32  C    0.003254
    33  C    0.028153
    34  N   -0.315913
    35  C    0.119107
    36  C   -0.193828
    37  C   -0.007600
    38  C    0.138818
    39  C    0.142173
    40  C    0.042038
    41  O   -0.187400
    42  C   -0.029741
    43  C    0.207134
    44  O   -0.245116
    45  O   -0.365797
    46  C    0.162798
    47  C    0.275883
    48  C   -0.126416
    49  C   -0.181883
    50  C    0.069657
    51  C    0.087653
    52  C   -0.012291
    53  C    0.051534
    54  C   -0.089914
    55  C    0.043812
    56  C    0.037445
    57  C   -0.003329
    58  C    0.032722
    59  C   -0.090991
    60  C    0.054330
    61  C    0.043038
    62  C   -0.004832
    63  C    0.065272
    64  C   -0.108912
    65  C    0.035530
    66  C    0.029501
    67  H   -0.038750
    68  H   -0.005695
    69  H   -0.031283
    70  H    0.022411
    71  H    0.007954
    72  H    0.018876
    73  H    0.019112
    74  H    0.023050
    75  H    0.014328
    76  H    0.008050
    77  H    0.044300
    78  H    0.022614
    79  H    0.030655
    80  H    0.029194
    81  H   -0.003878
    82  H    0.029170
    83  H    0.028703
    84  H    0.033264
    85  H    0.017614
    86  H    0.008155
    87  H    0.022296
    88  H    0.021762
    89  H    0.020149
    90  H    0.001240
    91  H    0.000404
    92  H    0.009526
    93  H    0.012580
    94  H    0.023838
    95  H    0.039036
    96  H    0.016476
    97  H    0.042152
    98  H    0.050018
    99  H    0.044170
   100  H    0.056955
   101  H    0.052536
   102  H    0.037378
   103  H    0.039433
   104  H    0.000143
   105  H    0.017667
   106  H    0.023214
   107  H    0.007507
   108  H    0.009960
   109  H   -0.004302
   110  H    0.019854
   111  H    0.006085
   112  H   -0.019685
   113  H   -0.003743
   114  H   -0.008917
   115  H    0.015284
   116  H    0.001460
   117  H   -0.002922
   118  H   -0.002118
   119  H   -0.003044
   120  H   -0.005496
   121  H    0.003873
   122  H   -0.003590
   123  H   -0.010362
   124  H   -0.014843
   125  H    0.000164
   126  H    0.005010
   127  H   -0.004499
   128  H   -0.007388
   129  H   -0.017357
   130  H   -0.013360
   131  H   -0.011598
   132  H    0.002829
   133  H   -0.003102
   134  H   -0.009312
   135  H   -0.000488
   136  H    0.013780
   137  H   -0.000370
   138  H    0.006958
   139  H    0.003978
   140  H    0.006405
 Sum of Mulliken charges =  -0.00000

 Dipole moment (field-independent basis, Debye):
    X=              4.6219    Y=              2.8147    Z=             -1.0009  Tot=              5.5034
 Quadrupole moment (field-independent basis, Debye-Ang):
   XX=           -364.1325   YY=           -420.9035   ZZ=           -415.9499
   XY=            -12.3012   XZ=             -6.7167   YZ=              6.7381

 Normal termination of Gaussian 16 at Wed May  4 08:48:37 2022.
