 Gaussian 16, Revision A.03,
 Gaussian 16:  ES64L-G16RevA.03 25-Dec-2016

 ---------------------------------
 #p PBE1PBE/Def2SVP td=(nstates=5)
 ---------------------------------

 ------------------------------------------------------
 step_1551_chromophore_12 TDDFT with PBE1PBE functional
 ------------------------------------------------------
 Symbolic Z-matrix:
 Charge =  0 Multiplicity = 1

                         Standard orientation:
 ---------------------------------------------------------------------
 Center     Atomic      Atomic             Coordinates (Angstroms)
 Number     Number       Type             X           Y           Z
 ---------------------------------------------------------------------
      1         12           0       -4.248883    0.438237   -0.236271
      2          6           0       -2.870741   -2.663117    0.721183
      3          6           0       -1.106366    1.661901   -0.359085
      4          6           0       -5.649695    3.170588   -1.265051
      5          6           0       -7.430682   -0.970293    0.588929
      6          7           0       -2.180733   -0.504293    0.208002
      7          6           0       -1.886853   -1.787758    0.369202
      8          6           0       -0.443125   -2.076926    0.231262
      9          6           0        0.175902   -0.637705    0.077112
     10          6           0       -1.072534    0.238836   -0.105297
     11          6           0        0.990769   -0.078846    1.232056
     12          6           0       -0.045980   -3.063042   -0.858890
     13          6           0        1.227284   -3.849642   -0.622129
     14          6           0        2.189833   -3.960750   -1.816327
     15          8           0        1.859728   -3.872690   -2.982907
     16          8           0        3.448264   -4.235508   -1.333490
     17          7           0       -3.443054    2.222284   -0.741575
     18          6           0       -2.113637    2.526335   -0.738079
     19          6           0       -1.983687    3.887721   -1.303995
     20          6           0       -3.284377    4.291316   -1.659266
     21          6           0       -4.195008    3.250864   -1.218459
     22          6           0       -0.665070    4.608258   -1.586025
     23          6           0       -3.724723    5.559510   -2.340590
     24          8           0       -4.874232    5.716328   -2.842537
     25          6           0       -2.882817    6.706652   -2.519060
     26          7           0       -6.264667    1.006765   -0.216389
     27          6           0       -6.556800    2.209975   -0.775386
     28          6           0       -8.136184    2.382838   -0.733988
     29          6           0       -8.697748    1.014258   -0.223942
     30          6           0       -7.392813    0.307930    0.096458
     31          6           0       -8.604703    3.637010    0.087857
     32          6           0       -9.588496    0.299491   -1.263996
     33          6           0      -10.638459    1.038527   -2.069790
     34          7           0       -5.016219   -1.338333    0.613116
     35          6           0       -6.316849   -1.795598    0.887243
     36          6           0       -6.320761   -3.078236    1.417615
     37          6           0       -4.980087   -3.468838    1.321139
     38          6           0       -4.240050   -2.384802    0.816777
     39          6           0       -7.519102   -3.826447    1.958892
     40          6           0       -4.164211   -4.637026    1.380035
     41          8           0       -4.446919   -5.821204    1.605441
     42          6           0       -2.724021   -4.122624    1.006152
     43          6           0       -1.866768   -4.315236    2.163925
     44          8           0       -1.768677   -3.683274    3.238163
     45          8           0       -1.207096   -5.517864    1.944595
     46          6           0       -0.665672   -6.244094    3.120170
     47          6           0        4.515117   -4.200679   -2.369340
     48          6           0        5.854282   -3.891055   -1.749371
     49          6           0        7.049740   -3.713674   -2.389254
     50          6           0        7.159387   -3.610961   -3.876303
     51          6           0        8.411891   -3.508441   -1.655022
     52          6           0        9.216560   -2.257820   -2.032242
     53          6           0       10.044251   -1.741371   -0.846867
     54          6           0       10.439569   -0.238075   -0.876103
     55          6           0       11.945527   -0.119567   -1.080384
     56          6           0        9.968546    0.486367    0.460285
     57          6           0        9.443226    1.912855    0.178330
     58          6           0        8.923743    2.500924    1.550535
     59          6           0        7.980804    3.625157    1.415508
     60          6           0        8.701151    4.857128    0.905176
     61          6           0        7.149002    3.939483    2.696549
     62          6           0        5.778609    4.679846    2.498391
     63          6           0        4.651680    3.845659    3.016041
     64          6           0        3.271703    4.531681    2.924730
     65          6           0        2.676484    4.812035    1.522489
     66          6           0        3.193470    5.759026    3.779152
     67          1           0       -0.138774    2.152643   -0.478446
     68          1           0       -6.181937    4.032632   -1.673358
     69          1           0       -8.406609   -1.344407    0.907863
     70          1           0       -0.099911   -2.511879    1.170811
     71          1           0        0.803301   -0.559913   -0.810874
     72          1           0        0.353424    0.657421    1.721302
     73          1           0        1.897233    0.414367    0.879759
     74          1           0        1.244072   -0.750216    2.051352
     75          1           0        0.092829   -2.460261   -1.756832
     76          1           0       -0.866597   -3.756831   -1.039294
     77          1           0        1.106757   -4.897504   -0.346073
     78          1           0        1.668699   -3.404710    0.269476
     79          1           0       -0.352677    5.424045   -0.933483
     80          1           0       -0.495287    4.954276   -2.605240
     81          1           0        0.181055    3.943302   -1.415271
     82          1           0       -2.380078    6.904378   -1.571829
     83          1           0       -3.413980    7.587809   -2.880778
     84          1           0       -2.207123    6.483977   -3.345131
     85          1           0       -8.296017    2.462760   -1.809562
     86          1           0       -9.236363    0.954641    0.721758
     87          1           0       -7.878532    4.444197    0.185721
     88          1           0       -8.895709    3.257086    1.067723
     89          1           0       -9.405765    4.110046   -0.480663
     90          1           0      -10.050634   -0.554282   -0.768685
     91          1           0       -8.904043   -0.116531   -2.003182
     92          1           0      -10.850755    1.977893   -1.559427
     93          1           0      -11.570536    0.472643   -2.075934
     94          1           0      -10.341217    1.195131   -3.107192
     95          1           0       -7.300133   -4.887810    1.845327
     96          1           0       -8.393931   -3.598876    1.348110
     97          1           0       -7.606097   -3.447735    2.976848
     98          1           0       -2.347289   -4.718704    0.175577
     99          1           0        0.401247   -6.327472    2.914388
    100          1           0       -1.323863   -7.109091    3.029916
    101          1           0       -0.868552   -5.746792    4.068012
    102          1           0        4.334660   -3.399190   -3.086004
    103          1           0        4.556496   -5.122453   -2.949374
    104          1           0        5.904929   -4.015568   -0.667550
    105          1           0        7.744581   -4.428641   -4.298704
    106          1           0        7.662727   -2.661442   -4.059254
    107          1           0        6.241924   -3.676099   -4.462007
    108          1           0        8.990707   -4.399455   -1.898037
    109          1           0        8.232560   -3.438692   -0.582147
    110          1           0        8.492015   -1.535657   -2.409535
    111          1           0        9.932131   -2.573565   -2.791585
    112          1           0       10.972355   -2.307029   -0.935170
    113          1           0        9.639643   -2.015010    0.127980
    114          1           0        9.982649    0.208059   -1.759545
    115          1           0       12.556267   -0.692617   -0.382548
    116          1           0       12.162608    0.946914   -1.137827
    117          1           0       12.267187   -0.491562   -2.052611
    118          1           0       10.772833    0.476050    1.195062
    119          1           0        9.112997   -0.000066    0.929230
    120          1           0        8.602278    1.824067   -0.508761
    121          1           0       10.207703    2.547043   -0.270304
    122          1           0        9.843690    2.811663    2.045472
    123          1           0        8.407272    1.741097    2.136577
    124          1           0        7.318450    3.404448    0.578633
    125          1           0        9.754978    4.603263    0.791658
    126          1           0        8.498353    5.731082    1.524447
    127          1           0        8.401051    5.151788   -0.100873
    128          1           0        7.601190    4.591342    3.443346
    129          1           0        7.047960    2.994223    3.229338
    130          1           0        5.703904    4.988396    1.455261
    131          1           0        5.933932    5.660746    2.948390
    132          1           0        4.943678    3.676303    4.052652
    133          1           0        4.658498    2.902213    2.470254
    134          1           0        2.530678    3.870840    3.372572
    135          1           0        3.554920    5.048748    0.921734
    136          1           0        1.944858    5.618517    1.473020
    137          1           0        2.196044    3.931983    1.094711
    138          1           0        2.901010    6.641438    3.209650
    139          1           0        4.071521    6.034840    4.364233
    140          1           0        2.470258    5.468370    4.540299
 ---------------------------------------------------------------------

 SCF Done:  E(RPBE1PBE) =  -3005.39473928     A.U. after   15 cycles

 Excitation energies and oscillator strengths:

 Excited State   1:      Singlet-A      1.8954 eV  654.12 nm  f=0.3772  <S**2>=0.000
     245 -> 248        0.18110
     246 -> 247        0.69104
     246 <- 247       -0.10264
 This state for optimization and/or second-order correction.
 Total Energy, E(TD-HF/TD-DFT) =  -3005.32508330
 Copying the excited state density for this state as the 1-particle RhoCI density.

 Excited State   2:      Singlet-A      2.2430 eV  552.75 nm  f=0.1391  <S**2>=0.000
     245 -> 247        0.66023
     246 -> 248       -0.24462

 Excited State   3:      Singlet-A      2.9113 eV  425.87 nm  f=0.0001  <S**2>=0.000
     242 -> 247       -0.12323
     243 -> 247        0.65189
     243 -> 249        0.20170

 Excited State   4:      Singlet-A      2.9744 eV  416.84 nm  f=0.0002  <S**2>=0.000
     241 -> 247        0.64024
     241 -> 249       -0.14032
     241 -> 250        0.10287
     242 -> 247        0.22284

 Excited State   5:      Singlet-A      3.0916 eV  401.04 nm  f=0.0043  <S**2>=0.000
     241 -> 247       -0.22634
     242 -> 247        0.64318
     243 -> 247        0.13939

 The electronic state is 1-A.
 Alpha  occ. eigenvalues --  -46.92072 -19.26272 -19.24390 -19.20812 -19.19633
 Alpha  occ. eigenvalues --  -19.18963 -19.18364 -14.41567 -14.41022 -14.39511
 Alpha  occ. eigenvalues --  -14.38273 -10.36871 -10.35857 -10.31803 -10.31785
 Alpha  occ. eigenvalues --  -10.29849 -10.29524 -10.28888 -10.28878 -10.28252
 Alpha  occ. eigenvalues --  -10.28241 -10.27713 -10.27600 -10.27291 -10.26344
 Alpha  occ. eigenvalues --  -10.25997 -10.25798 -10.25645 -10.25432 -10.25359
 Alpha  occ. eigenvalues --  -10.25347 -10.25274 -10.25240 -10.25213 -10.25051
 Alpha  occ. eigenvalues --  -10.24913 -10.24633 -10.24574 -10.24413 -10.24178
 Alpha  occ. eigenvalues --  -10.23832 -10.23739 -10.23685 -10.23621 -10.23562
 Alpha  occ. eigenvalues --  -10.23431 -10.23370 -10.23340 -10.23335 -10.23333
 Alpha  occ. eigenvalues --  -10.23133 -10.23055 -10.22964 -10.22919 -10.22825
 Alpha  occ. eigenvalues --  -10.22792 -10.22639 -10.22555 -10.22387 -10.22363
 Alpha  occ. eigenvalues --  -10.22321 -10.22221 -10.22165 -10.22042 -10.21409
 Alpha  occ. eigenvalues --  -10.21389  -3.14208  -1.87052  -1.86594  -1.86423
 Alpha  occ. eigenvalues --   -1.11166  -1.09140  -1.03367  -1.03347  -1.02579
 Alpha  occ. eigenvalues --   -1.00632  -0.99690  -0.98492  -0.98487  -0.97389
 Alpha  occ. eigenvalues --   -0.87669  -0.84922  -0.84616  -0.84356  -0.83528
 Alpha  occ. eigenvalues --   -0.83407  -0.82722  -0.82449  -0.81910  -0.81514
 Alpha  occ. eigenvalues --   -0.81225  -0.80148  -0.79181  -0.78042  -0.77712
 Alpha  occ. eigenvalues --   -0.77381  -0.76658  -0.76323  -0.75599  -0.75053
 Alpha  occ. eigenvalues --   -0.74615  -0.73085  -0.72847  -0.71913  -0.70463
 Alpha  occ. eigenvalues --   -0.69942  -0.69880  -0.69446  -0.69093  -0.68751
 Alpha  occ. eigenvalues --   -0.67892  -0.67510  -0.66099  -0.64964  -0.63867
 Alpha  occ. eigenvalues --   -0.63354  -0.62989  -0.62001  -0.61062  -0.60561
 Alpha  occ. eigenvalues --   -0.59727  -0.59505  -0.59292  -0.58825  -0.58419
 Alpha  occ. eigenvalues --   -0.58217  -0.57070  -0.56410  -0.55863  -0.55445
 Alpha  occ. eigenvalues --   -0.54818  -0.54121  -0.53922  -0.53116  -0.52504
 Alpha  occ. eigenvalues --   -0.52005  -0.51509  -0.50964  -0.50539  -0.49952
 Alpha  occ. eigenvalues --   -0.49784  -0.49655  -0.49475  -0.49299  -0.48983
 Alpha  occ. eigenvalues --   -0.48516  -0.48441  -0.48202  -0.47912  -0.47546
 Alpha  occ. eigenvalues --   -0.47466  -0.47425  -0.47057  -0.46881  -0.46721
 Alpha  occ. eigenvalues --   -0.46581  -0.46384  -0.45919  -0.45468  -0.45430
 Alpha  occ. eigenvalues --   -0.45050  -0.44987  -0.44660  -0.44596  -0.44371
 Alpha  occ. eigenvalues --   -0.44287  -0.44193  -0.43975  -0.43665  -0.43516
 Alpha  occ. eigenvalues --   -0.43484  -0.43117  -0.43067  -0.42682  -0.42471
 Alpha  occ. eigenvalues --   -0.42122  -0.41822  -0.41680  -0.41641  -0.41359
 Alpha  occ. eigenvalues --   -0.41244  -0.40917  -0.40806  -0.40633  -0.40464
 Alpha  occ. eigenvalues --   -0.39989  -0.39940  -0.39772  -0.39598  -0.39583
 Alpha  occ. eigenvalues --   -0.39395  -0.39263  -0.39146  -0.38958  -0.38865
 Alpha  occ. eigenvalues --   -0.38761  -0.38040  -0.38023  -0.37944  -0.37885
 Alpha  occ. eigenvalues --   -0.37742  -0.37502  -0.37183  -0.37086  -0.36853
 Alpha  occ. eigenvalues --   -0.36702  -0.36631  -0.36311  -0.36134  -0.35724
 Alpha  occ. eigenvalues --   -0.35658  -0.35541  -0.35329  -0.35149  -0.35027
 Alpha  occ. eigenvalues --   -0.34850  -0.34421  -0.34105  -0.33993  -0.33768
 Alpha  occ. eigenvalues --   -0.33528  -0.33406  -0.33071  -0.32895  -0.32695
 Alpha  occ. eigenvalues --   -0.32624  -0.32571  -0.32006  -0.31854  -0.31514
 Alpha  occ. eigenvalues --   -0.31408  -0.30354  -0.30061  -0.29575  -0.29326
 Alpha  occ. eigenvalues --   -0.29246  -0.28974  -0.28539  -0.27169  -0.26273
 Alpha  occ. eigenvalues --   -0.25505  -0.25361  -0.25193  -0.25057  -0.20911
 Alpha  occ. eigenvalues --   -0.18978
 Alpha virt. eigenvalues --   -0.11198  -0.04977  -0.04139  -0.02272   0.00117
 Alpha virt. eigenvalues --    0.00616   0.00725   0.01413   0.01587   0.02959
 Alpha virt. eigenvalues --    0.03574   0.04183   0.05005   0.05543   0.05758

 Mulliken charges:
               1
     1  Mg   0.973503
     2  C   -0.001117
     3  C   -0.048964
     4  C   -0.042055
     5  C   -0.086024
     6  N   -0.335003
     7  C   -0.000192
     8  C   -0.096160
     9  C   -0.122967
    10  C    0.055479
    11  C    0.016422
    12  C    0.048458
    13  C   -0.033007
    14  C    0.223698
    15  O   -0.253104
    16  O   -0.374353
    17  N   -0.532563
    18  C    0.150471
    19  C   -0.131714
    20  C   -0.062595
    21  C    0.164893
    22  C    0.035255
    23  C    0.036150
    24  O   -0.284981
    25  C    0.014904
    26  N   -0.412082
    27  C    0.064624
    28  C   -0.097098
    29  C   -0.097797
    30  C    0.080632
    31  C    0.017202
    32  C   -0.053488
    33  C   -0.046379
    34  N   -0.444741
    35  C    0.131462
    36  C   -0.199298
    37  C   -0.051351
    38  C    0.190883
    39  C    0.086338
    40  C    0.129381
    41  O   -0.232813
    42  C   -0.136509
    43  C    0.300435
    44  O   -0.280913
    45  O   -0.397263
    46  C    0.109329
    47  C    0.236239
    48  C   -0.135953
    49  C   -0.231515
    50  C    0.009820
    51  C    0.031707
    52  C   -0.084506
    53  C    0.002977
    54  C   -0.178866
    55  C   -0.017719
    56  C   -0.014557
    57  C   -0.064472
    58  C   -0.027855
    59  C   -0.179231
    60  C   -0.000287
    61  C   -0.008871
    62  C   -0.059457
    63  C   -0.000820
    64  C   -0.204405
    65  C   -0.027456
    66  C   -0.026524
    67  H   -0.003902
    68  H    0.026796
    69  H   -0.000064
    70  H    0.063258
    71  H    0.044652
    72  H    0.047629
    73  H    0.045872
    74  H    0.049409
    75  H    0.047434
    76  H    0.042835
    77  H    0.076186
    78  H    0.054534
    79  H    0.056099
    80  H    0.055085
    81  H    0.023049
    82  H    0.055375
    83  H    0.055560
    84  H    0.060085
    85  H    0.055983
    86  H    0.044871
    87  H    0.049783
    88  H    0.048997
    89  H    0.047067
    90  H    0.033391
    91  H    0.034835
    92  H    0.039629
    93  H    0.041250
    94  H    0.050993
    95  H    0.067342
    96  H    0.043667
    97  H    0.071309
    98  H    0.086139
    99  H    0.065306
   100  H    0.078404
   101  H    0.072920
   102  H    0.063367
   103  H    0.065670
   104  H    0.030120
   105  H    0.045654
   106  H    0.050880
   107  H    0.034175
   108  H    0.043503
   109  H    0.027734
   110  H    0.052636
   111  H    0.039498
   112  H    0.014620
   113  H    0.026141
   114  H    0.028368
   115  H    0.042226
   116  H    0.030790
   117  H    0.026511
   118  H    0.029730
   119  H    0.029857
   120  H    0.027926
   121  H    0.035430
   122  H    0.030827
   123  H    0.021702
   124  H    0.024263
   125  H    0.027455
   126  H    0.032565
   127  H    0.022983
   128  H    0.025148
   129  H    0.013936
   130  H    0.018803
   131  H    0.019389
   132  H    0.036538
   133  H    0.030225
   134  H    0.029924
   135  H    0.028759
   136  H    0.040729
   137  H    0.028674
   138  H    0.033840
   139  H    0.030515
   140  H    0.033879
 Sum of Mulliken charges =  -0.00000

 Dipole moment (field-independent basis, Debye):
    X=              4.2988    Y=              2.4962    Z=             -0.9108  Tot=              5.0537
 Quadrupole moment (field-independent basis, Debye-Ang):
   XX=           -355.4684   YY=           -418.7979   ZZ=           -413.3623
   XY=            -11.1564   XZ=             -7.3574   YZ=              6.8440

 Normal termination of Gaussian 16 at Wed May  4 09:05:07 2022.
