 Gaussian 16, Revision A.03,
 Gaussian 16:  ES64L-G16RevA.03 25-Dec-2016

 --------------------------------
 #p wB97XD/Def2SVP td=(nstates=5)
 --------------------------------

 -----------------------------------------------------
 step_1551_chromophore_12 TDDFT with wB97XD functional
 -----------------------------------------------------
 Symbolic Z-matrix:
 Charge =  0 Multiplicity = 1

                         Standard orientation:
 ---------------------------------------------------------------------
 Center     Atomic      Atomic             Coordinates (Angstroms)
 Number     Number       Type             X           Y           Z
 ---------------------------------------------------------------------
      1         12           0       -4.248883    0.438237   -0.236271
      2          6           0       -2.870741   -2.663117    0.721183
      3          6           0       -1.106366    1.661901   -0.359085
      4          6           0       -5.649695    3.170588   -1.265051
      5          6           0       -7.430682   -0.970293    0.588929
      6          7           0       -2.180733   -0.504293    0.208002
      7          6           0       -1.886853   -1.787758    0.369202
      8          6           0       -0.443125   -2.076926    0.231262
      9          6           0        0.175902   -0.637705    0.077112
     10          6           0       -1.072534    0.238836   -0.105297
     11          6           0        0.990769   -0.078846    1.232056
     12          6           0       -0.045980   -3.063042   -0.858890
     13          6           0        1.227284   -3.849642   -0.622129
     14          6           0        2.189833   -3.960750   -1.816327
     15          8           0        1.859728   -3.872690   -2.982907
     16          8           0        3.448264   -4.235508   -1.333490
     17          7           0       -3.443054    2.222284   -0.741575
     18          6           0       -2.113637    2.526335   -0.738079
     19          6           0       -1.983687    3.887721   -1.303995
     20          6           0       -3.284377    4.291316   -1.659266
     21          6           0       -4.195008    3.250864   -1.218459
     22          6           0       -0.665070    4.608258   -1.586025
     23          6           0       -3.724723    5.559510   -2.340590
     24          8           0       -4.874232    5.716328   -2.842537
     25          6           0       -2.882817    6.706652   -2.519060
     26          7           0       -6.264667    1.006765   -0.216389
     27          6           0       -6.556800    2.209975   -0.775386
     28          6           0       -8.136184    2.382838   -0.733988
     29          6           0       -8.697748    1.014258   -0.223942
     30          6           0       -7.392813    0.307930    0.096458
     31          6           0       -8.604703    3.637010    0.087857
     32          6           0       -9.588496    0.299491   -1.263996
     33          6           0      -10.638459    1.038527   -2.069790
     34          7           0       -5.016219   -1.338333    0.613116
     35          6           0       -6.316849   -1.795598    0.887243
     36          6           0       -6.320761   -3.078236    1.417615
     37          6           0       -4.980087   -3.468838    1.321139
     38          6           0       -4.240050   -2.384802    0.816777
     39          6           0       -7.519102   -3.826447    1.958892
     40          6           0       -4.164211   -4.637026    1.380035
     41          8           0       -4.446919   -5.821204    1.605441
     42          6           0       -2.724021   -4.122624    1.006152
     43          6           0       -1.866768   -4.315236    2.163925
     44          8           0       -1.768677   -3.683274    3.238163
     45          8           0       -1.207096   -5.517864    1.944595
     46          6           0       -0.665672   -6.244094    3.120170
     47          6           0        4.515117   -4.200679   -2.369340
     48          6           0        5.854282   -3.891055   -1.749371
     49          6           0        7.049740   -3.713674   -2.389254
     50          6           0        7.159387   -3.610961   -3.876303
     51          6           0        8.411891   -3.508441   -1.655022
     52          6           0        9.216560   -2.257820   -2.032242
     53          6           0       10.044251   -1.741371   -0.846867
     54          6           0       10.439569   -0.238075   -0.876103
     55          6           0       11.945527   -0.119567   -1.080384
     56          6           0        9.968546    0.486367    0.460285
     57          6           0        9.443226    1.912855    0.178330
     58          6           0        8.923743    2.500924    1.550535
     59          6           0        7.980804    3.625157    1.415508
     60          6           0        8.701151    4.857128    0.905176
     61          6           0        7.149002    3.939483    2.696549
     62          6           0        5.778609    4.679846    2.498391
     63          6           0        4.651680    3.845659    3.016041
     64          6           0        3.271703    4.531681    2.924730
     65          6           0        2.676484    4.812035    1.522489
     66          6           0        3.193470    5.759026    3.779152
     67          1           0       -0.138774    2.152643   -0.478446
     68          1           0       -6.181937    4.032632   -1.673358
     69          1           0       -8.406609   -1.344407    0.907863
     70          1           0       -0.099911   -2.511879    1.170811
     71          1           0        0.803301   -0.559913   -0.810874
     72          1           0        0.353424    0.657421    1.721302
     73          1           0        1.897233    0.414367    0.879759
     74          1           0        1.244072   -0.750216    2.051352
     75          1           0        0.092829   -2.460261   -1.756832
     76          1           0       -0.866597   -3.756831   -1.039294
     77          1           0        1.106757   -4.897504   -0.346073
     78          1           0        1.668699   -3.404710    0.269476
     79          1           0       -0.352677    5.424045   -0.933483
     80          1           0       -0.495287    4.954276   -2.605240
     81          1           0        0.181055    3.943302   -1.415271
     82          1           0       -2.380078    6.904378   -1.571829
     83          1           0       -3.413980    7.587809   -2.880778
     84          1           0       -2.207123    6.483977   -3.345131
     85          1           0       -8.296017    2.462760   -1.809562
     86          1           0       -9.236363    0.954641    0.721758
     87          1           0       -7.878532    4.444197    0.185721
     88          1           0       -8.895709    3.257086    1.067723
     89          1           0       -9.405765    4.110046   -0.480663
     90          1           0      -10.050634   -0.554282   -0.768685
     91          1           0       -8.904043   -0.116531   -2.003182
     92          1           0      -10.850755    1.977893   -1.559427
     93          1           0      -11.570536    0.472643   -2.075934
     94          1           0      -10.341217    1.195131   -3.107192
     95          1           0       -7.300133   -4.887810    1.845327
     96          1           0       -8.393931   -3.598876    1.348110
     97          1           0       -7.606097   -3.447735    2.976848
     98          1           0       -2.347289   -4.718704    0.175577
     99          1           0        0.401247   -6.327472    2.914388
    100          1           0       -1.323863   -7.109091    3.029916
    101          1           0       -0.868552   -5.746792    4.068012
    102          1           0        4.334660   -3.399190   -3.086004
    103          1           0        4.556496   -5.122453   -2.949374
    104          1           0        5.904929   -4.015568   -0.667550
    105          1           0        7.744581   -4.428641   -4.298704
    106          1           0        7.662727   -2.661442   -4.059254
    107          1           0        6.241924   -3.676099   -4.462007
    108          1           0        8.990707   -4.399455   -1.898037
    109          1           0        8.232560   -3.438692   -0.582147
    110          1           0        8.492015   -1.535657   -2.409535
    111          1           0        9.932131   -2.573565   -2.791585
    112          1           0       10.972355   -2.307029   -0.935170
    113          1           0        9.639643   -2.015010    0.127980
    114          1           0        9.982649    0.208059   -1.759545
    115          1           0       12.556267   -0.692617   -0.382548
    116          1           0       12.162608    0.946914   -1.137827
    117          1           0       12.267187   -0.491562   -2.052611
    118          1           0       10.772833    0.476050    1.195062
    119          1           0        9.112997   -0.000066    0.929230
    120          1           0        8.602278    1.824067   -0.508761
    121          1           0       10.207703    2.547043   -0.270304
    122          1           0        9.843690    2.811663    2.045472
    123          1           0        8.407272    1.741097    2.136577
    124          1           0        7.318450    3.404448    0.578633
    125          1           0        9.754978    4.603263    0.791658
    126          1           0        8.498353    5.731082    1.524447
    127          1           0        8.401051    5.151788   -0.100873
    128          1           0        7.601190    4.591342    3.443346
    129          1           0        7.047960    2.994223    3.229338
    130          1           0        5.703904    4.988396    1.455261
    131          1           0        5.933932    5.660746    2.948390
    132          1           0        4.943678    3.676303    4.052652
    133          1           0        4.658498    2.902213    2.470254
    134          1           0        2.530678    3.870840    3.372572
    135          1           0        3.554920    5.048748    0.921734
    136          1           0        1.944858    5.618517    1.473020
    137          1           0        2.196044    3.931983    1.094711
    138          1           0        2.901010    6.641438    3.209650
    139          1           0        4.071521    6.034840    4.364233
    140          1           0        2.470258    5.468370    4.540299
 ---------------------------------------------------------------------

 SCF Done:  E(RwB97XD) =  -3007.90077275     A.U. after   18 cycles

 Excitation energies and oscillator strengths:

 Excited State   1:      Singlet-A      1.7016 eV  728.62 nm  f=0.3925  <S**2>=0.000
     245 -> 248        0.19059
     246 -> 247        0.68229
     245 <- 248        0.11657
 This state for optimization and/or second-order correction.
 Total Energy, E(TD-HF/TD-DFT) =  -3007.83823857
 Copying the excited state density for this state as the 1-particle RhoCI density.

 Excited State   2:      Singlet-A      2.1892 eV  566.34 nm  f=0.1374  <S**2>=0.000
     245 -> 247        0.64744
     246 -> 248       -0.27096

 Excited State   3:      Singlet-A      3.4251 eV  361.99 nm  f=0.0003  <S**2>=0.000
     240 -> 249        0.11362
     241 -> 247        0.47448
     241 -> 249        0.38330
     241 -> 250        0.19268
     244 -> 247        0.19896

 Excited State   4:      Singlet-A      3.4583 eV  358.51 nm  f=0.0015  <S**2>=0.000
     240 -> 247       -0.20313
     241 -> 247       -0.10313
     244 -> 247        0.63625

 Excited State   5:      Singlet-A      3.5308 eV  351.15 nm  f=0.0007  <S**2>=0.000
     242 -> 247        0.57314
     242 -> 248        0.10086
     242 -> 249       -0.27271
     242 -> 250        0.25014

 The electronic state is 1-A.
 Alpha  occ. eigenvalues --  -46.95007 -19.30841 -19.28930 -19.25471 -19.24351
 Alpha  occ. eigenvalues --  -19.23575 -19.23341 -14.46808 -14.45959 -14.44551
 Alpha  occ. eigenvalues --  -14.43086 -10.43640 -10.42710 -10.38794 -10.38536
 Alpha  occ. eigenvalues --  -10.36366 -10.35977 -10.35520 -10.35299 -10.34855
 Alpha  occ. eigenvalues --  -10.34742 -10.34114 -10.33777 -10.33761 -10.32341
 Alpha  occ. eigenvalues --  -10.32321 -10.32017 -10.32001 -10.31995 -10.31780
 Alpha  occ. eigenvalues --  -10.31755 -10.31693 -10.31611 -10.31577 -10.31375
 Alpha  occ. eigenvalues --  -10.31326 -10.31009 -10.30744 -10.30687 -10.30534
 Alpha  occ. eigenvalues --  -10.30135 -10.30130 -10.30104 -10.29803 -10.29789
 Alpha  occ. eigenvalues --  -10.29779 -10.29769 -10.29741 -10.29728 -10.29677
 Alpha  occ. eigenvalues --  -10.29656 -10.29468 -10.29449 -10.29349 -10.29219
 Alpha  occ. eigenvalues --  -10.29154 -10.28960 -10.28924 -10.28857 -10.28770
 Alpha  occ. eigenvalues --  -10.28743 -10.28624 -10.28611 -10.28095 -10.27873
 Alpha  occ. eigenvalues --  -10.27864  -3.21000  -1.94594  -1.94137  -1.93960
 Alpha  occ. eigenvalues --   -1.18545  -1.16552  -1.10701  -1.10671  -1.10257
 Alpha  occ. eigenvalues --   -1.08021  -1.07106  -1.06015  -1.05711  -1.04683
 Alpha  occ. eigenvalues --   -0.95215  -0.92614  -0.92295  -0.92003  -0.91110
 Alpha  occ. eigenvalues --   -0.91065  -0.90365  -0.90134  -0.89743  -0.89082
 Alpha  occ. eigenvalues --   -0.88712  -0.87791  -0.86862  -0.85714  -0.85284
 Alpha  occ. eigenvalues --   -0.85066  -0.84428  -0.83995  -0.83247  -0.82645
 Alpha  occ. eigenvalues --   -0.82280  -0.80918  -0.80463  -0.79443  -0.78029
 Alpha  occ. eigenvalues --   -0.77699  -0.77575  -0.77018  -0.76801  -0.76442
 Alpha  occ. eigenvalues --   -0.75451  -0.75075  -0.73638  -0.72598  -0.71427
 Alpha  occ. eigenvalues --   -0.71022  -0.70514  -0.69571  -0.68716  -0.68149
 Alpha  occ. eigenvalues --   -0.67199  -0.67132  -0.66654  -0.66254  -0.66118
 Alpha  occ. eigenvalues --   -0.65707  -0.64745  -0.64058  -0.63287  -0.63034
 Alpha  occ. eigenvalues --   -0.62286  -0.61503  -0.61411  -0.60401  -0.59997
 Alpha  occ. eigenvalues --   -0.59379  -0.58977  -0.58379  -0.58035  -0.57388
 Alpha  occ. eigenvalues --   -0.57278  -0.57098  -0.56954  -0.56669  -0.56358
 Alpha  occ. eigenvalues --   -0.55936  -0.55842  -0.55564  -0.55428  -0.55231
 Alpha  occ. eigenvalues --   -0.54908  -0.54742  -0.54510  -0.54193  -0.54138
 Alpha  occ. eigenvalues --   -0.53996  -0.53631  -0.53205  -0.52841  -0.52825
 Alpha  occ. eigenvalues --   -0.52397  -0.52285  -0.52148  -0.52005  -0.51747
 Alpha  occ. eigenvalues --   -0.51574  -0.51543  -0.51264  -0.50948  -0.50793
 Alpha  occ. eigenvalues --   -0.50716  -0.50407  -0.50358  -0.49988  -0.49838
 Alpha  occ. eigenvalues --   -0.49431  -0.49074  -0.48994  -0.48888  -0.48611
 Alpha  occ. eigenvalues --   -0.48480  -0.48130  -0.48071  -0.47827  -0.47587
 Alpha  occ. eigenvalues --   -0.47213  -0.47088  -0.46971  -0.46804  -0.46686
 Alpha  occ. eigenvalues --   -0.46493  -0.46418  -0.46299  -0.46069  -0.45993
 Alpha  occ. eigenvalues --   -0.45883  -0.45234  -0.45207  -0.45129  -0.45045
 Alpha  occ. eigenvalues --   -0.44888  -0.44559  -0.44259  -0.44082  -0.43990
 Alpha  occ. eigenvalues --   -0.43762  -0.43730  -0.43423  -0.43262  -0.42920
 Alpha  occ. eigenvalues --   -0.42706  -0.42687  -0.42498  -0.42336  -0.42114
 Alpha  occ. eigenvalues --   -0.41856  -0.41504  -0.41048  -0.40969  -0.40845
 Alpha  occ. eigenvalues --   -0.40596  -0.40463  -0.40001  -0.39817  -0.39771
 Alpha  occ. eigenvalues --   -0.39735  -0.39614  -0.39049  -0.38831  -0.38545
 Alpha  occ. eigenvalues --   -0.38331  -0.37432  -0.37034  -0.36655  -0.36195
 Alpha  occ. eigenvalues --   -0.36015  -0.35822  -0.35471  -0.33842  -0.32942
 Alpha  occ. eigenvalues --   -0.32600  -0.32416  -0.31821  -0.31669  -0.25879
 Alpha  occ. eigenvalues --   -0.23179
 Alpha virt. eigenvalues --   -0.07078   0.00444   0.02113   0.04241   0.05957
 Alpha virt. eigenvalues --    0.07416   0.07477   0.08182   0.08338   0.09285
 Alpha virt. eigenvalues --    0.10271   0.10738   0.11882   0.12338   0.12534

 Mulliken charges:
               1
     1  Mg   0.963774
     2  C    0.003002
     3  C   -0.061133
     4  C   -0.063916
     5  C   -0.105626
     6  N   -0.298170
     7  C   -0.040431
     8  C   -0.066147
     9  C   -0.098998
    10  C    0.043089
    11  C    0.025526
    12  C    0.058730
    13  C   -0.018460
    14  C    0.216006
    15  O   -0.251342
    16  O   -0.373672
    17  N   -0.500130
    18  C    0.145994
    19  C   -0.122159
    20  C   -0.049493
    21  C    0.156218
    22  C    0.043889
    23  C    0.033374
    24  O   -0.278134
    25  C    0.024176
    26  N   -0.380695
    27  C    0.056677
    28  C   -0.071517
    29  C   -0.071681
    30  C    0.065037
    31  C    0.029162
    32  C   -0.039225
    33  C   -0.030801
    34  N   -0.405655
    35  C    0.126261
    36  C   -0.200841
    37  C   -0.050694
    38  C    0.171901
    39  C    0.098493
    40  C    0.112121
    41  O   -0.223638
    42  C   -0.098941
    43  C    0.273940
    44  O   -0.274299
    45  O   -0.395707
    46  C    0.123800
    47  C    0.249591
    48  C   -0.144916
    49  C   -0.215407
    50  C    0.021541
    51  C    0.047639
    52  C   -0.063928
    53  C    0.016633
    54  C   -0.150726
    55  C   -0.004418
    56  C   -0.000461
    57  C   -0.048718
    58  C   -0.005228
    59  C   -0.148742
    60  C    0.007493
    61  C    0.005531
    62  C   -0.047207
    63  C    0.020601
    64  C   -0.174046
    65  C   -0.012866
    66  C   -0.019568
    67  H   -0.013905
    68  H    0.021460
    69  H   -0.007496
    70  H    0.045512
    71  H    0.035225
    72  H    0.039326
    73  H    0.041074
    74  H    0.045767
    75  H    0.038267
    76  H    0.033380
    77  H    0.072146
    78  H    0.047130
    79  H    0.053604
    80  H    0.051201
    81  H    0.019046
    82  H    0.050096
    83  H    0.055667
    84  H    0.055394
    85  H    0.044020
    86  H    0.034926
    87  H    0.043748
    88  H    0.043447
    89  H    0.041339
    90  H    0.025618
    91  H    0.025165
    92  H    0.030488
    93  H    0.036181
    94  H    0.045618
    95  H    0.063001
    96  H    0.037262
    97  H    0.065669
    98  H    0.079463
    99  H    0.061745
   100  H    0.075506
   101  H    0.069362
   102  H    0.056561
   103  H    0.061526
   104  H    0.027615
   105  H    0.040525
   106  H    0.043797
   107  H    0.029655
   108  H    0.035924
   109  H    0.018403
   110  H    0.041223
   111  H    0.030905
   112  H    0.005176
   113  H    0.017017
   114  H    0.016824
   115  H    0.036088
   116  H    0.023821
   117  H    0.019842
   118  H    0.021810
   119  H    0.019315
   120  H    0.018055
   121  H    0.026064
   122  H    0.020156
   123  H    0.011136
   124  H    0.009866
   125  H    0.019659
   126  H    0.026916
   127  H    0.018029
   128  H    0.017504
   129  H    0.003651
   130  H    0.007109
   131  H    0.011188
   132  H    0.027168
   133  H    0.021674
   134  H    0.019643
   135  H    0.019154
   136  H    0.034723
   137  H    0.022726
   138  H    0.028104
   139  H    0.024331
   140  H    0.029203
 Sum of Mulliken charges =  -0.00000

 Dipole moment (field-independent basis, Debye):
    X=              4.7518    Y=              2.9610    Z=             -1.0601  Tot=              5.6983
 Quadrupole moment (field-independent basis, Debye-Ang):
   XX=           -359.2095   YY=           -416.5264   ZZ=           -413.0203
   XY=            -12.6813   XZ=             -6.7696   YZ=              6.1856

 Normal termination of Gaussian 16 at Wed May  4 09:32:57 2022.
