 Gaussian 16, Revision A.03,
 Gaussian 16:  ES64L-G16RevA.03 25-Dec-2016

 --------------------
 #p ZINDO=(nstates=5)
 --------------------

 ------------------------------
 step_1551_chromophore_12 ZINDO
 ------------------------------
 Symbolic Z-matrix:
 Charge =  0 Multiplicity = 1

                         Standard orientation:
 ---------------------------------------------------------------------
 Center     Atomic      Atomic             Coordinates (Angstroms)
 Number     Number       Type             X           Y           Z
 ---------------------------------------------------------------------
      1         12           0       -4.248883    0.438237   -0.236271
      2          6           0       -2.870741   -2.663117    0.721183
      3          6           0       -1.106366    1.661901   -0.359085
      4          6           0       -5.649695    3.170588   -1.265051
      5          6           0       -7.430682   -0.970293    0.588929
      6          7           0       -2.180733   -0.504293    0.208002
      7          6           0       -1.886853   -1.787758    0.369202
      8          6           0       -0.443125   -2.076926    0.231262
      9          6           0        0.175902   -0.637705    0.077112
     10          6           0       -1.072534    0.238836   -0.105297
     11          6           0        0.990769   -0.078846    1.232056
     12          6           0       -0.045980   -3.063042   -0.858890
     13          6           0        1.227284   -3.849642   -0.622129
     14          6           0        2.189833   -3.960750   -1.816327
     15          8           0        1.859728   -3.872690   -2.982907
     16          8           0        3.448264   -4.235508   -1.333490
     17          7           0       -3.443054    2.222284   -0.741575
     18          6           0       -2.113637    2.526335   -0.738079
     19          6           0       -1.983687    3.887721   -1.303995
     20          6           0       -3.284377    4.291316   -1.659266
     21          6           0       -4.195008    3.250864   -1.218459
     22          6           0       -0.665070    4.608258   -1.586025
     23          6           0       -3.724723    5.559510   -2.340590
     24          8           0       -4.874232    5.716328   -2.842537
     25          6           0       -2.882817    6.706652   -2.519060
     26          7           0       -6.264667    1.006765   -0.216389
     27          6           0       -6.556800    2.209975   -0.775386
     28          6           0       -8.136184    2.382838   -0.733988
     29          6           0       -8.697748    1.014258   -0.223942
     30          6           0       -7.392813    0.307930    0.096458
     31          6           0       -8.604703    3.637010    0.087857
     32          6           0       -9.588496    0.299491   -1.263996
     33          6           0      -10.638459    1.038527   -2.069790
     34          7           0       -5.016219   -1.338333    0.613116
     35          6           0       -6.316849   -1.795598    0.887243
     36          6           0       -6.320761   -3.078236    1.417615
     37          6           0       -4.980087   -3.468838    1.321139
     38          6           0       -4.240050   -2.384802    0.816777
     39          6           0       -7.519102   -3.826447    1.958892
     40          6           0       -4.164211   -4.637026    1.380035
     41          8           0       -4.446919   -5.821204    1.605441
     42          6           0       -2.724021   -4.122624    1.006152
     43          6           0       -1.866768   -4.315236    2.163925
     44          8           0       -1.768677   -3.683274    3.238163
     45          8           0       -1.207096   -5.517864    1.944595
     46          6           0       -0.665672   -6.244094    3.120170
     47          6           0        4.515117   -4.200679   -2.369340
     48          6           0        5.854282   -3.891055   -1.749371
     49          6           0        7.049740   -3.713674   -2.389254
     50          6           0        7.159387   -3.610961   -3.876303
     51          6           0        8.411891   -3.508441   -1.655022
     52          6           0        9.216560   -2.257820   -2.032242
     53          6           0       10.044251   -1.741371   -0.846867
     54          6           0       10.439569   -0.238075   -0.876103
     55          6           0       11.945527   -0.119567   -1.080384
     56          6           0        9.968546    0.486367    0.460285
     57          6           0        9.443226    1.912855    0.178330
     58          6           0        8.923743    2.500924    1.550535
     59          6           0        7.980804    3.625157    1.415508
     60          6           0        8.701151    4.857128    0.905176
     61          6           0        7.149002    3.939483    2.696549
     62          6           0        5.778609    4.679846    2.498391
     63          6           0        4.651680    3.845659    3.016041
     64          6           0        3.271703    4.531681    2.924730
     65          6           0        2.676484    4.812035    1.522489
     66          6           0        3.193470    5.759026    3.779152
     67          1           0       -0.138774    2.152643   -0.478446
     68          1           0       -6.181937    4.032632   -1.673358
     69          1           0       -8.406609   -1.344407    0.907863
     70          1           0       -0.099911   -2.511879    1.170811
     71          1           0        0.803301   -0.559913   -0.810874
     72          1           0        0.353424    0.657421    1.721302
     73          1           0        1.897233    0.414367    0.879759
     74          1           0        1.244072   -0.750216    2.051352
     75          1           0        0.092829   -2.460261   -1.756832
     76          1           0       -0.866597   -3.756831   -1.039294
     77          1           0        1.106757   -4.897504   -0.346073
     78          1           0        1.668699   -3.404710    0.269476
     79          1           0       -0.352677    5.424045   -0.933483
     80          1           0       -0.495287    4.954276   -2.605240
     81          1           0        0.181055    3.943302   -1.415271
     82          1           0       -2.380078    6.904378   -1.571829
     83          1           0       -3.413980    7.587809   -2.880778
     84          1           0       -2.207123    6.483977   -3.345131
     85          1           0       -8.296017    2.462760   -1.809562
     86          1           0       -9.236363    0.954641    0.721758
     87          1           0       -7.878532    4.444197    0.185721
     88          1           0       -8.895709    3.257086    1.067723
     89          1           0       -9.405765    4.110046   -0.480663
     90          1           0      -10.050634   -0.554282   -0.768685
     91          1           0       -8.904043   -0.116531   -2.003182
     92          1           0      -10.850755    1.977893   -1.559427
     93          1           0      -11.570536    0.472643   -2.075934
     94          1           0      -10.341217    1.195131   -3.107192
     95          1           0       -7.300133   -4.887810    1.845327
     96          1           0       -8.393931   -3.598876    1.348110
     97          1           0       -7.606097   -3.447735    2.976848
     98          1           0       -2.347289   -4.718704    0.175577
     99          1           0        0.401247   -6.327472    2.914388
    100          1           0       -1.323863   -7.109091    3.029916
    101          1           0       -0.868552   -5.746792    4.068012
    102          1           0        4.334660   -3.399190   -3.086004
    103          1           0        4.556496   -5.122453   -2.949374
    104          1           0        5.904929   -4.015568   -0.667550
    105          1           0        7.744581   -4.428641   -4.298704
    106          1           0        7.662727   -2.661442   -4.059254
    107          1           0        6.241924   -3.676099   -4.462007
    108          1           0        8.990707   -4.399455   -1.898037
    109          1           0        8.232560   -3.438692   -0.582147
    110          1           0        8.492015   -1.535657   -2.409535
    111          1           0        9.932131   -2.573565   -2.791585
    112          1           0       10.972355   -2.307029   -0.935170
    113          1           0        9.639643   -2.015010    0.127980
    114          1           0        9.982649    0.208059   -1.759545
    115          1           0       12.556267   -0.692617   -0.382548
    116          1           0       12.162608    0.946914   -1.137827
    117          1           0       12.267187   -0.491562   -2.052611
    118          1           0       10.772833    0.476050    1.195062
    119          1           0        9.112997   -0.000066    0.929230
    120          1           0        8.602278    1.824067   -0.508761
    121          1           0       10.207703    2.547043   -0.270304
    122          1           0        9.843690    2.811663    2.045472
    123          1           0        8.407272    1.741097    2.136577
    124          1           0        7.318450    3.404448    0.578633
    125          1           0        9.754978    4.603263    0.791658
    126          1           0        8.498353    5.731082    1.524447
    127          1           0        8.401051    5.151788   -0.100873
    128          1           0        7.601190    4.591342    3.443346
    129          1           0        7.047960    2.994223    3.229338
    130          1           0        5.703904    4.988396    1.455261
    131          1           0        5.933932    5.660746    2.948390
    132          1           0        4.943678    3.676303    4.052652
    133          1           0        4.658498    2.902213    2.470254
    134          1           0        2.530678    3.870840    3.372572
    135          1           0        3.554920    5.048748    0.921734
    136          1           0        1.944858    5.618517    1.473020
    137          1           0        2.196044    3.931983    1.094711
    138          1           0        2.901010    6.641438    3.209650
    139          1           0        4.071521    6.034840    4.364233
    140          1           0        2.470258    5.468370    4.540299
 ---------------------------------------------------------------------

 SCF Done:  E(RZINDO/S) =  -474.658896535     A.U. after   19 cycles

 Excitation energies and oscillator strengths:

 Excited State   1:      Singlet-A      1.2726 eV  974.24 nm  f=0.6003  <S**2>=0.000
     175 ->178         0.18077
     176 ->177         0.66537
 This state for optimization and/or second-order correction.
 Total Energy, E(CIS/TDA) =  -474.612128224
 Copying the excited state density for this state as the 1-particle RhoCI density.

 Excited State   2:      Singlet-A      1.9274 eV  643.29 nm  f=0.0688  <S**2>=0.000
     175 ->177         0.56234
     176 ->178        -0.39244

 Excited State   3:      Singlet-A      2.8043 eV  442.12 nm  f=0.0002  <S**2>=0.000
     168 ->177         0.30104
     168 ->179        -0.47253
     168 ->180         0.24051
     168 ->184        -0.16811
     168 ->186         0.19943

 Excited State   4:      Singlet-A      2.9589 eV  419.03 nm  f=0.6139  <S**2>=0.000
     175 ->177         0.30397
     176 ->178         0.51187
     176 ->179        -0.26521
     176 ->180        -0.17402

 Excited State   5:      Singlet-A      3.0102 eV  411.88 nm  f=0.0037  <S**2>=0.000
     170 ->180         0.10537
     171 ->177         0.34115
     171 ->178        -0.20217
     171 ->179         0.23345
     171 ->180         0.32975
     171 ->183         0.12474
     171 ->186        -0.16795
     171 ->188        -0.13931

 The electronic state is 1-A.
 Alpha  occ. eigenvalues --   -1.86473  -1.82116  -1.80970  -1.73311  -1.71935
 Alpha  occ. eigenvalues --   -1.71240  -1.66352  -1.61900  -1.59537  -1.57833
 Alpha  occ. eigenvalues --   -1.57500  -1.52797  -1.50169  -1.48571  -1.47480
 Alpha  occ. eigenvalues --   -1.44826  -1.42404  -1.40685  -1.39662  -1.38951
 Alpha  occ. eigenvalues --   -1.35860  -1.34766  -1.34014  -1.32530  -1.28602
 Alpha  occ. eigenvalues --   -1.28165  -1.24593  -1.22650  -1.21715  -1.19453
 Alpha  occ. eigenvalues --   -1.18471  -1.16087  -1.15994  -1.14633  -1.13176
 Alpha  occ. eigenvalues --   -1.12871  -1.12015  -1.11618  -1.05375  -1.03606
 Alpha  occ. eigenvalues --   -1.02533  -1.02145  -1.00573  -0.97644  -0.97193
 Alpha  occ. eigenvalues --   -0.95785  -0.94267  -0.93710  -0.91476  -0.91313
 Alpha  occ. eigenvalues --   -0.91013  -0.89486  -0.89215  -0.87968  -0.86360
 Alpha  occ. eigenvalues --   -0.85683  -0.84728  -0.83513  -0.82902  -0.80856
 Alpha  occ. eigenvalues --   -0.80031  -0.78594  -0.77715  -0.77140  -0.76568
 Alpha  occ. eigenvalues --   -0.76359  -0.75705  -0.75281  -0.74557  -0.73960
 Alpha  occ. eigenvalues --   -0.73465  -0.73270  -0.72766  -0.71698  -0.70826
 Alpha  occ. eigenvalues --   -0.70223  -0.69598  -0.68844  -0.68379  -0.68206
 Alpha  occ. eigenvalues --   -0.68022  -0.67384  -0.67298  -0.66668  -0.66125
 Alpha  occ. eigenvalues --   -0.65814  -0.65482  -0.64340  -0.63998  -0.63875
 Alpha  occ. eigenvalues --   -0.63561  -0.62943  -0.62731  -0.62174  -0.61845
 Alpha  occ. eigenvalues --   -0.61535  -0.61317  -0.60667  -0.60211  -0.59895
 Alpha  occ. eigenvalues --   -0.59335  -0.59208  -0.58767  -0.58459  -0.58252
 Alpha  occ. eigenvalues --   -0.57767  -0.57378  -0.57283  -0.56729  -0.56689
 Alpha  occ. eigenvalues --   -0.56111  -0.55489  -0.55051  -0.55014  -0.54925
 Alpha  occ. eigenvalues --   -0.54351  -0.54253  -0.53978  -0.53732  -0.53022
 Alpha  occ. eigenvalues --   -0.52490  -0.51999  -0.51586  -0.51410  -0.51225
 Alpha  occ. eigenvalues --   -0.50831  -0.50577  -0.50429  -0.50251  -0.50008
 Alpha  occ. eigenvalues --   -0.49799  -0.49670  -0.49378  -0.49197  -0.49118
 Alpha  occ. eigenvalues --   -0.48743  -0.48344  -0.47913  -0.47685  -0.47405
 Alpha  occ. eigenvalues --   -0.47307  -0.47207  -0.47200  -0.47146  -0.46593
 Alpha  occ. eigenvalues --   -0.46250  -0.45963  -0.45799  -0.45406  -0.45370
 Alpha  occ. eigenvalues --   -0.45199  -0.45138  -0.44494  -0.44249  -0.44165
 Alpha  occ. eigenvalues --   -0.43897  -0.42993  -0.42726  -0.42715  -0.42047
 Alpha  occ. eigenvalues --   -0.41860  -0.41780  -0.40701  -0.39393  -0.38851
 Alpha  occ. eigenvalues --   -0.38230  -0.36494  -0.35397  -0.34969  -0.34307
 Alpha  occ. eigenvalues --   -0.33988  -0.32265  -0.32220  -0.31877  -0.26532
 Alpha  occ. eigenvalues --   -0.21844
 Alpha virt. eigenvalues --   -0.08549  -0.02007  -0.00686   0.00897   0.01860
 Alpha virt. eigenvalues --    0.02608   0.03010   0.03336   0.04381   0.05009
 Alpha virt. eigenvalues --    0.06129   0.07009   0.07127   0.07723   0.08032

 Mulliken charges:
               1
     1  Mg   0.434011
     2  C   -0.030649
     3  C   -0.073102
     4  C   -0.083192
     5  C   -0.070160
     6  N   -0.275697
     7  C    0.121903
     8  C    0.008745
     9  C    0.013225
    10  C    0.147603
    11  C   -0.048390
    12  C   -0.018744
    13  C    0.003065
    14  C    0.469632
    15  O   -0.513961
    16  O   -0.271609
    17  N   -0.323385
    18  C    0.127048
    19  C    0.022298
    20  C   -0.024154
    21  C    0.154960
    22  C   -0.047117
    23  C    0.332634
    24  O   -0.547789
    25  C   -0.018225
    26  N   -0.274434
    27  C    0.151657
    28  C    0.005129
    29  C    0.002165
    30  C    0.106007
    31  C   -0.050797
    32  C   -0.027248
    33  C   -0.053392
    34  N   -0.328101
    35  C    0.073085
    36  C    0.022596
    37  C   -0.062821
    38  C    0.118025
    39  C   -0.040770
    40  C    0.328078
    41  O   -0.542294
    42  C    0.060757
    43  C    0.488952
    44  O   -0.543288
    45  O   -0.294109
    46  C    0.067133
    47  C    0.108160
    48  C   -0.095606
    49  C   -0.013180
    50  C   -0.045086
    51  C   -0.024025
    52  C   -0.028836
    53  C   -0.040241
    54  C   -0.014584
    55  C   -0.053746
    56  C   -0.037550
    57  C   -0.040815
    58  C   -0.029726
    59  C   -0.003323
    60  C   -0.060041
    61  C   -0.046333
    62  C   -0.035313
    63  C   -0.014660
    64  C   -0.007766
    65  C   -0.056255
    66  C   -0.055218
    67  H    0.018872
    68  H    0.040677
    69  H    0.022983
    70  H    0.034449
    71  H    0.028450
    72  H    0.021866
    73  H    0.020301
    74  H    0.027682
    75  H    0.029366
    76  H    0.026493
    77  H    0.049407
    78  H    0.035741
    79  H    0.034332
    80  H    0.031851
    81  H    0.014596
    82  H    0.029713
    83  H    0.040580
    84  H    0.044100
    85  H    0.036165
    86  H    0.035747
    87  H    0.027594
    88  H    0.028174
    89  H    0.021294
    90  H    0.015967
    91  H    0.014647
    92  H    0.017390
    93  H    0.016657
    94  H    0.025341
    95  H    0.037909
    96  H    0.024332
    97  H    0.041972
    98  H    0.059174
    99  H    0.041638
   100  H    0.049490
   101  H    0.054920
   102  H    0.049028
   103  H    0.053997
   104  H    0.027700
   105  H    0.025719
   106  H    0.028516
   107  H    0.020869
   108  H    0.027432
   109  H    0.021624
   110  H    0.025985
   111  H    0.021527
   112  H    0.010444
   113  H    0.022898
   114  H    0.022930
   115  H    0.026074
   116  H    0.012532
   117  H    0.008345
   118  H    0.023459
   119  H    0.018022
   120  H    0.018381
   121  H    0.025260
   122  H    0.018466
   123  H    0.015709
   124  H    0.017229
   125  H    0.019308
   126  H    0.020047
   127  H    0.009118
   128  H    0.017620
   129  H    0.011300
   130  H    0.014002
   131  H    0.016918
   132  H    0.022111
   133  H    0.017838
   134  H    0.006062
   135  H    0.017506
   136  H    0.023046
   137  H    0.011518
   138  H    0.020019
   139  H    0.015953
   140  H    0.014478
 Sum of Mulliken charges =  -0.00000

 Dipole moment (field-independent basis, Debye):
    X=              7.7620    Y=              5.5242    Z=             -2.1808  Tot=              9.7736
 N-N= 4.455281363868D+03 E-N= 0.000000000000D+00  KE=-9.584985245409D+03
 Leave Link  601 at Wed May  4 09:44:40 2022, MaxMem=  6710886400 cpu:               0.8 elap:               0.0
 (Enter /sw/apps/gaussian-16.0/g16/l9999.exe)
 1\1\GINC-BP1-COMPUTE102\SP\RZINDO CIS\STO-3G\C55H74Mg1N4O6\OF15641\04-
 May-2022\0\\#p ZINDO=(nstates=5)\\step_1551_chromophore_12 ZINDO\\0,1\
 Mg,0,47.958,14.614,27.756\C,0,45.995,14.497,30.683\C,0,49.839,16.981,2
 9.255\C,0,49.761,14.489,25.069\C,0,45.432,12.583,26.245\N,0,47.827,15.
 642,29.827\C,0,47.094,15.281,30.872\C,0,47.545,15.894,32.14\C,0,48.681
 ,16.871,31.657\C,0,48.867,16.458,30.189\C,0,48.411,18.366,31.705\C,0,4
 7.955,14.938,33.252\C,0,47.787,15.445,34.67\C,0,48.962,15.187,35.628\O

 Normal termination of Gaussian 16 at Wed May  4 09:44:41 2022.
