 Gaussian 16, Revision A.03,
 Gaussian 16:  ES64L-G16RevA.03 25-Dec-2016

 ------------------------------
 #p blyp/Def2SVP td=(nstates=5)
 ------------------------------

 --------------------------------------------------
 step_1301_chromophore_1 TDDFT with blyp functional
 --------------------------------------------------
 Symbolic Z-matrix:
 Charge =  0 Multiplicity = 1

                         Standard orientation:
 ---------------------------------------------------------------------
 Center     Atomic      Atomic             Coordinates (Angstroms)
 Number     Number       Type             X           Y           Z
 ---------------------------------------------------------------------
      1         12           0        6.314914    0.444618    0.102214
      2          6           0        4.036782   -2.085752   -0.902080
      3          6           0        4.076982    2.818045   -1.146245
      4          6           0        8.690413    2.778055    0.403545
      5          6           0        8.577021   -2.051425    0.884955
      6          7           0        4.258793    0.329973   -0.859956
      7          6           0        3.517418   -0.792987   -1.214791
      8          6           0        2.175406   -0.442761   -1.790591
      9          6           0        2.197072    1.168585   -1.924415
     10          6           0        3.595431    1.501509   -1.263848
     11          6           0        1.968109    1.740287   -3.301212
     12          6           0        0.907186   -1.014928   -1.026184
     13          6           0       -0.531518   -0.429197   -1.422414
     14          6           0       -1.680136   -1.470267   -1.461341
     15          8           0       -1.614766   -2.515953   -2.145345
     16          8           0       -2.782946   -1.159833   -0.670770
     17          7           0        6.328997    2.510590   -0.212067
     18          6           0        5.285835    3.350184   -0.582349
     19          6           0        5.680855    4.754820   -0.520646
     20          6           0        7.028671    4.752910   -0.140569
     21          6           0        7.415035    3.328991    0.073575
     22          6           0        4.674553    5.874755   -0.919722
     23          6           0        7.895821    5.950566   -0.068937
     24          8           0        9.082238    5.866316    0.073854
     25          6           0        7.342585    7.309438   -0.153757
     26          7           0        8.409294    0.330753    0.373512
     27          6           0        9.191314    1.483345    0.551270
     28          6           0       10.524651    1.116991    1.133522
     29          6           0       10.342665   -0.447272    1.530318
     30          6           0        9.001533   -0.762029    0.928241
     31          6           0       11.767724    1.372464    0.208872
     32          6           0       10.472365   -0.845360    3.005859
     33          6           0        9.642206   -0.109447    4.035781
     34          7           0        6.337154   -1.608250    0.084890
     35          6           0        7.362193   -2.483501    0.391893
     36          6           0        6.943618   -3.851744    0.204132
     37          6           0        5.630423   -3.714887   -0.204031
     38          6           0        5.310594   -2.367884   -0.357793
     39          6           0        7.739200   -5.200694    0.537730
     40          6           0        4.437666   -4.486355   -0.425157
     41          8           0        4.173096   -5.691720   -0.226257
     42          6           0        3.305627   -3.451241   -0.917644
     43          6           0        2.133898   -3.809672    0.018831
     44          8           0        2.074860   -3.581884    1.223657
     45          8           0        1.294894   -4.634332   -0.684988
     46          6           0        0.191166   -5.123846    0.160614
     47          6           0       -3.896891   -2.125449   -0.524845
     48          6           0       -5.207764   -1.484364   -0.893393
     49          6           0       -6.332076   -2.158434   -1.184484
     50          6           0       -6.519089   -3.738909   -1.168810
     51          6           0       -7.523395   -1.295573   -1.498486
     52          6           0       -8.531142   -1.246622   -0.320565
     53          6           0       -8.084928   -0.277828    0.782581
     54          6           0       -9.090465    0.908785    0.922243
     55          6           0       -8.303045    2.244784    1.042643
     56          6           0       -9.974215    0.765356    2.216832
     57          6           0      -11.258250    1.484693    2.097174
     58          6           0      -12.455974    0.483558    2.064156
     59          6           0      -13.640097    1.028262    2.967882
     60          6           0      -13.744881    0.329745    4.398569
     61          6           0      -14.957365    0.863676    2.146661
     62          6           0      -14.966541    1.844678    0.943582
     63          6           0      -15.168258    1.013043   -0.395149
     64          6           0      -15.521801    1.926357   -1.641747
     65          6           0      -16.681771    1.408631   -2.423787
     66          6           0      -14.293467    2.007944   -2.526932
     67          1           0        3.402137    3.571920   -1.557240
     68          1           0        9.469230    3.507891    0.634121
     69          1           0        9.205828   -2.842304    1.301350
     70          1           0        2.062834   -0.984022   -2.731230
     71          1           0        1.406668    1.472414   -1.237637
     72          1           0        2.422469    2.673509   -3.633864
     73          1           0        0.904428    1.975239   -3.271778
     74          1           0        2.286878    1.027779   -4.061517
     75          1           0        1.155847   -0.962656    0.033762
     76          1           0        0.881446   -2.035599   -1.405770
     77          1           0       -0.481081    0.113041   -2.366281
     78          1           0       -0.721388    0.195051   -0.548877
     79          1           0        4.596147    6.621655   -0.130027
     80          1           0        3.652149    5.539644   -1.095213
     81          1           0        5.083885    6.300016   -1.835315
     82          1           0        7.048231    7.525104   -1.181145
     83          1           0        8.140477    8.012447    0.085619
     84          1           0        6.617891    7.361946    0.659421
     85          1           0       10.692970    1.685207    2.048791
     86          1           0       11.150033   -0.972080    1.019461
     87          1           0       11.323208    1.800036   -0.690774
     88          1           0       12.309716    0.449287    0.003802
     89          1           0       12.557675    1.960083    0.676861
     90          1           0       11.546419   -0.761923    3.172499
     91          1           0       10.198027   -1.899856    3.040872
     92          1           0        8.837371    0.498539    3.622379
     93          1           0       10.272318    0.570975    4.609518
     94          1           0        9.109494   -0.734229    4.751721
     95          1           0        8.202582   -5.068016    1.515433
     96          1           0        8.386538   -5.566144   -0.260303
     97          1           0        6.899372   -5.890308    0.622008
     98          1           0        3.044744   -3.609243   -1.963533
     99          1           0        0.499501   -5.931759    0.824282
    100          1           0       -0.609677   -5.452294   -0.502415
    101          1           0       -0.326693   -4.299931    0.650299
    102          1           0       -4.056269   -2.477426    0.495069
    103          1           0       -3.751289   -3.048963   -1.086347
    104          1           0       -5.182700   -0.396649   -0.960094
    105          1           0       -7.196437   -4.003338   -0.356722
    106          1           0       -5.631055   -4.235781   -0.778381
    107          1           0       -6.673800   -4.133945   -2.173014
    108          1           0       -7.971195   -1.698349   -2.406774
    109          1           0       -7.138915   -0.343545   -1.866761
    110          1           0       -8.651393   -2.242379    0.105625
    111          1           0       -9.500997   -1.014928   -0.759760
    112          1           0       -7.139685    0.144227    0.439952
    113          1           0       -7.733825   -0.678058    1.733174
    114          1           0       -9.748765    0.860680    0.055553
    115          1           0       -7.486366    2.342160    1.757828
    116          1           0       -9.028774    3.045508    1.180644
    117          1           0       -7.886812    2.580992    0.092888
    118          1           0       -9.469834    1.231373    3.064020
    119          1           0      -10.065456   -0.317653    2.299169
    120          1           0      -11.319900    2.159237    1.243917
    121          1           0      -11.237051    2.171672    2.943058
    122          1           0      -12.170935   -0.530046    2.346627
    123          1           0      -12.788446    0.432318    1.027093
    124          1           0      -13.533293    2.103770    3.112912
    125          1           0      -13.452252    0.989720    5.214679
    126          1           0      -13.083928   -0.536819    4.405823
    127          1           0      -14.739630   -0.018005    4.677189
    128          1           0      -15.908237    0.931413    2.672916
    129          1           0      -14.920749   -0.165971    1.790339
    130          1           0      -14.091044    2.493413    0.968271
    131          1           0      -15.878774    2.436586    1.020418
    132          1           0      -15.914793    0.227827   -0.282612
    133          1           0      -14.287179    0.422857   -0.648740
    134          1           0      -15.822967    2.932393   -1.351226
    135          1           0      -17.233543    0.561877   -2.015246
    136          1           0      -16.300544    0.977058   -3.348715
    137          1           0      -17.373012    2.222351   -2.641362
    138          1           0      -14.622007    2.440269   -3.471888
    139          1           0      -13.834983    1.029239   -2.665038
    140          1           0      -13.532190    2.663693   -2.103406
 ---------------------------------------------------------------------

 SCF Done:  E(RB-LYP) =  -3007.38747183     A.U. after   21 cycles

 Excitation energies and oscillator strengths:

 Excited State   1:      Singlet-A      1.7871 eV  693.79 nm  f=0.1543  <S**2>=0.000
     244 -> 247       -0.45112
     245 -> 247        0.14207
     245 -> 248        0.14603
     246 -> 247        0.51327
     246 <- 247       -0.10734
 This state for optimization and/or second-order correction.
 Total Energy, E(TD-HF/TD-DFT) =  -3007.32179880
 Copying the excited state density for this state as the 1-particle RhoCI density.

 Excited State   2:      Singlet-A      1.8344 eV  675.88 nm  f=0.1556  <S**2>=0.000
     244 -> 247        0.49573
     245 -> 247       -0.15175
     245 -> 248        0.14272
     246 -> 247        0.45568
     246 <- 247       -0.10098

 Excited State   3:      Singlet-A      1.9129 eV  648.13 nm  f=0.0139  <S**2>=0.000
     243 -> 247        0.59825
     244 -> 247        0.16856
     245 -> 247        0.31682

 Excited State   4:      Singlet-A      2.0155 eV  615.17 nm  f=0.0638  <S**2>=0.000
     243 -> 247       -0.36095
     244 -> 247        0.14271
     245 -> 247        0.53215
     246 -> 248       -0.23517

 Excited State   5:      Singlet-A      2.4464 eV  506.80 nm  f=0.0001  <S**2>=0.000
     242 -> 247        0.70307

 The electronic state is 1-A.
 Alpha  occ. eigenvalues --  -46.26993 -18.82952 -18.81713 -18.77263 -18.76092
 Alpha  occ. eigenvalues --  -18.75645 -18.74916 -14.03553 -14.02689 -14.01543
 Alpha  occ. eigenvalues --  -14.00654 -10.05334 -10.03507  -9.99490  -9.98884
 Alpha  occ. eigenvalues --   -9.98256  -9.97095  -9.96783  -9.96594  -9.96467
 Alpha  occ. eigenvalues --   -9.96290  -9.95804  -9.95569  -9.95105  -9.94920
 Alpha  occ. eigenvalues --   -9.94746  -9.94557  -9.94437  -9.94317  -9.93924
 Alpha  occ. eigenvalues --   -9.93831  -9.93777  -9.93713  -9.93598  -9.93500
 Alpha  occ. eigenvalues --   -9.93249  -9.93185  -9.93163  -9.93020  -9.92839
 Alpha  occ. eigenvalues --   -9.92835  -9.92797  -9.92687  -9.92292  -9.92152
 Alpha  occ. eigenvalues --   -9.92052  -9.92013  -9.91958  -9.91883  -9.91867
 Alpha  occ. eigenvalues --   -9.91850  -9.91766  -9.91588  -9.91400  -9.91392
 Alpha  occ. eigenvalues --   -9.91335  -9.91178  -9.90877  -9.90853  -9.90830
 Alpha  occ. eigenvalues --   -9.90807  -9.90659  -9.90602  -9.90590  -9.90376
 Alpha  occ. eigenvalues --   -9.90237  -2.91617  -1.72035  -1.71490  -1.71343
 Alpha  occ. eigenvalues --   -0.96872  -0.96834  -0.92750  -0.89746  -0.89054
 Alpha  occ. eigenvalues --   -0.88818  -0.86341  -0.84963  -0.84524  -0.83756
 Alpha  occ. eigenvalues --   -0.74710  -0.73808  -0.72817  -0.72319  -0.72162
 Alpha  occ. eigenvalues --   -0.72025  -0.71262  -0.70730  -0.70651  -0.70530
 Alpha  occ. eigenvalues --   -0.69325  -0.69050  -0.68164  -0.67294  -0.66826
 Alpha  occ. eigenvalues --   -0.66125  -0.65795  -0.65115  -0.64585  -0.64337
 Alpha  occ. eigenvalues --   -0.63704  -0.62831  -0.62478  -0.61753  -0.61036
 Alpha  occ. eigenvalues --   -0.60215  -0.60062  -0.59579  -0.59235  -0.58511
 Alpha  occ. eigenvalues --   -0.58204  -0.57767  -0.56778  -0.55951  -0.55274
 Alpha  occ. eigenvalues --   -0.54009  -0.53631  -0.52795  -0.52335  -0.51531
 Alpha  occ. eigenvalues --   -0.50941  -0.50588  -0.50266  -0.49949  -0.49872
 Alpha  occ. eigenvalues --   -0.49784  -0.49401  -0.48793  -0.47554  -0.46465
 Alpha  occ. eigenvalues --   -0.46319  -0.45869  -0.45234  -0.44955  -0.44062
 Alpha  occ. eigenvalues --   -0.43836  -0.43025  -0.42806  -0.42248  -0.42064
 Alpha  occ. eigenvalues --   -0.41860  -0.41624  -0.41465  -0.41361  -0.40972
 Alpha  occ. eigenvalues --   -0.40823  -0.40780  -0.40256  -0.40152  -0.39899
 Alpha  occ. eigenvalues --   -0.39727  -0.39549  -0.39503  -0.39344  -0.38995
 Alpha  occ. eigenvalues --   -0.38710  -0.38590  -0.38446  -0.38223  -0.38142
 Alpha  occ. eigenvalues --   -0.38064  -0.37892  -0.37679  -0.37528  -0.37178
 Alpha  occ. eigenvalues --   -0.36942  -0.36695  -0.36534  -0.36377  -0.36179
 Alpha  occ. eigenvalues --   -0.36068  -0.35925  -0.35883  -0.35538  -0.35409
 Alpha  occ. eigenvalues --   -0.35346  -0.35146  -0.35085  -0.34865  -0.34747
 Alpha  occ. eigenvalues --   -0.34650  -0.34425  -0.34076  -0.33963  -0.33910
 Alpha  occ. eigenvalues --   -0.33595  -0.33501  -0.33276  -0.32987  -0.32870
 Alpha  occ. eigenvalues --   -0.32811  -0.32366  -0.32185  -0.32069  -0.31941
 Alpha  occ. eigenvalues --   -0.31816  -0.31533  -0.31455  -0.31428  -0.31272
 Alpha  occ. eigenvalues --   -0.31127  -0.30950  -0.30824  -0.30617  -0.30571
 Alpha  occ. eigenvalues --   -0.30142  -0.29938  -0.29910  -0.29850  -0.29635
 Alpha  occ. eigenvalues --   -0.29561  -0.29550  -0.29194  -0.29044  -0.28990
 Alpha  occ. eigenvalues --   -0.28942  -0.28884  -0.28545  -0.27884  -0.27616
 Alpha  occ. eigenvalues --   -0.27556  -0.27468  -0.27297  -0.26913  -0.26779
 Alpha  occ. eigenvalues --   -0.26726  -0.26049  -0.25889  -0.25436  -0.25187
 Alpha  occ. eigenvalues --   -0.25017  -0.24687  -0.23664  -0.23627  -0.23471
 Alpha  occ. eigenvalues --   -0.23054  -0.22390  -0.22086  -0.21408  -0.21106
 Alpha  occ. eigenvalues --   -0.20645  -0.20574  -0.18572  -0.18215  -0.17153
 Alpha  occ. eigenvalues --   -0.15880
 Alpha virt. eigenvalues --   -0.11585  -0.06965  -0.06012  -0.04354  -0.04301
 Alpha virt. eigenvalues --   -0.02502  -0.01807  -0.01758  -0.01512   0.00589
 Alpha virt. eigenvalues --    0.01283   0.01823   0.02474   0.02531   0.02652

 Mulliken charges:
               1
     1  Mg   0.697007
     2  C   -0.005106
     3  C   -0.048368
     4  C   -0.025496
     5  C   -0.125078
     6  N   -0.227737
     7  C   -0.056044
     8  C   -0.006754
     9  C    0.024241
    10  C    0.032452
    11  C    0.125740
    12  C    0.017278
    13  C    0.145265
    14  C    0.107656
    15  O   -0.217984
    16  O   -0.275162
    17  N   -0.299982
    18  C    0.116099
    19  C   -0.153113
    20  C    0.067046
    21  C    0.109406
    22  C    0.182746
    23  C   -0.156585
    24  O   -0.139944
    25  C    0.172308
    26  N   -0.254298
    27  C    0.021163
    28  C    0.004277
    29  C    0.020482
    30  C    0.088344
    31  C    0.131422
    32  C    0.098402
    33  C    0.068094
    34  N   -0.266806
    35  C    0.136533
    36  C   -0.197497
    37  C    0.131698
    38  C    0.075620
    39  C    0.155626
    40  C   -0.047411
    41  O   -0.162177
    42  C    0.047973
    43  C    0.135792
    44  O   -0.192642
    45  O   -0.263283
    46  C    0.226105
    47  C    0.308459
    48  C   -0.103541
    49  C   -0.169833
    50  C    0.138296
    51  C    0.133354
    52  C    0.103057
    53  C    0.133462
    54  C   -0.082711
    55  C    0.100295
    56  C    0.111183
    57  C    0.074016
    58  C    0.101606
    59  C   -0.075397
    60  C    0.108245
    61  C    0.086464
    62  C    0.081841
    63  C    0.069946
    64  C   -0.080454
    65  C    0.112766
    66  C    0.110187
    67  H   -0.074300
    68  H   -0.050421
    69  H   -0.059898
    70  H   -0.022772
    71  H   -0.015234
    72  H   -0.007182
    73  H   -0.007207
    74  H   -0.000137
    75  H    0.010612
    76  H    0.025011
    77  H    0.014608
    78  H   -0.002246
    79  H    0.001740
    80  H   -0.006693
    81  H    0.007229
    82  H    0.007965
    83  H   -0.018188
    84  H    0.005135
    85  H   -0.022193
    86  H   -0.035864
    87  H    0.008387
    88  H   -0.019323
    89  H   -0.006840
    90  H   -0.021932
    91  H   -0.026249
    92  H   -0.006053
    93  H   -0.008004
    94  H   -0.010755
    95  H    0.006563
    96  H    0.015389
    97  H    0.008758
    98  H   -0.001342
    99  H    0.029879
   100  H    0.003848
   101  H    0.003375
   102  H    0.004608
   103  H    0.011787
   104  H   -0.021357
   105  H    0.003273
   106  H   -0.035698
   107  H    0.021879
   108  H   -0.044217
   109  H   -0.033695
   110  H   -0.036863
   111  H   -0.028585
   112  H   -0.056408
   113  H   -0.040380
   114  H   -0.039262
   115  H   -0.005361
   116  H   -0.036294
   117  H   -0.032553
   118  H   -0.037373
   119  H   -0.031277
   120  H   -0.024402
   121  H   -0.035139
   122  H   -0.025584
   123  H   -0.030446
   124  H   -0.028093
   125  H   -0.017001
   126  H   -0.022289
   127  H   -0.018674
   128  H   -0.039020
   129  H   -0.035128
   130  H   -0.016170
   131  H   -0.030443
   132  H   -0.037489
   133  H   -0.038087
   134  H   -0.038259
   135  H   -0.025608
   136  H   -0.034799
   137  H   -0.013119
   138  H   -0.021006
   139  H   -0.012482
   140  H   -0.023202
 Sum of Mulliken charges =  -0.00000

 Dipole moment (field-independent basis, Debye):
    X=             -2.8792    Y=              3.5708    Z=              0.4808  Tot=              4.6121
 Quadrupole moment (field-independent basis, Debye-Ang):
   XX=           -382.3260   YY=           -421.4512   ZZ=           -405.3367
   XY=             -2.6697   XZ=             10.2872   YZ=             -7.1211

 Normal termination of Gaussian 16 at Wed May  4 03:17:19 2022.
