 Gaussian 16, Revision A.03,
 Gaussian 16:  ES64L-G16RevA.03 25-Dec-2016

 -----------------------------------
 #p cam-b3lyp/Def2SVP td=(nstates=5)
 -----------------------------------

 -------------------------------------------------------
 step_1301_chromophore_1 TDDFT with cam-b3lyp functional
 -------------------------------------------------------
 Symbolic Z-matrix:
 Charge =  0 Multiplicity = 1

                         Standard orientation:
 ---------------------------------------------------------------------
 Center     Atomic      Atomic             Coordinates (Angstroms)
 Number     Number       Type             X           Y           Z
 ---------------------------------------------------------------------
      1         12           0        6.314914    0.444618    0.102214
      2          6           0        4.036782   -2.085752   -0.902080
      3          6           0        4.076982    2.818045   -1.146245
      4          6           0        8.690413    2.778055    0.403545
      5          6           0        8.577021   -2.051425    0.884955
      6          7           0        4.258793    0.329973   -0.859956
      7          6           0        3.517418   -0.792987   -1.214791
      8          6           0        2.175406   -0.442761   -1.790591
      9          6           0        2.197072    1.168585   -1.924415
     10          6           0        3.595431    1.501509   -1.263848
     11          6           0        1.968109    1.740287   -3.301212
     12          6           0        0.907186   -1.014928   -1.026184
     13          6           0       -0.531518   -0.429197   -1.422414
     14          6           0       -1.680136   -1.470267   -1.461341
     15          8           0       -1.614766   -2.515953   -2.145345
     16          8           0       -2.782946   -1.159833   -0.670770
     17          7           0        6.328997    2.510590   -0.212067
     18          6           0        5.285835    3.350184   -0.582349
     19          6           0        5.680855    4.754820   -0.520646
     20          6           0        7.028671    4.752910   -0.140569
     21          6           0        7.415035    3.328991    0.073575
     22          6           0        4.674553    5.874755   -0.919722
     23          6           0        7.895821    5.950566   -0.068937
     24          8           0        9.082238    5.866316    0.073854
     25          6           0        7.342585    7.309438   -0.153757
     26          7           0        8.409294    0.330753    0.373512
     27          6           0        9.191314    1.483345    0.551270
     28          6           0       10.524651    1.116991    1.133522
     29          6           0       10.342665   -0.447272    1.530318
     30          6           0        9.001533   -0.762029    0.928241
     31          6           0       11.767724    1.372464    0.208872
     32          6           0       10.472365   -0.845360    3.005859
     33          6           0        9.642206   -0.109447    4.035781
     34          7           0        6.337154   -1.608250    0.084890
     35          6           0        7.362193   -2.483501    0.391893
     36          6           0        6.943618   -3.851744    0.204132
     37          6           0        5.630423   -3.714887   -0.204031
     38          6           0        5.310594   -2.367884   -0.357793
     39          6           0        7.739200   -5.200694    0.537730
     40          6           0        4.437666   -4.486355   -0.425157
     41          8           0        4.173096   -5.691720   -0.226257
     42          6           0        3.305627   -3.451241   -0.917644
     43          6           0        2.133898   -3.809672    0.018831
     44          8           0        2.074860   -3.581884    1.223657
     45          8           0        1.294894   -4.634332   -0.684988
     46          6           0        0.191166   -5.123846    0.160614
     47          6           0       -3.896891   -2.125449   -0.524845
     48          6           0       -5.207764   -1.484364   -0.893393
     49          6           0       -6.332076   -2.158434   -1.184484
     50          6           0       -6.519089   -3.738909   -1.168810
     51          6           0       -7.523395   -1.295573   -1.498486
     52          6           0       -8.531142   -1.246622   -0.320565
     53          6           0       -8.084928   -0.277828    0.782581
     54          6           0       -9.090465    0.908785    0.922243
     55          6           0       -8.303045    2.244784    1.042643
     56          6           0       -9.974215    0.765356    2.216832
     57          6           0      -11.258250    1.484693    2.097174
     58          6           0      -12.455974    0.483558    2.064156
     59          6           0      -13.640097    1.028262    2.967882
     60          6           0      -13.744881    0.329745    4.398569
     61          6           0      -14.957365    0.863676    2.146661
     62          6           0      -14.966541    1.844678    0.943582
     63          6           0      -15.168258    1.013043   -0.395149
     64          6           0      -15.521801    1.926357   -1.641747
     65          6           0      -16.681771    1.408631   -2.423787
     66          6           0      -14.293467    2.007944   -2.526932
     67          1           0        3.402137    3.571920   -1.557240
     68          1           0        9.469230    3.507891    0.634121
     69          1           0        9.205828   -2.842304    1.301350
     70          1           0        2.062834   -0.984022   -2.731230
     71          1           0        1.406668    1.472414   -1.237637
     72          1           0        2.422469    2.673509   -3.633864
     73          1           0        0.904428    1.975239   -3.271778
     74          1           0        2.286878    1.027779   -4.061517
     75          1           0        1.155847   -0.962656    0.033762
     76          1           0        0.881446   -2.035599   -1.405770
     77          1           0       -0.481081    0.113041   -2.366281
     78          1           0       -0.721388    0.195051   -0.548877
     79          1           0        4.596147    6.621655   -0.130027
     80          1           0        3.652149    5.539644   -1.095213
     81          1           0        5.083885    6.300016   -1.835315
     82          1           0        7.048231    7.525104   -1.181145
     83          1           0        8.140477    8.012447    0.085619
     84          1           0        6.617891    7.361946    0.659421
     85          1           0       10.692970    1.685207    2.048791
     86          1           0       11.150033   -0.972080    1.019461
     87          1           0       11.323208    1.800036   -0.690774
     88          1           0       12.309716    0.449287    0.003802
     89          1           0       12.557675    1.960083    0.676861
     90          1           0       11.546419   -0.761923    3.172499
     91          1           0       10.198027   -1.899856    3.040872
     92          1           0        8.837371    0.498539    3.622379
     93          1           0       10.272318    0.570975    4.609518
     94          1           0        9.109494   -0.734229    4.751721
     95          1           0        8.202582   -5.068016    1.515433
     96          1           0        8.386538   -5.566144   -0.260303
     97          1           0        6.899372   -5.890308    0.622008
     98          1           0        3.044744   -3.609243   -1.963533
     99          1           0        0.499501   -5.931759    0.824282
    100          1           0       -0.609677   -5.452294   -0.502415
    101          1           0       -0.326693   -4.299931    0.650299
    102          1           0       -4.056269   -2.477426    0.495069
    103          1           0       -3.751289   -3.048963   -1.086347
    104          1           0       -5.182700   -0.396649   -0.960094
    105          1           0       -7.196437   -4.003338   -0.356722
    106          1           0       -5.631055   -4.235781   -0.778381
    107          1           0       -6.673800   -4.133945   -2.173014
    108          1           0       -7.971195   -1.698349   -2.406774
    109          1           0       -7.138915   -0.343545   -1.866761
    110          1           0       -8.651393   -2.242379    0.105625
    111          1           0       -9.500997   -1.014928   -0.759760
    112          1           0       -7.139685    0.144227    0.439952
    113          1           0       -7.733825   -0.678058    1.733174
    114          1           0       -9.748765    0.860680    0.055553
    115          1           0       -7.486366    2.342160    1.757828
    116          1           0       -9.028774    3.045508    1.180644
    117          1           0       -7.886812    2.580992    0.092888
    118          1           0       -9.469834    1.231373    3.064020
    119          1           0      -10.065456   -0.317653    2.299169
    120          1           0      -11.319900    2.159237    1.243917
    121          1           0      -11.237051    2.171672    2.943058
    122          1           0      -12.170935   -0.530046    2.346627
    123          1           0      -12.788446    0.432318    1.027093
    124          1           0      -13.533293    2.103770    3.112912
    125          1           0      -13.452252    0.989720    5.214679
    126          1           0      -13.083928   -0.536819    4.405823
    127          1           0      -14.739630   -0.018005    4.677189
    128          1           0      -15.908237    0.931413    2.672916
    129          1           0      -14.920749   -0.165971    1.790339
    130          1           0      -14.091044    2.493413    0.968271
    131          1           0      -15.878774    2.436586    1.020418
    132          1           0      -15.914793    0.227827   -0.282612
    133          1           0      -14.287179    0.422857   -0.648740
    134          1           0      -15.822967    2.932393   -1.351226
    135          1           0      -17.233543    0.561877   -2.015246
    136          1           0      -16.300544    0.977058   -3.348715
    137          1           0      -17.373012    2.222351   -2.641362
    138          1           0      -14.622007    2.440269   -3.471888
    139          1           0      -13.834983    1.029239   -2.665038
    140          1           0      -13.532190    2.663693   -2.103406
 ---------------------------------------------------------------------

 SCF Done:  E(RCAM-B3LYP) =  -3007.17115917     A.U. after   18 cycles

 Excitation energies and oscillator strengths:

 Excited State   1:      Singlet-A      1.6888 eV  734.14 nm  f=0.3788  <S**2>=0.000
     245 -> 248        0.18647
     246 -> 247        0.68459
     245 <- 248        0.11026
 This state for optimization and/or second-order correction.
 Total Energy, E(TD-HF/TD-DFT) =  -3007.10909525
 Copying the excited state density for this state as the 1-particle RhoCI density.

 Excited State   2:      Singlet-A      2.1925 eV  565.50 nm  f=0.1106  <S**2>=0.000
     245 -> 247        0.64077
     246 -> 248       -0.29054

 Excited State   3:      Singlet-A      3.3625 eV  368.73 nm  f=0.0139  <S**2>=0.000
     240 -> 247        0.22540
     240 -> 249       -0.18297
     240 -> 251        0.11138
     241 -> 247        0.25712
     241 -> 249       -0.15416
     242 -> 247       -0.15753
     244 -> 247        0.47173
     244 -> 249       -0.10052
     246 -> 248        0.14181

 Excited State   4:      Singlet-A      3.4963 eV  354.62 nm  f=0.1079  <S**2>=0.000
     240 -> 247        0.43803
     240 -> 249       -0.17416
     241 -> 247        0.17121
     244 -> 247       -0.36187
     245 -> 247       -0.10325
     246 -> 248       -0.26040

 Excited State   5:      Singlet-A      3.5208 eV  352.15 nm  f=0.5196  <S**2>=0.000
     241 -> 247        0.15290
     242 -> 247       -0.10439
     244 -> 247       -0.31979
     245 -> 247        0.23995
     246 -> 248        0.53696

 The electronic state is 1-A.
 Alpha  occ. eigenvalues --  -46.88533 -19.25833 -19.24697 -19.20271 -19.19241
 Alpha  occ. eigenvalues --  -19.18953 -19.18048 -14.42577 -14.41526 -14.40070
 Alpha  occ. eigenvalues --  -14.39112 -10.40802 -10.39065 -10.35034 -10.33843
 Alpha  occ. eigenvalues --  -10.32316 -10.31752 -10.31256 -10.30858 -10.30683
 Alpha  occ. eigenvalues --  -10.30591 -10.30037 -10.29963 -10.29276 -10.29240
 Alpha  occ. eigenvalues --  -10.28856 -10.28852 -10.28849 -10.28697 -10.28364
 Alpha  occ. eigenvalues --  -10.28333 -10.28126 -10.27846 -10.27770 -10.27486
 Alpha  occ. eigenvalues --  -10.27371 -10.27160 -10.27103 -10.27077 -10.26988
 Alpha  occ. eigenvalues --  -10.26776 -10.26514 -10.26358 -10.26300 -10.25936
 Alpha  occ. eigenvalues --  -10.25867 -10.25841 -10.25747 -10.25676 -10.25599
 Alpha  occ. eigenvalues --  -10.25559 -10.25559 -10.25303 -10.25079 -10.25073
 Alpha  occ. eigenvalues --  -10.25050 -10.25031 -10.24910 -10.24485 -10.24443
 Alpha  occ. eigenvalues --  -10.24435 -10.24252 -10.24228 -10.24200 -10.23976
 Alpha  occ. eigenvalues --  -10.23783  -3.17061  -1.91954  -1.91501  -1.91381
 Alpha  occ. eigenvalues --   -1.15404  -1.15255  -1.11159  -1.08179  -1.06894
 Alpha  occ. eigenvalues --   -1.06815  -1.04102  -1.02549  -1.02108  -1.01284
 Alpha  occ. eigenvalues --   -0.91907  -0.90690  -0.89605  -0.89107  -0.88844
 Alpha  occ. eigenvalues --   -0.88723  -0.87849  -0.87331  -0.87233  -0.87193
 Alpha  occ. eigenvalues --   -0.85890  -0.85376  -0.84444  -0.83451  -0.82959
 Alpha  occ. eigenvalues --   -0.82157  -0.81934  -0.81093  -0.80423  -0.80147
 Alpha  occ. eigenvalues --   -0.79449  -0.78511  -0.78199  -0.77249  -0.76413
 Alpha  occ. eigenvalues --   -0.75610  -0.75411  -0.74900  -0.74487  -0.73657
 Alpha  occ. eigenvalues --   -0.73314  -0.72841  -0.71719  -0.70820  -0.69932
 Alpha  occ. eigenvalues --   -0.68707  -0.68181  -0.67252  -0.66668  -0.65708
 Alpha  occ. eigenvalues --   -0.65054  -0.64762  -0.64115  -0.63930  -0.63882
 Alpha  occ. eigenvalues --   -0.63592  -0.63342  -0.62695  -0.61268  -0.59946
 Alpha  occ. eigenvalues --   -0.59815  -0.59496  -0.58774  -0.58269  -0.57516
 Alpha  occ. eigenvalues --   -0.57139  -0.56571  -0.56010  -0.55428  -0.55299
 Alpha  occ. eigenvalues --   -0.54904  -0.54719  -0.54565  -0.54182  -0.53831
 Alpha  occ. eigenvalues --   -0.53723  -0.53483  -0.53365  -0.53058  -0.52635
 Alpha  occ. eigenvalues --   -0.52526  -0.52254  -0.52160  -0.52034  -0.51486
 Alpha  occ. eigenvalues --   -0.51263  -0.51035  -0.50870  -0.50751  -0.50404
 Alpha  occ. eigenvalues --   -0.50334  -0.50181  -0.50008  -0.49681  -0.49620
 Alpha  occ. eigenvalues --   -0.49465  -0.49174  -0.48863  -0.48672  -0.48336
 Alpha  occ. eigenvalues --   -0.48245  -0.48211  -0.48127  -0.47854  -0.47640
 Alpha  occ. eigenvalues --   -0.47502  -0.47255  -0.47180  -0.46866  -0.46665
 Alpha  occ. eigenvalues --   -0.46431  -0.46353  -0.46038  -0.45844  -0.45594
 Alpha  occ. eigenvalues --   -0.45397  -0.45250  -0.45094  -0.44909  -0.44643
 Alpha  occ. eigenvalues --   -0.44510  -0.44005  -0.43916  -0.43746  -0.43483
 Alpha  occ. eigenvalues --   -0.43320  -0.43232  -0.43037  -0.42899  -0.42709
 Alpha  occ. eigenvalues --   -0.42543  -0.42504  -0.42285  -0.42101  -0.41787
 Alpha  occ. eigenvalues --   -0.41739  -0.41622  -0.41374  -0.41078  -0.40989
 Alpha  occ. eigenvalues --   -0.40859  -0.40797  -0.40629  -0.40245  -0.40117
 Alpha  occ. eigenvalues --   -0.40083  -0.39999  -0.39588  -0.38829  -0.38580
 Alpha  occ. eigenvalues --   -0.38508  -0.38423  -0.38346  -0.38131  -0.37538
 Alpha  occ. eigenvalues --   -0.37501  -0.36697  -0.36561  -0.36380  -0.36329
 Alpha  occ. eigenvalues --   -0.36224  -0.35672  -0.34599  -0.34343  -0.33974
 Alpha  occ. eigenvalues --   -0.33886  -0.33356  -0.32779  -0.31498  -0.30720
 Alpha  occ. eigenvalues --   -0.30638  -0.30494  -0.30227  -0.30006  -0.23948
 Alpha  occ. eigenvalues --   -0.21189
 Alpha virt. eigenvalues --   -0.08736  -0.01845   0.00552   0.02501   0.02662
 Alpha virt. eigenvalues --    0.03469   0.05442   0.05942   0.06013   0.06899
 Alpha virt. eigenvalues --    0.08308   0.08612   0.08615   0.08825   0.09257

 Mulliken charges:
               1
     1  Mg   0.828444
     2  C   -0.024176
     3  C   -0.063241
     4  C   -0.044745
     5  C   -0.127234
     6  N   -0.293764
     7  C   -0.017137
     8  C   -0.040461
     9  C   -0.034063
    10  C    0.050288
    11  C    0.064735
    12  C   -0.034941
    13  C    0.073874
    14  C    0.191018
    15  O   -0.259262
    16  O   -0.343852
    17  N   -0.383031
    18  C    0.122741
    19  C   -0.159485
    20  C   -0.006864
    21  C    0.133270
    22  C    0.128881
    23  C   -0.071691
    24  O   -0.181940
    25  C    0.083162
    26  N   -0.325108
    27  C    0.039172
    28  C   -0.052224
    29  C   -0.032260
    30  C    0.100807
    31  C    0.075450
    32  C    0.045310
    33  C    0.002691
    34  N   -0.357608
    35  C    0.135950
    36  C   -0.183660
    37  C    0.041701
    38  C    0.108289
    39  C    0.113003
    40  C    0.049592
    41  O   -0.199648
    42  C   -0.014054
    43  C    0.209613
    44  O   -0.228815
    45  O   -0.324171
    46  C    0.186867
    47  C    0.278261
    48  C   -0.126522
    49  C   -0.191988
    50  C    0.082544
    51  C    0.071541
    52  C    0.043305
    53  C    0.075403
    54  C   -0.134246
    55  C    0.041058
    56  C    0.055546
    57  C    0.021448
    58  C    0.049874
    59  C   -0.131932
    60  C    0.052430
    61  C    0.037081
    62  C    0.023790
    63  C    0.020710
    64  C   -0.142357
    65  C    0.049160
    66  C    0.050735
    67  H   -0.040807
    68  H   -0.010548
    69  H   -0.024247
    70  H    0.011937
    71  H    0.017987
    72  H    0.019868
    73  H    0.014777
    74  H    0.024910
    75  H    0.040468
    76  H    0.052196
    77  H    0.045042
    78  H    0.033170
    79  H    0.027423
    80  H    0.020913
    81  H    0.032537
    82  H    0.036162
    83  H    0.018956
    84  H    0.031854
    85  H    0.012656
    86  H    0.000871
    87  H    0.033176
    88  H    0.004597
    89  H    0.017647
    90  H    0.006702
    91  H    0.001742
    92  H    0.015749
    93  H    0.015582
    94  H    0.015069
    95  H    0.029557
    96  H    0.041724
    97  H    0.036717
    98  H    0.041276
    99  H    0.053044
   100  H    0.027973
   101  H    0.025047
   102  H    0.030241
   103  H    0.042230
   104  H    0.013101
   105  H    0.026611
   106  H   -0.010869
   107  H    0.045736
   108  H   -0.012662
   109  H   -0.002811
   110  H   -0.008442
   111  H    0.000478
   112  H   -0.026225
   113  H   -0.009346
   114  H   -0.007912
   115  H    0.018871
   116  H   -0.011607
   117  H   -0.007245
   118  H   -0.007478
   119  H   -0.002982
   120  H    0.000976
   121  H   -0.005923
   122  H    0.001977
   123  H   -0.004687
   124  H    0.002610
   125  H    0.006964
   126  H    0.000470
   127  H    0.005670
   128  H   -0.008765
   129  H   -0.007765
   130  H    0.008493
   131  H   -0.000664
   132  H   -0.008106
   133  H   -0.012554
   134  H   -0.005824
   135  H    0.000199
   136  H   -0.008692
   137  H    0.011352
   138  H    0.004213
   139  H    0.010086
   140  H    0.001293
 Sum of Mulliken charges =  -0.00000

 Dipole moment (field-independent basis, Debye):
    X=             -2.9203    Y=              3.8291    Z=              0.4332  Tot=              4.8351
 Quadrupole moment (field-independent basis, Debye-Ang):
   XX=           -381.9090   YY=           -417.2056   ZZ=           -405.4869
   XY=             -1.8242   XZ=             11.3850   YZ=             -7.7847

 Normal termination of Gaussian 16 at Wed May  4 02:20:28 2022.
