 Gaussian 16, Revision A.03,
 Gaussian 16:  ES64L-G16RevA.03 25-Dec-2016

 ---------------------------------
 #p PBE1PBE/Def2SVP td=(nstates=5)
 ---------------------------------

 -----------------------------------------------------
 step_1301_chromophore_1 TDDFT with PBE1PBE functional
 -----------------------------------------------------
 Symbolic Z-matrix:
 Charge =  0 Multiplicity = 1

                         Standard orientation:
 ---------------------------------------------------------------------
 Center     Atomic      Atomic             Coordinates (Angstroms)
 Number     Number       Type             X           Y           Z
 ---------------------------------------------------------------------
      1         12           0        6.314914    0.444618    0.102214
      2          6           0        4.036782   -2.085752   -0.902080
      3          6           0        4.076982    2.818045   -1.146245
      4          6           0        8.690413    2.778055    0.403545
      5          6           0        8.577021   -2.051425    0.884955
      6          7           0        4.258793    0.329973   -0.859956
      7          6           0        3.517418   -0.792987   -1.214791
      8          6           0        2.175406   -0.442761   -1.790591
      9          6           0        2.197072    1.168585   -1.924415
     10          6           0        3.595431    1.501509   -1.263848
     11          6           0        1.968109    1.740287   -3.301212
     12          6           0        0.907186   -1.014928   -1.026184
     13          6           0       -0.531518   -0.429197   -1.422414
     14          6           0       -1.680136   -1.470267   -1.461341
     15          8           0       -1.614766   -2.515953   -2.145345
     16          8           0       -2.782946   -1.159833   -0.670770
     17          7           0        6.328997    2.510590   -0.212067
     18          6           0        5.285835    3.350184   -0.582349
     19          6           0        5.680855    4.754820   -0.520646
     20          6           0        7.028671    4.752910   -0.140569
     21          6           0        7.415035    3.328991    0.073575
     22          6           0        4.674553    5.874755   -0.919722
     23          6           0        7.895821    5.950566   -0.068937
     24          8           0        9.082238    5.866316    0.073854
     25          6           0        7.342585    7.309438   -0.153757
     26          7           0        8.409294    0.330753    0.373512
     27          6           0        9.191314    1.483345    0.551270
     28          6           0       10.524651    1.116991    1.133522
     29          6           0       10.342665   -0.447272    1.530318
     30          6           0        9.001533   -0.762029    0.928241
     31          6           0       11.767724    1.372464    0.208872
     32          6           0       10.472365   -0.845360    3.005859
     33          6           0        9.642206   -0.109447    4.035781
     34          7           0        6.337154   -1.608250    0.084890
     35          6           0        7.362193   -2.483501    0.391893
     36          6           0        6.943618   -3.851744    0.204132
     37          6           0        5.630423   -3.714887   -0.204031
     38          6           0        5.310594   -2.367884   -0.357793
     39          6           0        7.739200   -5.200694    0.537730
     40          6           0        4.437666   -4.486355   -0.425157
     41          8           0        4.173096   -5.691720   -0.226257
     42          6           0        3.305627   -3.451241   -0.917644
     43          6           0        2.133898   -3.809672    0.018831
     44          8           0        2.074860   -3.581884    1.223657
     45          8           0        1.294894   -4.634332   -0.684988
     46          6           0        0.191166   -5.123846    0.160614
     47          6           0       -3.896891   -2.125449   -0.524845
     48          6           0       -5.207764   -1.484364   -0.893393
     49          6           0       -6.332076   -2.158434   -1.184484
     50          6           0       -6.519089   -3.738909   -1.168810
     51          6           0       -7.523395   -1.295573   -1.498486
     52          6           0       -8.531142   -1.246622   -0.320565
     53          6           0       -8.084928   -0.277828    0.782581
     54          6           0       -9.090465    0.908785    0.922243
     55          6           0       -8.303045    2.244784    1.042643
     56          6           0       -9.974215    0.765356    2.216832
     57          6           0      -11.258250    1.484693    2.097174
     58          6           0      -12.455974    0.483558    2.064156
     59          6           0      -13.640097    1.028262    2.967882
     60          6           0      -13.744881    0.329745    4.398569
     61          6           0      -14.957365    0.863676    2.146661
     62          6           0      -14.966541    1.844678    0.943582
     63          6           0      -15.168258    1.013043   -0.395149
     64          6           0      -15.521801    1.926357   -1.641747
     65          6           0      -16.681771    1.408631   -2.423787
     66          6           0      -14.293467    2.007944   -2.526932
     67          1           0        3.402137    3.571920   -1.557240
     68          1           0        9.469230    3.507891    0.634121
     69          1           0        9.205828   -2.842304    1.301350
     70          1           0        2.062834   -0.984022   -2.731230
     71          1           0        1.406668    1.472414   -1.237637
     72          1           0        2.422469    2.673509   -3.633864
     73          1           0        0.904428    1.975239   -3.271778
     74          1           0        2.286878    1.027779   -4.061517
     75          1           0        1.155847   -0.962656    0.033762
     76          1           0        0.881446   -2.035599   -1.405770
     77          1           0       -0.481081    0.113041   -2.366281
     78          1           0       -0.721388    0.195051   -0.548877
     79          1           0        4.596147    6.621655   -0.130027
     80          1           0        3.652149    5.539644   -1.095213
     81          1           0        5.083885    6.300016   -1.835315
     82          1           0        7.048231    7.525104   -1.181145
     83          1           0        8.140477    8.012447    0.085619
     84          1           0        6.617891    7.361946    0.659421
     85          1           0       10.692970    1.685207    2.048791
     86          1           0       11.150033   -0.972080    1.019461
     87          1           0       11.323208    1.800036   -0.690774
     88          1           0       12.309716    0.449287    0.003802
     89          1           0       12.557675    1.960083    0.676861
     90          1           0       11.546419   -0.761923    3.172499
     91          1           0       10.198027   -1.899856    3.040872
     92          1           0        8.837371    0.498539    3.622379
     93          1           0       10.272318    0.570975    4.609518
     94          1           0        9.109494   -0.734229    4.751721
     95          1           0        8.202582   -5.068016    1.515433
     96          1           0        8.386538   -5.566144   -0.260303
     97          1           0        6.899372   -5.890308    0.622008
     98          1           0        3.044744   -3.609243   -1.963533
     99          1           0        0.499501   -5.931759    0.824282
    100          1           0       -0.609677   -5.452294   -0.502415
    101          1           0       -0.326693   -4.299931    0.650299
    102          1           0       -4.056269   -2.477426    0.495069
    103          1           0       -3.751289   -3.048963   -1.086347
    104          1           0       -5.182700   -0.396649   -0.960094
    105          1           0       -7.196437   -4.003338   -0.356722
    106          1           0       -5.631055   -4.235781   -0.778381
    107          1           0       -6.673800   -4.133945   -2.173014
    108          1           0       -7.971195   -1.698349   -2.406774
    109          1           0       -7.138915   -0.343545   -1.866761
    110          1           0       -8.651393   -2.242379    0.105625
    111          1           0       -9.500997   -1.014928   -0.759760
    112          1           0       -7.139685    0.144227    0.439952
    113          1           0       -7.733825   -0.678058    1.733174
    114          1           0       -9.748765    0.860680    0.055553
    115          1           0       -7.486366    2.342160    1.757828
    116          1           0       -9.028774    3.045508    1.180644
    117          1           0       -7.886812    2.580992    0.092888
    118          1           0       -9.469834    1.231373    3.064020
    119          1           0      -10.065456   -0.317653    2.299169
    120          1           0      -11.319900    2.159237    1.243917
    121          1           0      -11.237051    2.171672    2.943058
    122          1           0      -12.170935   -0.530046    2.346627
    123          1           0      -12.788446    0.432318    1.027093
    124          1           0      -13.533293    2.103770    3.112912
    125          1           0      -13.452252    0.989720    5.214679
    126          1           0      -13.083928   -0.536819    4.405823
    127          1           0      -14.739630   -0.018005    4.677189
    128          1           0      -15.908237    0.931413    2.672916
    129          1           0      -14.920749   -0.165971    1.790339
    130          1           0      -14.091044    2.493413    0.968271
    131          1           0      -15.878774    2.436586    1.020418
    132          1           0      -15.914793    0.227827   -0.282612
    133          1           0      -14.287179    0.422857   -0.648740
    134          1           0      -15.822967    2.932393   -1.351226
    135          1           0      -17.233543    0.561877   -2.015246
    136          1           0      -16.300544    0.977058   -3.348715
    137          1           0      -17.373012    2.222351   -2.641362
    138          1           0      -14.622007    2.440269   -3.471888
    139          1           0      -13.834983    1.029239   -2.665038
    140          1           0      -13.532190    2.663693   -2.103406
 ---------------------------------------------------------------------

 SCF Done:  E(RPBE1PBE) =  -3005.35823922     A.U. after   15 cycles

 Excitation energies and oscillator strengths:

 Excited State   1:      Singlet-A      1.8515 eV  669.64 nm  f=0.3664  <S**2>=0.000
     245 -> 248        0.18069
     246 -> 247        0.69144
     246 <- 247       -0.10568
 This state for optimization and/or second-order correction.
 Total Energy, E(TD-HF/TD-DFT) =  -3005.29019752
 Copying the excited state density for this state as the 1-particle RhoCI density.

 Excited State   2:      Singlet-A      2.2024 eV  562.94 nm  f=0.1078  <S**2>=0.000
     245 -> 247        0.65106
     246 -> 248       -0.26730

 Excited State   3:      Singlet-A      2.9144 eV  425.42 nm  f=0.0001  <S**2>=0.000
     241 -> 247       -0.14811
     243 -> 247        0.60572
     243 -> 249       -0.14926
     244 -> 247        0.25675

 Excited State   4:      Singlet-A      3.0242 eV  409.97 nm  f=0.0002  <S**2>=0.000
     243 -> 247       -0.25987
     244 -> 247        0.62870
     244 -> 249        0.12091

 Excited State   5:      Singlet-A      3.1627 eV  392.02 nm  f=0.0024  <S**2>=0.000
     241 -> 247        0.67368
     243 -> 247        0.14783

 The electronic state is 1-A.
 Alpha  occ. eigenvalues --  -46.91942 -19.26557 -19.25328 -19.20569 -19.19443
 Alpha  occ. eigenvalues --  -19.19120 -19.18294 -14.42084 -14.41078 -14.39754
 Alpha  occ. eigenvalues --  -14.38751 -10.37869 -10.36080 -10.32129 -10.30989
 Alpha  occ. eigenvalues --  -10.29742 -10.29435 -10.29068 -10.28637 -10.28465
 Alpha  occ. eigenvalues --  -10.27849 -10.27795 -10.27622 -10.26893 -10.26762
 Alpha  occ. eigenvalues --  -10.26650 -10.26619 -10.26505 -10.26462 -10.26092
 Alpha  occ. eigenvalues --  -10.25939 -10.25751 -10.25482 -10.25340 -10.25246
 Alpha  occ. eigenvalues --  -10.25017 -10.24918 -10.24881 -10.24868 -10.24397
 Alpha  occ. eigenvalues --  -10.24157 -10.24005 -10.23985 -10.23974 -10.23672
 Alpha  occ. eigenvalues --  -10.23472 -10.23460 -10.23404 -10.23200 -10.23175
 Alpha  occ. eigenvalues --  -10.23131 -10.22869 -10.22704 -10.22700 -10.22680
 Alpha  occ. eigenvalues --  -10.22636 -10.22629 -10.22512 -10.22021 -10.21877
 Alpha  occ. eigenvalues --  -10.21842 -10.21819 -10.21733 -10.21611 -10.21523
 Alpha  occ. eigenvalues --  -10.21159  -3.14050  -1.86884  -1.86409  -1.86293
 Alpha  occ. eigenvalues --   -1.10139  -1.10071  -1.05953  -1.02827  -1.01757
 Alpha  occ. eigenvalues --   -1.01604  -0.98720  -0.97187  -0.96719  -0.95900
 Alpha  occ. eigenvalues --   -0.86209  -0.84818  -0.83701  -0.83299  -0.83135
 Alpha  occ. eigenvalues --   -0.82838  -0.82165  -0.81640  -0.81528  -0.81327
 Alpha  occ. eigenvalues --   -0.80207  -0.79599  -0.78648  -0.77736  -0.77228
 Alpha  occ. eigenvalues --   -0.76384  -0.76151  -0.75315  -0.74637  -0.74442
 Alpha  occ. eigenvalues --   -0.73619  -0.72786  -0.72453  -0.71543  -0.70567
 Alpha  occ. eigenvalues --   -0.69931  -0.69507  -0.69219  -0.68615  -0.67877
 Alpha  occ. eigenvalues --   -0.67592  -0.67215  -0.66103  -0.65161  -0.64303
 Alpha  occ. eigenvalues --   -0.63127  -0.62452  -0.61761  -0.60929  -0.59998
 Alpha  occ. eigenvalues --   -0.59469  -0.59248  -0.58711  -0.58370  -0.58080
 Alpha  occ. eigenvalues --   -0.58018  -0.57488  -0.56899  -0.55837  -0.54440
 Alpha  occ. eigenvalues --   -0.54331  -0.54001  -0.53362  -0.52885  -0.51999
 Alpha  occ. eigenvalues --   -0.51689  -0.50963  -0.50599  -0.49901  -0.49759
 Alpha  occ. eigenvalues --   -0.49371  -0.49281  -0.49067  -0.48589  -0.48233
 Alpha  occ. eigenvalues --   -0.48165  -0.48039  -0.47800  -0.47559  -0.47257
 Alpha  occ. eigenvalues --   -0.47038  -0.46880  -0.46650  -0.46580  -0.46047
 Alpha  occ. eigenvalues --   -0.45739  -0.45536  -0.45432  -0.45318  -0.44980
 Alpha  occ. eigenvalues --   -0.44922  -0.44763  -0.44632  -0.44227  -0.44218
 Alpha  occ. eigenvalues --   -0.44082  -0.43784  -0.43524  -0.43283  -0.42972
 Alpha  occ. eigenvalues --   -0.42927  -0.42797  -0.42721  -0.42424  -0.42282
 Alpha  occ. eigenvalues --   -0.42185  -0.41912  -0.41832  -0.41503  -0.41308
 Alpha  occ. eigenvalues --   -0.41076  -0.41001  -0.40789  -0.40552  -0.40216
 Alpha  occ. eigenvalues --   -0.40197  -0.39885  -0.39797  -0.39578  -0.39411
 Alpha  occ. eigenvalues --   -0.39213  -0.38796  -0.38582  -0.38495  -0.38165
 Alpha  occ. eigenvalues --   -0.38109  -0.37912  -0.37831  -0.37746  -0.37506
 Alpha  occ. eigenvalues --   -0.37332  -0.37296  -0.37084  -0.36917  -0.36669
 Alpha  occ. eigenvalues --   -0.36489  -0.36436  -0.36212  -0.35849  -0.35748
 Alpha  occ. eigenvalues --   -0.35731  -0.35698  -0.35420  -0.35193  -0.35021
 Alpha  occ. eigenvalues --   -0.34834  -0.34762  -0.34413  -0.33635  -0.33523
 Alpha  occ. eigenvalues --   -0.33348  -0.33269  -0.33168  -0.32948  -0.32581
 Alpha  occ. eigenvalues --   -0.32267  -0.31735  -0.31464  -0.31365  -0.31321
 Alpha  occ. eigenvalues --   -0.31171  -0.30542  -0.29784  -0.29131  -0.28963
 Alpha  occ. eigenvalues --   -0.28843  -0.28352  -0.28272  -0.27117  -0.26244
 Alpha  occ. eigenvalues --   -0.25810  -0.25510  -0.25346  -0.25243  -0.20873
 Alpha  occ. eigenvalues --   -0.18826
 Alpha virt. eigenvalues --   -0.11192  -0.05345  -0.03694  -0.01771  -0.01211
 Alpha virt. eigenvalues --   -0.00235   0.01000   0.01303   0.01535   0.03551
 Alpha virt. eigenvalues --    0.04179   0.04673   0.05420   0.05462   0.05652

 Mulliken charges:
               1
     1  Mg   0.976480
     2  C   -0.026823
     3  C   -0.066150
     4  C   -0.041919
     5  C   -0.104806
     6  N   -0.393892
     7  C    0.052874
     8  C   -0.092055
     9  C   -0.120930
    10  C    0.089815
    11  C    0.008040
    12  C   -0.089468
    13  C   -0.007275
    14  C    0.258314
    15  O   -0.289477
    16  O   -0.376280
    17  N   -0.493431
    18  C    0.150946
    19  C   -0.178928
    20  C   -0.068576
    21  C    0.166690
    22  C    0.069238
    23  C   -0.011951
    24  O   -0.219543
    25  C    0.004844
    26  N   -0.427536
    27  C    0.070252
    28  C   -0.126037
    29  C   -0.102814
    30  C    0.131484
    31  C    0.019236
    32  C   -0.019938
    33  C   -0.068289
    34  N   -0.484957
    35  C    0.140766
    36  C   -0.175528
    37  C   -0.019772
    38  C    0.151248
    39  C    0.055823
    40  C    0.134226
    41  O   -0.242655
    42  C   -0.102071
    43  C    0.280154
    44  O   -0.262631
    45  O   -0.352721
    46  C    0.131386
    47  C    0.240790
    48  C   -0.141676
    49  C   -0.226142
    50  C    0.020643
    51  C    0.001558
    52  C   -0.022760
    53  C    0.024391
    54  C   -0.221337
    55  C   -0.020390
    56  C   -0.001184
    57  C   -0.035205
    58  C   -0.008540
    59  C   -0.218623
    60  C   -0.004307
    61  C   -0.015460
    62  C   -0.045876
    63  C   -0.028092
    64  C   -0.237590
    65  C   -0.008066
    66  C   -0.014029
    67  H   -0.007138
    68  H    0.022236
    69  H    0.006538
    70  H    0.049238
    71  H    0.057533
    72  H    0.046262
    73  H    0.041652
    74  H    0.052101
    75  H    0.071718
    76  H    0.090657
    77  H    0.077562
    78  H    0.065310
    79  H    0.054881
    80  H    0.047244
    81  H    0.061068
    82  H    0.063233
    83  H    0.047629
    84  H    0.058923
    85  H    0.050421
    86  H    0.038221
    87  H    0.060897
    88  H    0.031566
    89  H    0.044616
    90  H    0.039662
    91  H    0.035810
    92  H    0.045436
    93  H    0.042796
    94  H    0.042926
    95  H    0.055164
    96  H    0.068346
    97  H    0.065073
    98  H    0.076608
    99  H    0.074850
   100  H    0.049579
   101  H    0.047212
   102  H    0.057741
   103  H    0.067197
   104  H    0.041035
   105  H    0.052901
   106  H    0.016424
   107  H    0.071957
   108  H    0.021656
   109  H    0.029836
   110  H    0.025882
   111  H    0.031480
   112  H    0.010505
   113  H    0.021688
   114  H    0.029551
   115  H    0.045566
   116  H    0.017802
   117  H    0.021912
   118  H    0.025570
   119  H    0.031080
   120  H    0.031267
   121  H    0.026023
   122  H    0.032192
   123  H    0.033860
   124  H    0.040280
   125  H    0.034225
   126  H    0.027503
   127  H    0.032186
   128  H    0.022862
   129  H    0.026352
   130  H    0.041263
   131  H    0.034304
   132  H    0.023586
   133  H    0.018245
   134  H    0.030952
   135  H    0.027124
   136  H    0.019086
   137  H    0.038620
   138  H    0.033039
   139  H    0.037410
   140  H    0.030544
 Sum of Mulliken charges =  -0.00000

 Dipole moment (field-independent basis, Debye):
    X=             -2.8797    Y=              3.9547    Z=              0.5148  Tot=              4.9191
 Quadrupole moment (field-independent basis, Debye-Ang):
   XX=           -375.5242   YY=           -414.2234   ZZ=           -402.8343
   XY=             -1.2596   XZ=             12.6580   YZ=             -8.1878

 Normal termination of Gaussian 16 at Wed May  4 02:37:08 2022.
