 Gaussian 16, Revision A.03,
 Gaussian 16:  ES64L-G16RevA.03 25-Dec-2016

 --------------------------------
 #p wB97XD/Def2SVP td=(nstates=5)
 --------------------------------

 ----------------------------------------------------
 step_1301_chromophore_1 TDDFT with wB97XD functional
 ----------------------------------------------------
 Symbolic Z-matrix:
 Charge =  0 Multiplicity = 1

                         Standard orientation:
 ---------------------------------------------------------------------
 Center     Atomic      Atomic             Coordinates (Angstroms)
 Number     Number       Type             X           Y           Z
 ---------------------------------------------------------------------
      1         12           0        6.314914    0.444618    0.102214
      2          6           0        4.036782   -2.085752   -0.902080
      3          6           0        4.076982    2.818045   -1.146245
      4          6           0        8.690413    2.778055    0.403545
      5          6           0        8.577021   -2.051425    0.884955
      6          7           0        4.258793    0.329973   -0.859956
      7          6           0        3.517418   -0.792987   -1.214791
      8          6           0        2.175406   -0.442761   -1.790591
      9          6           0        2.197072    1.168585   -1.924415
     10          6           0        3.595431    1.501509   -1.263848
     11          6           0        1.968109    1.740287   -3.301212
     12          6           0        0.907186   -1.014928   -1.026184
     13          6           0       -0.531518   -0.429197   -1.422414
     14          6           0       -1.680136   -1.470267   -1.461341
     15          8           0       -1.614766   -2.515953   -2.145345
     16          8           0       -2.782946   -1.159833   -0.670770
     17          7           0        6.328997    2.510590   -0.212067
     18          6           0        5.285835    3.350184   -0.582349
     19          6           0        5.680855    4.754820   -0.520646
     20          6           0        7.028671    4.752910   -0.140569
     21          6           0        7.415035    3.328991    0.073575
     22          6           0        4.674553    5.874755   -0.919722
     23          6           0        7.895821    5.950566   -0.068937
     24          8           0        9.082238    5.866316    0.073854
     25          6           0        7.342585    7.309438   -0.153757
     26          7           0        8.409294    0.330753    0.373512
     27          6           0        9.191314    1.483345    0.551270
     28          6           0       10.524651    1.116991    1.133522
     29          6           0       10.342665   -0.447272    1.530318
     30          6           0        9.001533   -0.762029    0.928241
     31          6           0       11.767724    1.372464    0.208872
     32          6           0       10.472365   -0.845360    3.005859
     33          6           0        9.642206   -0.109447    4.035781
     34          7           0        6.337154   -1.608250    0.084890
     35          6           0        7.362193   -2.483501    0.391893
     36          6           0        6.943618   -3.851744    0.204132
     37          6           0        5.630423   -3.714887   -0.204031
     38          6           0        5.310594   -2.367884   -0.357793
     39          6           0        7.739200   -5.200694    0.537730
     40          6           0        4.437666   -4.486355   -0.425157
     41          8           0        4.173096   -5.691720   -0.226257
     42          6           0        3.305627   -3.451241   -0.917644
     43          6           0        2.133898   -3.809672    0.018831
     44          8           0        2.074860   -3.581884    1.223657
     45          8           0        1.294894   -4.634332   -0.684988
     46          6           0        0.191166   -5.123846    0.160614
     47          6           0       -3.896891   -2.125449   -0.524845
     48          6           0       -5.207764   -1.484364   -0.893393
     49          6           0       -6.332076   -2.158434   -1.184484
     50          6           0       -6.519089   -3.738909   -1.168810
     51          6           0       -7.523395   -1.295573   -1.498486
     52          6           0       -8.531142   -1.246622   -0.320565
     53          6           0       -8.084928   -0.277828    0.782581
     54          6           0       -9.090465    0.908785    0.922243
     55          6           0       -8.303045    2.244784    1.042643
     56          6           0       -9.974215    0.765356    2.216832
     57          6           0      -11.258250    1.484693    2.097174
     58          6           0      -12.455974    0.483558    2.064156
     59          6           0      -13.640097    1.028262    2.967882
     60          6           0      -13.744881    0.329745    4.398569
     61          6           0      -14.957365    0.863676    2.146661
     62          6           0      -14.966541    1.844678    0.943582
     63          6           0      -15.168258    1.013043   -0.395149
     64          6           0      -15.521801    1.926357   -1.641747
     65          6           0      -16.681771    1.408631   -2.423787
     66          6           0      -14.293467    2.007944   -2.526932
     67          1           0        3.402137    3.571920   -1.557240
     68          1           0        9.469230    3.507891    0.634121
     69          1           0        9.205828   -2.842304    1.301350
     70          1           0        2.062834   -0.984022   -2.731230
     71          1           0        1.406668    1.472414   -1.237637
     72          1           0        2.422469    2.673509   -3.633864
     73          1           0        0.904428    1.975239   -3.271778
     74          1           0        2.286878    1.027779   -4.061517
     75          1           0        1.155847   -0.962656    0.033762
     76          1           0        0.881446   -2.035599   -1.405770
     77          1           0       -0.481081    0.113041   -2.366281
     78          1           0       -0.721388    0.195051   -0.548877
     79          1           0        4.596147    6.621655   -0.130027
     80          1           0        3.652149    5.539644   -1.095213
     81          1           0        5.083885    6.300016   -1.835315
     82          1           0        7.048231    7.525104   -1.181145
     83          1           0        8.140477    8.012447    0.085619
     84          1           0        6.617891    7.361946    0.659421
     85          1           0       10.692970    1.685207    2.048791
     86          1           0       11.150033   -0.972080    1.019461
     87          1           0       11.323208    1.800036   -0.690774
     88          1           0       12.309716    0.449287    0.003802
     89          1           0       12.557675    1.960083    0.676861
     90          1           0       11.546419   -0.761923    3.172499
     91          1           0       10.198027   -1.899856    3.040872
     92          1           0        8.837371    0.498539    3.622379
     93          1           0       10.272318    0.570975    4.609518
     94          1           0        9.109494   -0.734229    4.751721
     95          1           0        8.202582   -5.068016    1.515433
     96          1           0        8.386538   -5.566144   -0.260303
     97          1           0        6.899372   -5.890308    0.622008
     98          1           0        3.044744   -3.609243   -1.963533
     99          1           0        0.499501   -5.931759    0.824282
    100          1           0       -0.609677   -5.452294   -0.502415
    101          1           0       -0.326693   -4.299931    0.650299
    102          1           0       -4.056269   -2.477426    0.495069
    103          1           0       -3.751289   -3.048963   -1.086347
    104          1           0       -5.182700   -0.396649   -0.960094
    105          1           0       -7.196437   -4.003338   -0.356722
    106          1           0       -5.631055   -4.235781   -0.778381
    107          1           0       -6.673800   -4.133945   -2.173014
    108          1           0       -7.971195   -1.698349   -2.406774
    109          1           0       -7.138915   -0.343545   -1.866761
    110          1           0       -8.651393   -2.242379    0.105625
    111          1           0       -9.500997   -1.014928   -0.759760
    112          1           0       -7.139685    0.144227    0.439952
    113          1           0       -7.733825   -0.678058    1.733174
    114          1           0       -9.748765    0.860680    0.055553
    115          1           0       -7.486366    2.342160    1.757828
    116          1           0       -9.028774    3.045508    1.180644
    117          1           0       -7.886812    2.580992    0.092888
    118          1           0       -9.469834    1.231373    3.064020
    119          1           0      -10.065456   -0.317653    2.299169
    120          1           0      -11.319900    2.159237    1.243917
    121          1           0      -11.237051    2.171672    2.943058
    122          1           0      -12.170935   -0.530046    2.346627
    123          1           0      -12.788446    0.432318    1.027093
    124          1           0      -13.533293    2.103770    3.112912
    125          1           0      -13.452252    0.989720    5.214679
    126          1           0      -13.083928   -0.536819    4.405823
    127          1           0      -14.739630   -0.018005    4.677189
    128          1           0      -15.908237    0.931413    2.672916
    129          1           0      -14.920749   -0.165971    1.790339
    130          1           0      -14.091044    2.493413    0.968271
    131          1           0      -15.878774    2.436586    1.020418
    132          1           0      -15.914793    0.227827   -0.282612
    133          1           0      -14.287179    0.422857   -0.648740
    134          1           0      -15.822967    2.932393   -1.351226
    135          1           0      -17.233543    0.561877   -2.015246
    136          1           0      -16.300544    0.977058   -3.348715
    137          1           0      -17.373012    2.222351   -2.641362
    138          1           0      -14.622007    2.440269   -3.471888
    139          1           0      -13.834983    1.029239   -2.665038
    140          1           0      -13.532190    2.663693   -2.103406
 ---------------------------------------------------------------------

 SCF Done:  E(RwB97XD) =  -3007.86900504     A.U. after   19 cycles

 Excitation energies and oscillator strengths:

 Excited State   1:      Singlet-A      1.6283 eV  761.41 nm  f=0.3772  <S**2>=0.000
     245 -> 248        0.19228
     246 -> 247        0.68241
     245 <- 248        0.11994
 This state for optimization and/or second-order correction.
 Total Energy, E(TD-HF/TD-DFT) =  -3007.80916432
 Copying the excited state density for this state as the 1-particle RhoCI density.

 Excited State   2:      Singlet-A      2.1347 eV  580.81 nm  f=0.1078  <S**2>=0.000
     245 -> 247        0.63921
     246 -> 248       -0.29254

 Excited State   3:      Singlet-A      3.3791 eV  366.91 nm  f=0.0216  <S**2>=0.000
     241 -> 247        0.26772
     241 -> 249       -0.22628
     241 -> 250        0.11940
     242 -> 247       -0.18148
     244 -> 247        0.49936
     244 -> 249       -0.12754
     246 -> 248        0.16847

 Excited State   4:      Singlet-A      3.5100 eV  353.23 nm  f=0.1875  <S**2>=0.000
     240 -> 247       -0.29992
     240 -> 249        0.10782
     241 -> 247        0.38741
     241 -> 249       -0.18531
     244 -> 247       -0.20770
     245 -> 247       -0.13507
     246 -> 248       -0.33558

 Excited State   5:      Singlet-A      3.5400 eV  350.24 nm  f=0.4480  <S**2>=0.000
     241 -> 247        0.26659
     244 -> 247       -0.35369
     245 -> 247        0.22229
     246 -> 248        0.48452

 The electronic state is 1-A.
 Alpha  occ. eigenvalues --  -46.94882 -19.31110 -19.29936 -19.25237 -19.24211
 Alpha  occ. eigenvalues --  -19.24037 -19.23024 -14.47212 -14.46128 -14.44675
 Alpha  occ. eigenvalues --  -14.43732 -10.44653 -10.42966 -10.39094 -10.37735
 Alpha  occ. eigenvalues --  -10.36228 -10.35804 -10.35301 -10.34900 -10.34704
 Alpha  occ. eigenvalues --  -10.34338 -10.34061 -10.33965 -10.33311 -10.33205
 Alpha  occ. eigenvalues --  -10.32986 -10.32900 -10.32875 -10.32767 -10.32484
 Alpha  occ. eigenvalues --  -10.32437 -10.32302 -10.31876 -10.31708 -10.31522
 Alpha  occ. eigenvalues --  -10.31439 -10.31180 -10.31162 -10.31125 -10.30847
 Alpha  occ. eigenvalues --  -10.30702 -10.30369 -10.30340 -10.30298 -10.29943
 Alpha  occ. eigenvalues --  -10.29878 -10.29782 -10.29749 -10.29541 -10.29528
 Alpha  occ. eigenvalues --  -10.29491 -10.29401 -10.29135 -10.29115 -10.28998
 Alpha  occ. eigenvalues --  -10.28990 -10.28980 -10.28864 -10.28387 -10.28308
 Alpha  occ. eigenvalues --  -10.28284 -10.28172 -10.28116 -10.28043 -10.27891
 Alpha  occ. eigenvalues --  -10.27580  -3.20854  -1.94435  -1.93964  -1.93843
 Alpha  occ. eigenvalues --   -1.17592  -1.17462  -1.13334  -1.10432  -1.09112
 Alpha  occ. eigenvalues --   -1.09035  -1.06154  -1.04556  -1.04111  -1.03306
 Alpha  occ. eigenvalues --   -0.93905  -0.92489  -0.91377  -0.90958  -0.90734
 Alpha  occ. eigenvalues --   -0.90496  -0.89743  -0.89252  -0.89158  -0.88994
 Alpha  occ. eigenvalues --   -0.87868  -0.87255  -0.86301  -0.85355  -0.84872
 Alpha  occ. eigenvalues --   -0.84031  -0.83831  -0.82989  -0.82303  -0.82085
 Alpha  occ. eigenvalues --   -0.81296  -0.80430  -0.80142  -0.79162  -0.78254
 Alpha  occ. eigenvalues --   -0.77570  -0.77196  -0.76837  -0.76304  -0.75522
 Alpha  occ. eigenvalues --   -0.75221  -0.74814  -0.73669  -0.72763  -0.71860
 Alpha  occ. eigenvalues --   -0.70707  -0.70077  -0.69253  -0.68549  -0.67593
 Alpha  occ. eigenvalues --   -0.66990  -0.66762  -0.66132  -0.65841  -0.65734
 Alpha  occ. eigenvalues --   -0.65548  -0.65163  -0.64529  -0.63280  -0.61880
 Alpha  occ. eigenvalues --   -0.61800  -0.61470  -0.60790  -0.60253  -0.59461
 Alpha  occ. eigenvalues --   -0.59103  -0.58536  -0.57991  -0.57349  -0.57225
 Alpha  occ. eigenvalues --   -0.56810  -0.56686  -0.56482  -0.56053  -0.55726
 Alpha  occ. eigenvalues --   -0.55644  -0.55453  -0.55220  -0.54974  -0.54619
 Alpha  occ. eigenvalues --   -0.54432  -0.54162  -0.54035  -0.53937  -0.53390
 Alpha  occ. eigenvalues --   -0.53208  -0.52905  -0.52764  -0.52646  -0.52336
 Alpha  occ. eigenvalues --   -0.52250  -0.52083  -0.51917  -0.51560  -0.51545
 Alpha  occ. eigenvalues --   -0.51378  -0.51088  -0.50802  -0.50618  -0.50281
 Alpha  occ. eigenvalues --   -0.50186  -0.50123  -0.50027  -0.49727  -0.49569
 Alpha  occ. eigenvalues --   -0.49424  -0.49154  -0.49099  -0.48808  -0.48538
 Alpha  occ. eigenvalues --   -0.48300  -0.48244  -0.47969  -0.47766  -0.47451
 Alpha  occ. eigenvalues --   -0.47303  -0.47130  -0.47018  -0.46847  -0.46577
 Alpha  occ. eigenvalues --   -0.46410  -0.45973  -0.45783  -0.45683  -0.45335
 Alpha  occ. eigenvalues --   -0.45231  -0.45100  -0.44977  -0.44828  -0.44649
 Alpha  occ. eigenvalues --   -0.44497  -0.44409  -0.44173  -0.44053  -0.43734
 Alpha  occ. eigenvalues --   -0.43596  -0.43538  -0.43340  -0.43012  -0.42838
 Alpha  occ. eigenvalues --   -0.42781  -0.42730  -0.42487  -0.42221  -0.42017
 Alpha  occ. eigenvalues --   -0.41916  -0.41869  -0.41473  -0.40697  -0.40493
 Alpha  occ. eigenvalues --   -0.40361  -0.40274  -0.40248  -0.39982  -0.39450
 Alpha  occ. eigenvalues --   -0.39338  -0.38811  -0.38405  -0.38324  -0.38307
 Alpha  occ. eigenvalues --   -0.38281  -0.37522  -0.36594  -0.36261  -0.35888
 Alpha  occ. eigenvalues --   -0.35806  -0.35197  -0.35024  -0.33689  -0.32854
 Alpha  occ. eigenvalues --   -0.32700  -0.32413  -0.32263  -0.32158  -0.25870
 Alpha  occ. eigenvalues --   -0.22992
 Alpha virt. eigenvalues --   -0.07091   0.00067   0.02605   0.04752   0.05509
 Alpha virt. eigenvalues --    0.05782   0.07744   0.08055   0.08262   0.09875
 Alpha virt. eigenvalues --    0.10782   0.11443   0.12126   0.12246   0.12446

 Mulliken charges:
               1
     1  Mg   0.965830
     2  C   -0.034679
     3  C   -0.073436
     4  C   -0.056641
     5  C   -0.129250
     6  N   -0.361093
     7  C    0.022589
     8  C   -0.076757
     9  C   -0.087345
    10  C    0.073191
    11  C    0.016251
    12  C   -0.069579
    13  C    0.009590
    14  C    0.248692
    15  O   -0.287569
    16  O   -0.375640
    17  N   -0.463396
    18  C    0.139493
    19  C   -0.173516
    20  C   -0.057958
    21  C    0.156907
    22  C    0.082918
    23  C   -0.017233
    24  O   -0.215158
    25  C    0.016745
    26  N   -0.395219
    27  C    0.058696
    28  C   -0.104379
    29  C   -0.076081
    30  C    0.120806
    31  C    0.030333
    32  C   -0.003801
    33  C   -0.053857
    34  N   -0.448723
    35  C    0.142343
    36  C   -0.184284
    37  C   -0.010809
    38  C    0.139988
    39  C    0.071539
    40  C    0.119050
    41  O   -0.232481
    42  C   -0.070239
    43  C    0.262401
    44  O   -0.256452
    45  O   -0.352762
    46  C    0.146889
    47  C    0.254135
    48  C   -0.148000
    49  C   -0.219945
    50  C    0.035305
    51  C    0.025769
    52  C   -0.006479
    53  C    0.038480
    54  C   -0.188856
    55  C   -0.007548
    56  C    0.017344
    57  C   -0.022937
    58  C    0.012110
    59  C   -0.189395
    60  C    0.006742
    61  C    0.002509
    62  C   -0.027508
    63  C   -0.012898
    64  C   -0.208343
    65  C    0.001335
    66  C    0.000688
    67  H   -0.018109
    68  H    0.017244
    69  H   -0.000004
    70  H    0.038775
    71  H    0.044779
    72  H    0.041872
    73  H    0.035128
    74  H    0.046865
    75  H    0.065274
    76  H    0.072201
    77  H    0.070544
    78  H    0.060079
    79  H    0.049068
    80  H    0.043837
    81  H    0.054813
    82  H    0.058411
    83  H    0.046062
    84  H    0.052617
    85  H    0.039764
    86  H    0.027247
    87  H    0.054678
    88  H    0.025053
    89  H    0.039802
    90  H    0.032739
    91  H    0.026202
    92  H    0.035930
    93  H    0.037653
    94  H    0.038476
    95  H    0.050415
    96  H    0.065101
    97  H    0.059829
    98  H    0.071078
    99  H    0.071726
   100  H    0.046957
   101  H    0.041731
   102  H    0.052497
   103  H    0.061177
   104  H    0.038255
   105  H    0.047078
   106  H    0.010123
   107  H    0.067920
   108  H    0.014312
   109  H    0.020791
   110  H    0.016000
   111  H    0.024271
   112  H   -0.006959
   113  H    0.015800
   114  H    0.015502
   115  H    0.040590
   116  H    0.010052
   117  H    0.015243
   118  H    0.017451
   119  H    0.018852
   120  H    0.021640
   121  H    0.017785
   122  H    0.023020
   123  H    0.016905
   124  H    0.026863
   125  H    0.028980
   126  H    0.020718
   127  H    0.026838
   128  H    0.016717
   129  H    0.013364
   130  H    0.030165
   131  H    0.025506
   132  H    0.014097
   133  H    0.006579
   134  H    0.021211
   135  H    0.021483
   136  H    0.012135
   137  H    0.033941
   138  H    0.026327
   139  H    0.030292
   140  H    0.024219
 Sum of Mulliken charges =  -0.00000

 Dipole moment (field-independent basis, Debye):
    X=             -2.9657    Y=              3.8315    Z=              0.5160  Tot=              4.8726
 Quadrupole moment (field-independent basis, Debye-Ang):
   XX=           -376.8234   YY=           -412.6191   ZZ=           -402.5782
   XY=             -1.9584   XZ=             12.3376   YZ=             -8.1863

 Normal termination of Gaussian 16 at Wed May  4 03:05:29 2022.
