 Gaussian 16, Revision A.03,
 Gaussian 16:  ES64L-G16RevA.03 25-Dec-2016

 --------------------
 #p ZINDO=(nstates=5)
 --------------------

 -----------------------------
 step_1301_chromophore_1 ZINDO
 -----------------------------
 Symbolic Z-matrix:
 Charge =  0 Multiplicity = 1

                         Standard orientation:
 ---------------------------------------------------------------------
 Center     Atomic      Atomic             Coordinates (Angstroms)
 Number     Number       Type             X           Y           Z
 ---------------------------------------------------------------------
      1         12           0        6.314914    0.444618    0.102214
      2          6           0        4.036782   -2.085752   -0.902080
      3          6           0        4.076982    2.818045   -1.146245
      4          6           0        8.690413    2.778055    0.403545
      5          6           0        8.577021   -2.051425    0.884955
      6          7           0        4.258793    0.329973   -0.859956
      7          6           0        3.517418   -0.792987   -1.214791
      8          6           0        2.175406   -0.442761   -1.790591
      9          6           0        2.197072    1.168585   -1.924415
     10          6           0        3.595431    1.501509   -1.263848
     11          6           0        1.968109    1.740287   -3.301212
     12          6           0        0.907186   -1.014928   -1.026184
     13          6           0       -0.531518   -0.429197   -1.422414
     14          6           0       -1.680136   -1.470267   -1.461341
     15          8           0       -1.614766   -2.515953   -2.145345
     16          8           0       -2.782946   -1.159833   -0.670770
     17          7           0        6.328997    2.510590   -0.212067
     18          6           0        5.285835    3.350184   -0.582349
     19          6           0        5.680855    4.754820   -0.520646
     20          6           0        7.028671    4.752910   -0.140569
     21          6           0        7.415035    3.328991    0.073575
     22          6           0        4.674553    5.874755   -0.919722
     23          6           0        7.895821    5.950566   -0.068937
     24          8           0        9.082238    5.866316    0.073854
     25          6           0        7.342585    7.309438   -0.153757
     26          7           0        8.409294    0.330753    0.373512
     27          6           0        9.191314    1.483345    0.551270
     28          6           0       10.524651    1.116991    1.133522
     29          6           0       10.342665   -0.447272    1.530318
     30          6           0        9.001533   -0.762029    0.928241
     31          6           0       11.767724    1.372464    0.208872
     32          6           0       10.472365   -0.845360    3.005859
     33          6           0        9.642206   -0.109447    4.035781
     34          7           0        6.337154   -1.608250    0.084890
     35          6           0        7.362193   -2.483501    0.391893
     36          6           0        6.943618   -3.851744    0.204132
     37          6           0        5.630423   -3.714887   -0.204031
     38          6           0        5.310594   -2.367884   -0.357793
     39          6           0        7.739200   -5.200694    0.537730
     40          6           0        4.437666   -4.486355   -0.425157
     41          8           0        4.173096   -5.691720   -0.226257
     42          6           0        3.305627   -3.451241   -0.917644
     43          6           0        2.133898   -3.809672    0.018831
     44          8           0        2.074860   -3.581884    1.223657
     45          8           0        1.294894   -4.634332   -0.684988
     46          6           0        0.191166   -5.123846    0.160614
     47          6           0       -3.896891   -2.125449   -0.524845
     48          6           0       -5.207764   -1.484364   -0.893393
     49          6           0       -6.332076   -2.158434   -1.184484
     50          6           0       -6.519089   -3.738909   -1.168810
     51          6           0       -7.523395   -1.295573   -1.498486
     52          6           0       -8.531142   -1.246622   -0.320565
     53          6           0       -8.084928   -0.277828    0.782581
     54          6           0       -9.090465    0.908785    0.922243
     55          6           0       -8.303045    2.244784    1.042643
     56          6           0       -9.974215    0.765356    2.216832
     57          6           0      -11.258250    1.484693    2.097174
     58          6           0      -12.455974    0.483558    2.064156
     59          6           0      -13.640097    1.028262    2.967882
     60          6           0      -13.744881    0.329745    4.398569
     61          6           0      -14.957365    0.863676    2.146661
     62          6           0      -14.966541    1.844678    0.943582
     63          6           0      -15.168258    1.013043   -0.395149
     64          6           0      -15.521801    1.926357   -1.641747
     65          6           0      -16.681771    1.408631   -2.423787
     66          6           0      -14.293467    2.007944   -2.526932
     67          1           0        3.402137    3.571920   -1.557240
     68          1           0        9.469230    3.507891    0.634121
     69          1           0        9.205828   -2.842304    1.301350
     70          1           0        2.062834   -0.984022   -2.731230
     71          1           0        1.406668    1.472414   -1.237637
     72          1           0        2.422469    2.673509   -3.633864
     73          1           0        0.904428    1.975239   -3.271778
     74          1           0        2.286878    1.027779   -4.061517
     75          1           0        1.155847   -0.962656    0.033762
     76          1           0        0.881446   -2.035599   -1.405770
     77          1           0       -0.481081    0.113041   -2.366281
     78          1           0       -0.721388    0.195051   -0.548877
     79          1           0        4.596147    6.621655   -0.130027
     80          1           0        3.652149    5.539644   -1.095213
     81          1           0        5.083885    6.300016   -1.835315
     82          1           0        7.048231    7.525104   -1.181145
     83          1           0        8.140477    8.012447    0.085619
     84          1           0        6.617891    7.361946    0.659421
     85          1           0       10.692970    1.685207    2.048791
     86          1           0       11.150033   -0.972080    1.019461
     87          1           0       11.323208    1.800036   -0.690774
     88          1           0       12.309716    0.449287    0.003802
     89          1           0       12.557675    1.960083    0.676861
     90          1           0       11.546419   -0.761923    3.172499
     91          1           0       10.198027   -1.899856    3.040872
     92          1           0        8.837371    0.498539    3.622379
     93          1           0       10.272318    0.570975    4.609518
     94          1           0        9.109494   -0.734229    4.751721
     95          1           0        8.202582   -5.068016    1.515433
     96          1           0        8.386538   -5.566144   -0.260303
     97          1           0        6.899372   -5.890308    0.622008
     98          1           0        3.044744   -3.609243   -1.963533
     99          1           0        0.499501   -5.931759    0.824282
    100          1           0       -0.609677   -5.452294   -0.502415
    101          1           0       -0.326693   -4.299931    0.650299
    102          1           0       -4.056269   -2.477426    0.495069
    103          1           0       -3.751289   -3.048963   -1.086347
    104          1           0       -5.182700   -0.396649   -0.960094
    105          1           0       -7.196437   -4.003338   -0.356722
    106          1           0       -5.631055   -4.235781   -0.778381
    107          1           0       -6.673800   -4.133945   -2.173014
    108          1           0       -7.971195   -1.698349   -2.406774
    109          1           0       -7.138915   -0.343545   -1.866761
    110          1           0       -8.651393   -2.242379    0.105625
    111          1           0       -9.500997   -1.014928   -0.759760
    112          1           0       -7.139685    0.144227    0.439952
    113          1           0       -7.733825   -0.678058    1.733174
    114          1           0       -9.748765    0.860680    0.055553
    115          1           0       -7.486366    2.342160    1.757828
    116          1           0       -9.028774    3.045508    1.180644
    117          1           0       -7.886812    2.580992    0.092888
    118          1           0       -9.469834    1.231373    3.064020
    119          1           0      -10.065456   -0.317653    2.299169
    120          1           0      -11.319900    2.159237    1.243917
    121          1           0      -11.237051    2.171672    2.943058
    122          1           0      -12.170935   -0.530046    2.346627
    123          1           0      -12.788446    0.432318    1.027093
    124          1           0      -13.533293    2.103770    3.112912
    125          1           0      -13.452252    0.989720    5.214679
    126          1           0      -13.083928   -0.536819    4.405823
    127          1           0      -14.739630   -0.018005    4.677189
    128          1           0      -15.908237    0.931413    2.672916
    129          1           0      -14.920749   -0.165971    1.790339
    130          1           0      -14.091044    2.493413    0.968271
    131          1           0      -15.878774    2.436586    1.020418
    132          1           0      -15.914793    0.227827   -0.282612
    133          1           0      -14.287179    0.422857   -0.648740
    134          1           0      -15.822967    2.932393   -1.351226
    135          1           0      -17.233543    0.561877   -2.015246
    136          1           0      -16.300544    0.977058   -3.348715
    137          1           0      -17.373012    2.222351   -2.641362
    138          1           0      -14.622007    2.440269   -3.471888
    139          1           0      -13.834983    1.029239   -2.665038
    140          1           0      -13.532190    2.663693   -2.103406
 ---------------------------------------------------------------------

 SCF Done:  E(RZINDO/S) =  -473.963088501     A.U. after   20 cycles

 Excitation energies and oscillator strengths:

 Excited State   1:      Singlet-A      1.2309 eV 1007.30 nm  f=0.6094  <S**2>=0.000
     175 ->178         0.19515
     176 ->177         0.66254
 This state for optimization and/or second-order correction.
 Total Energy, E(CIS/TDA) =  -473.917855142
 Copying the excited state density for this state as the 1-particle RhoCI density.

 Excited State   2:      Singlet-A      1.8975 eV  653.42 nm  f=0.0377  <S**2>=0.000
     175 ->177         0.54657
     176 ->178        -0.42510

 Excited State   3:      Singlet-A      2.8878 eV  429.34 nm  f=0.0036  <S**2>=0.000
     168 ->177         0.35067
     168 ->178        -0.12697
     168 ->179        -0.40884
     168 ->180         0.10809
     168 ->181         0.20938
     168 ->185        -0.17587
     171 ->177        -0.11678

 Excited State   4:      Singlet-A      2.9511 eV  420.13 nm  f=0.0153  <S**2>=0.000
     169 ->181         0.12042
     170 ->177         0.26151
     170 ->178        -0.12270
     170 ->179         0.28637
     170 ->181         0.34517
     170 ->184        -0.13381
     170 ->185         0.17125
     170 ->187         0.22101

 Excited State   5:      Singlet-A      3.0116 eV  411.69 nm  f=1.1496  <S**2>=0.000
     171 ->177        -0.11778
     175 ->177         0.38329
     176 ->178         0.52178
     176 ->179         0.10287

 The electronic state is 1-A.
 Alpha  occ. eigenvalues --   -1.84962  -1.79236  -1.76659  -1.71566  -1.69658
 Alpha  occ. eigenvalues --   -1.68084  -1.65681  -1.61972  -1.61253  -1.56590
 Alpha  occ. eigenvalues --   -1.55830  -1.51283  -1.47991  -1.46286  -1.46175
 Alpha  occ. eigenvalues --   -1.43693  -1.41942  -1.39864  -1.38167  -1.37897
 Alpha  occ. eigenvalues --   -1.35268  -1.31802  -1.31706  -1.30062  -1.28773
 Alpha  occ. eigenvalues --   -1.27199  -1.24301  -1.21639  -1.20322  -1.17860
 Alpha  occ. eigenvalues --   -1.16959  -1.15977  -1.15006  -1.14850  -1.13734
 Alpha  occ. eigenvalues --   -1.12542  -1.11000  -1.09235  -1.05276  -1.04123
 Alpha  occ. eigenvalues --   -1.02708  -1.01469  -0.99079  -0.97916  -0.97626
 Alpha  occ. eigenvalues --   -0.95981  -0.93886  -0.93461  -0.92753  -0.91708
 Alpha  occ. eigenvalues --   -0.90833  -0.90046  -0.89352  -0.87700  -0.87107
 Alpha  occ. eigenvalues --   -0.85061  -0.84163  -0.83093  -0.81207  -0.80216
 Alpha  occ. eigenvalues --   -0.79862  -0.78367  -0.77369  -0.76077  -0.75815
 Alpha  occ. eigenvalues --   -0.75485  -0.75164  -0.74432  -0.73758  -0.73026
 Alpha  occ. eigenvalues --   -0.72825  -0.71822  -0.71668  -0.71156  -0.70506
 Alpha  occ. eigenvalues --   -0.70240  -0.68767  -0.68473  -0.68185  -0.67718
 Alpha  occ. eigenvalues --   -0.67476  -0.66842  -0.66531  -0.65824  -0.65132
 Alpha  occ. eigenvalues --   -0.65001  -0.64698  -0.64060  -0.63739  -0.63579
 Alpha  occ. eigenvalues --   -0.63274  -0.63062  -0.62834  -0.62479  -0.62011
 Alpha  occ. eigenvalues --   -0.61630  -0.61206  -0.61002  -0.60529  -0.60310
 Alpha  occ. eigenvalues --   -0.59764  -0.59548  -0.58803  -0.58533  -0.58314
 Alpha  occ. eigenvalues --   -0.58016  -0.57563  -0.57344  -0.56489  -0.56247
 Alpha  occ. eigenvalues --   -0.55943  -0.55167  -0.55014  -0.54872  -0.54073
 Alpha  occ. eigenvalues --   -0.53848  -0.53465  -0.53246  -0.53037  -0.52491
 Alpha  occ. eigenvalues --   -0.52050  -0.52019  -0.51655  -0.51594  -0.51453
 Alpha  occ. eigenvalues --   -0.51021  -0.50731  -0.50677  -0.50086  -0.49796
 Alpha  occ. eigenvalues --   -0.49539  -0.49491  -0.49265  -0.49131  -0.48989
 Alpha  occ. eigenvalues --   -0.48626  -0.48515  -0.48458  -0.48246  -0.47523
 Alpha  occ. eigenvalues --   -0.47396  -0.47013  -0.46958  -0.46568  -0.46406
 Alpha  occ. eigenvalues --   -0.46360  -0.46230  -0.45814  -0.45547  -0.45280
 Alpha  occ. eigenvalues --   -0.45122  -0.44896  -0.44682  -0.44210  -0.44168
 Alpha  occ. eigenvalues --   -0.43967  -0.43221  -0.42840  -0.42364  -0.42325
 Alpha  occ. eigenvalues --   -0.41331  -0.41140  -0.41035  -0.39014  -0.38787
 Alpha  occ. eigenvalues --   -0.38068  -0.37595  -0.35188  -0.34584  -0.34295
 Alpha  occ. eigenvalues --   -0.33601  -0.33082  -0.32473  -0.32079  -0.26677
 Alpha  occ. eigenvalues --   -0.21728
 Alpha virt. eigenvalues --   -0.08593  -0.02122  -0.00358   0.01253   0.01457
 Alpha virt. eigenvalues --    0.02193   0.02702   0.02981   0.05150   0.05232
 Alpha virt. eigenvalues --    0.06257   0.07316   0.07426   0.07820   0.08092

 Mulliken charges:
               1
     1  Mg   0.429749
     2  C   -0.056423
     3  C   -0.069454
     4  C   -0.052256
     5  C   -0.062114
     6  N   -0.293085
     7  C    0.138725
     8  C   -0.000645
     9  C    0.004291
    10  C    0.099251
    11  C   -0.047949
    12  C   -0.030657
    13  C    0.005821
    14  C    0.465278
    15  O   -0.524712
    16  O   -0.271674
    17  N   -0.315186
    18  C    0.087522
    19  C   -0.003193
    20  C   -0.039293
    21  C    0.126235
    22  C   -0.042497
    23  C    0.332734
    24  O   -0.527784
    25  C   -0.030899
    26  N   -0.282771
    27  C    0.124652
    28  C    0.001839
    29  C   -0.006580
    30  C    0.150755
    31  C   -0.055047
    32  C   -0.018004
    33  C   -0.050743
    34  N   -0.328571
    35  C    0.116399
    36  C    0.018878
    37  C   -0.023838
    38  C    0.132325
    39  C   -0.044338
    40  C    0.327557
    41  O   -0.520159
    42  C    0.046082
    43  C    0.495740
    44  O   -0.526408
    45  O   -0.253652
    46  C    0.074885
    47  C    0.102575
    48  C   -0.084072
    49  C   -0.020439
    50  C   -0.050004
    51  C   -0.018965
    52  C   -0.020582
    53  C   -0.040466
    54  C   -0.017090
    55  C   -0.059746
    56  C   -0.034815
    57  C   -0.034079
    58  C   -0.035170
    59  C   -0.016097
    60  C   -0.063517
    61  C   -0.040742
    62  C   -0.039964
    63  C   -0.041840
    64  C   -0.010112
    65  C   -0.054988
    66  C   -0.050948
    67  H    0.020139
    68  H    0.033934
    69  H    0.027493
    70  H    0.030453
    71  H    0.029544
    72  H    0.025685
    73  H    0.015482
    74  H    0.025301
    75  H    0.042797
    76  H    0.032884
    77  H    0.056148
    78  H    0.032405
    79  H    0.027335
    80  H    0.027756
    81  H    0.031803
    82  H    0.045521
    83  H    0.030205
    84  H    0.038458
    85  H    0.029001
    86  H    0.026115
    87  H    0.033251
    88  H    0.017947
    89  H    0.026067
    90  H    0.017421
    91  H    0.018480
    92  H    0.021049
    93  H    0.016880
    94  H    0.019836
    95  H    0.034576
    96  H    0.042387
    97  H    0.035734
    98  H    0.051372
    99  H    0.055942
   100  H    0.024793
   101  H    0.040841
   102  H    0.044362
   103  H    0.057049
   104  H    0.037573
   105  H    0.033810
   106  H    0.014727
   107  H    0.042332
   108  H    0.010247
   109  H    0.024332
   110  H    0.017921
   111  H    0.018641
   112  H    0.008709
   113  H    0.027935
   114  H    0.031116
   115  H    0.031355
   116  H    0.007272
   117  H    0.005303
   118  H    0.020984
   119  H    0.020537
   120  H    0.019707
   121  H    0.014699
   122  H    0.027419
   123  H    0.021029
   124  H    0.022219
   125  H    0.017415
   126  H    0.017627
   127  H    0.020694
   128  H    0.019318
   129  H    0.012370
   130  H    0.032667
   131  H    0.015452
   132  H    0.020447
   133  H    0.017323
   134  H    0.021181
   135  H    0.016491
   136  H    0.011775
   137  H    0.017266
   138  H    0.012964
   139  H    0.022900
   140  H    0.010072
 Sum of Mulliken charges =  -0.00000

 Dipole moment (field-independent basis, Debye):
    X=             -3.1391    Y=              4.6117    Z=             -0.3761  Tot=              5.5914
 N-N= 4.196926745155D+03 E-N= 0.000000000000D+00  KE=-9.068331649049D+03
 Leave Link  601 at Wed May  4 03:17:26 2022, MaxMem=  6710886400 cpu:               0.8 elap:               0.0
 (Enter /sw/apps/gaussian-16.0/g16/l9999.exe)
 1\1\GINC-BP1-COMPUTE040\SP\RZINDO CIS\STO-3G\C55H74Mg1N4O6\OF15641\04-
 May-2022\0\\#p ZINDO=(nstates=5)\\step_1301_chromophore_1 ZINDO\\0,1\M
 g,0,-1.064,17.737,26.495\C,0,-1.426,15.702,29.381\C,0,-1.937,20.496,28
 .451\C,0,-1.398,19.552,23.707\C,0,-0.644,14.848,24.641\N,0,-1.562,18.0
 25,28.694\C,0,-1.691,17.069,29.697\C,0,-1.988,17.674,31.039\C,0,-2.21,
 19.247,30.737\C,0,-1.879,19.301,29.191\C,0,-3.536,19.838,31.146\C,0,-0
 .943,17.375,32.196\C,0,-1.057,18.232,33.546\C,0,-0.796,17.441,34.854\O

 Normal termination of Gaussian 16 at Wed May  4 03:17:26 2022.
