 Gaussian 16, Revision A.03,
 Gaussian 16:  ES64L-G16RevA.03 25-Dec-2016

 ------------------------------
 #p blyp/Def2SVP td=(nstates=5)
 ------------------------------

 --------------------------------------------------
 step_501_chromophore_10 TDDFT with blyp functional
 --------------------------------------------------
 Symbolic Z-matrix:
 Charge =  0 Multiplicity = 1

                         Standard orientation:
 ---------------------------------------------------------------------
 Center     Atomic      Atomic             Coordinates (Angstroms)
 Number     Number       Type             X           Y           Z
 ---------------------------------------------------------------------
      1         12           0       -5.892296    0.369386   -0.012599
      2          6           0       -3.335373   -2.056639    0.090913
      3          6           0       -3.664576    2.654361    1.263162
      4          6           0       -8.293277    2.717951   -0.005356
      5          6           0       -8.247677   -2.109797   -0.753557
      6          7           0       -3.756950    0.251652    0.443165
      7          6           0       -2.871885   -0.741030    0.437647
      8          6           0       -1.431977   -0.383509    0.861219
      9          6           0       -1.765806    1.059820    1.478935
     10          6           0       -3.193154    1.329341    1.069437
     11          6           0       -1.586962    1.136000    2.975780
     12          6           0       -0.369154   -0.312176   -0.369588
     13          6           0        1.072440   -0.592908    0.064515
     14          6           0        1.709752   -1.831851   -0.615721
     15          8           0        1.657347   -2.198876   -1.816021
     16          8           0        2.661574   -2.345995    0.240368
     17          7           0       -5.956261    2.486134    0.398756
     18          6           0       -4.892021    3.220843    0.977711
     19          6           0       -5.259674    4.616641    0.898280
     20          6           0       -6.595237    4.673064    0.510101
     21          6           0       -7.025955    3.262734    0.254665
     22          6           0       -4.386580    5.751007    1.400634
     23          6           0       -7.523082    5.842888    0.274779
     24          8           0       -8.628201    5.650124   -0.141010
     25          6           0       -7.083160    7.259058    0.473451
     26          7           0       -7.991457    0.304973   -0.132831
     27          6           0       -8.769231    1.425157   -0.177269
     28          6           0      -10.212372    0.942424   -0.492024
     29          6           0      -10.064267   -0.369112   -1.242266
     30          6           0       -8.692162   -0.813708   -0.683308
     31          6           0      -10.959224    0.693833    0.817654
     32          6           0      -10.117513   -0.248858   -2.720343
     33          6           0       -9.305576    0.826634   -3.398696
     34          7           0       -5.860952   -1.667128   -0.319780
     35          6           0       -6.874348   -2.563521   -0.602603
     36          6           0       -6.293115   -3.907991   -0.739283
     37          6           0       -4.919245   -3.731327   -0.499808
     38          6           0       -4.716787   -2.399674   -0.259620
     39          6           0       -7.025057   -5.150782   -1.010717
     40          6           0       -3.624955   -4.357150   -0.545170
     41          8           0       -3.287992   -5.543571   -0.831227
     42          6           0       -2.542031   -3.234614   -0.181525
     43          6           0       -1.848099   -3.704035    1.070843
     44          8           0       -2.439003   -4.107577    2.028281
     45          8           0       -0.432194   -3.581000    1.069914
     46          6           0        0.219274   -3.734853    2.406230
     47          6           0        3.538839   -3.365670   -0.294137
     48          6           0        4.889066   -2.617645   -0.587579
     49          6           0        6.102300   -3.042996   -0.525764
     50          6           0        6.563580   -4.468681   -0.197105
     51          6           0        7.133216   -1.988404   -0.800772
     52          6           0        7.242460   -0.843649    0.310467
     53          6           0        8.052818   -1.273420    1.591361
     54          6           0        9.408135   -0.557792    1.842059
     55          6           0        9.906228   -0.807885    3.246661
     56          6           0        9.396908    0.903077    1.533271
     57          6           0       10.358012    1.269037    0.359076
     58          6           0        9.805175    2.066948   -0.900229
     59          6           0       10.724988    3.102471   -1.482455
     60          6           0        9.894998    4.203004   -2.247673
     61          6           0       11.866612    2.535773   -2.346906
     62          6           0       13.261917    2.937766   -1.839246
     63          6           0       14.250565    1.771041   -1.708395
     64          6           0       14.587637    1.337648   -0.270949
     65          6           0       15.716869    2.194135    0.227258
     66          6           0       14.898814   -0.183021   -0.183928
     67          1           0       -2.987637    3.380968    1.716030
     68          1           0       -9.119273    3.427267    0.082868
     69          1           0       -8.890742   -2.897621   -1.152037
     70          1           0       -1.045314   -1.140221    1.544986
     71          1           0       -1.057677    1.724312    0.982318
     72          1           0       -0.602163    1.573024    3.140162
     73          1           0       -1.754573    0.179796    3.471894
     74          1           0       -2.276556    1.923541    3.279481
     75          1           0       -0.387343    0.682297   -0.816528
     76          1           0       -0.664215   -0.989825   -1.170987
     77          1           0        0.958059   -0.682466    1.144989
     78          1           0        1.716734    0.276693   -0.063606
     79          1           0       -3.387046    5.319806    1.441429
     80          1           0       -4.733636    5.884620    2.424835
     81          1           0       -4.398181    6.613000    0.733288
     82          1           0       -6.416318    7.358497   -0.383187
     83          1           0       -6.513782    7.434428    1.385824
     84          1           0       -7.938824    7.933034    0.419851
     85          1           0      -10.831999    1.653402   -1.037436
     86          1           0      -10.834364   -1.112428   -1.038717
     87          1           0      -11.089663   -0.325430    1.181375
     88          1           0      -11.948946    1.138654    0.714792
     89          1           0      -10.455705    1.259440    1.602482
     90          1           0      -11.141879   -0.171215   -3.085455
     91          1           0       -9.742545   -1.209738   -3.072286
     92          1           0       -8.526804    0.300913   -3.951921
     93          1           0       -8.791040    1.624876   -2.862932
     94          1           0       -9.937506    1.303474   -4.147788
     95          1           0       -7.609775   -5.399222   -0.125070
     96          1           0       -6.238642   -5.864503   -1.255924
     97          1           0       -7.746766   -5.021244   -1.818346
     98          1           0       -1.922183   -3.156000   -1.074862
     99          1           0        0.278078   -4.788490    2.678980
    100          1           0       -0.296818   -3.193993    3.200774
    101          1           0        1.265615   -3.436368    2.464177
    102          1           0        3.212401   -3.874252   -1.200750
    103          1           0        3.736102   -4.163342    0.422105
    104          1           0        4.734942   -1.547587   -0.725517
    105          1           0        6.630938   -4.453021    0.891108
    106          1           0        7.457093   -4.861059   -0.683546
    107          1           0        5.718538   -5.153102   -0.273712
    108          1           0        6.850959   -1.686543   -1.808556
    109          1           0        8.033112   -2.589846   -0.931976
    110          1           0        6.272383   -0.411911    0.558821
    111          1           0        7.879766   -0.098579   -0.166389
    112          1           0        8.354501   -2.293789    1.354404
    113          1           0        7.540928   -1.273915    2.553984
    114          1           0       10.134879   -1.075634    1.215779
    115          1           0        9.155465   -0.556699    3.995720
    116          1           0       10.745526   -0.154199    3.484226
    117          1           0       10.312184   -1.817819    3.300075
    118          1           0        9.749272    1.387893    2.443633
    119          1           0        8.456427    1.418467    1.341751
    120          1           0       10.823677    0.388874   -0.084892
    121          1           0       11.110718    1.943488    0.768250
    122          1           0        8.838653    2.470598   -0.599507
    123          1           0        9.622705    1.267924   -1.619350
    124          1           0       11.185558    3.555988   -0.604663
    125          1           0        9.198435    4.698521   -1.570721
    126          1           0        9.308790    3.655160   -2.986122
    127          1           0       10.505941    5.014996   -2.641057
    128          1           0       11.781775    2.841757   -3.389938
    129          1           0       11.883944    1.455118   -2.489163
    130          1           0       13.313987    3.464653   -0.885940
    131          1           0       13.773857    3.604461   -2.533364
    132          1           0       15.154596    2.140827   -2.191906
    133          1           0       13.890895    0.939121   -2.314665
    134          1           0       13.782640    1.463785    0.453067
    135          1           0       15.744488    1.977945    1.294949
    136          1           0       15.406119    3.238343    0.175262
    137          1           0       16.700069    1.983431   -0.193955
    138          1           0       13.959421   -0.679256    0.060207
    139          1           0       15.563935   -0.364676    0.660886
    140          1           0       15.292016   -0.546014   -1.133135
 ---------------------------------------------------------------------

 SCF Done:  E(RB-LYP) =  -3007.36505034     A.U. after   21 cycles

 Excitation energies and oscillator strengths:

 Excited State   1:      Singlet-A      1.7605 eV  704.24 nm  f=0.2042  <S**2>=0.000
     244 -> 247        0.37872
     245 -> 248       -0.15702
     246 -> 247        0.58475
     246 <- 247       -0.12564
 This state for optimization and/or second-order correction.
 Total Energy, E(TD-HF/TD-DFT) =  -3007.30035140
 Copying the excited state density for this state as the 1-particle RhoCI density.

 Excited State   2:      Singlet-A      1.8241 eV  679.70 nm  f=0.0989  <S**2>=0.000
     244 -> 247        0.57194
     245 -> 247        0.16267
     245 -> 248        0.11490
     246 -> 247       -0.37086

 Excited State   3:      Singlet-A      1.9178 eV  646.51 nm  f=0.0166  <S**2>=0.000
     243 -> 247        0.61567
     244 -> 247        0.10422
     245 -> 247       -0.31461

 Excited State   4:      Singlet-A      1.9871 eV  623.95 nm  f=0.0679  <S**2>=0.000
     243 -> 247        0.34427
     244 -> 247       -0.13054
     245 -> 247        0.55187
     246 -> 248        0.22312

 Excited State   5:      Singlet-A      2.2031 eV  562.76 nm  f=0.0000  <S**2>=0.000
     242 -> 247        0.70709

 The electronic state is 1-A.
 Alpha  occ. eigenvalues --  -46.27119 -18.82370 -18.81907 -18.77058 -18.77038
 Alpha  occ. eigenvalues --  -18.75492 -18.75311 -14.04228 -14.02759 -14.01047
 Alpha  occ. eigenvalues --  -14.00838 -10.04803 -10.04089  -9.99711  -9.99491
 Alpha  occ. eigenvalues --   -9.97629  -9.97589  -9.97019  -9.96883  -9.96530
 Alpha  occ. eigenvalues --   -9.96377  -9.96029  -9.95737  -9.95568  -9.94907
 Alpha  occ. eigenvalues --   -9.94464  -9.94302  -9.94218  -9.94104  -9.93944
 Alpha  occ. eigenvalues --   -9.93910  -9.93898  -9.93622  -9.93480  -9.93301
 Alpha  occ. eigenvalues --   -9.93246  -9.92985  -9.92926  -9.92674  -9.92636
 Alpha  occ. eigenvalues --   -9.92497  -9.92426  -9.92240  -9.91887  -9.91856
 Alpha  occ. eigenvalues --   -9.91810  -9.91798  -9.91752  -9.91492  -9.91477
 Alpha  occ. eigenvalues --   -9.91459  -9.91442  -9.91369  -9.91198  -9.91126
 Alpha  occ. eigenvalues --   -9.91050  -9.90969  -9.90936  -9.90935  -9.90869
 Alpha  occ. eigenvalues --   -9.90734  -9.90706  -9.90697  -9.90523  -9.90463
 Alpha  occ. eigenvalues --   -9.90258  -2.91708  -1.72151  -1.71559  -1.71435
 Alpha  occ. eigenvalues --   -0.97476  -0.97204  -0.93266  -0.89712  -0.88616
 Alpha  occ. eigenvalues --   -0.88584  -0.87422  -0.85655  -0.85560  -0.84316
 Alpha  occ. eigenvalues --   -0.75868  -0.73932  -0.73256  -0.73174  -0.72938
 Alpha  occ. eigenvalues --   -0.72616  -0.72175  -0.71321  -0.71262  -0.70436
 Alpha  occ. eigenvalues --   -0.70026  -0.69506  -0.67626  -0.67386  -0.66884
 Alpha  occ. eigenvalues --   -0.66414  -0.66208  -0.65530  -0.64875  -0.64415
 Alpha  occ. eigenvalues --   -0.64147  -0.62811  -0.62405  -0.61843  -0.61306
 Alpha  occ. eigenvalues --   -0.61052  -0.60236  -0.59721  -0.59608  -0.59175
 Alpha  occ. eigenvalues --   -0.58302  -0.57535  -0.56479  -0.55320  -0.55056
 Alpha  occ. eigenvalues --   -0.54033  -0.53686  -0.52978  -0.52859  -0.51695
 Alpha  occ. eigenvalues --   -0.51629  -0.50748  -0.50368  -0.49763  -0.49661
 Alpha  occ. eigenvalues --   -0.49545  -0.48920  -0.48326  -0.48209  -0.46718
 Alpha  occ. eigenvalues --   -0.46525  -0.45788  -0.45662  -0.45560  -0.45027
 Alpha  occ. eigenvalues --   -0.44361  -0.43977  -0.43223  -0.42719  -0.42073
 Alpha  occ. eigenvalues --   -0.41840  -0.41731  -0.41370  -0.41308  -0.41251
 Alpha  occ. eigenvalues --   -0.40993  -0.40789  -0.40716  -0.40584  -0.40389
 Alpha  occ. eigenvalues --   -0.40151  -0.39816  -0.39698  -0.39403  -0.39365
 Alpha  occ. eigenvalues --   -0.39078  -0.38878  -0.38858  -0.38519  -0.38358
 Alpha  occ. eigenvalues --   -0.38277  -0.37972  -0.37857  -0.37761  -0.37364
 Alpha  occ. eigenvalues --   -0.37282  -0.37071  -0.36995  -0.36776  -0.36673
 Alpha  occ. eigenvalues --   -0.36589  -0.36333  -0.36209  -0.35803  -0.35644
 Alpha  occ. eigenvalues --   -0.35335  -0.35195  -0.34979  -0.34818  -0.34529
 Alpha  occ. eigenvalues --   -0.34509  -0.34428  -0.34311  -0.34138  -0.34057
 Alpha  occ. eigenvalues --   -0.33564  -0.33535  -0.33247  -0.33158  -0.33106
 Alpha  occ. eigenvalues --   -0.32753  -0.32600  -0.32334  -0.32272  -0.32158
 Alpha  occ. eigenvalues --   -0.31889  -0.31800  -0.31645  -0.31539  -0.31428
 Alpha  occ. eigenvalues --   -0.31233  -0.31058  -0.30902  -0.30781  -0.30572
 Alpha  occ. eigenvalues --   -0.30408  -0.30224  -0.29987  -0.29886  -0.29762
 Alpha  occ. eigenvalues --   -0.29531  -0.29451  -0.29325  -0.29249  -0.29163
 Alpha  occ. eigenvalues --   -0.28775  -0.28711  -0.28381  -0.28088  -0.27840
 Alpha  occ. eigenvalues --   -0.27583  -0.27308  -0.27186  -0.26797  -0.26499
 Alpha  occ. eigenvalues --   -0.26456  -0.26330  -0.25778  -0.25531  -0.25139
 Alpha  occ. eigenvalues --   -0.25059  -0.24701  -0.24347  -0.24151  -0.23940
 Alpha  occ. eigenvalues --   -0.23728  -0.22646  -0.22125  -0.21912  -0.20639
 Alpha  occ. eigenvalues --   -0.20415  -0.19896  -0.18811  -0.18355  -0.17310
 Alpha  occ. eigenvalues --   -0.15981
 Alpha virt. eigenvalues --   -0.11799  -0.06864  -0.06110  -0.04765  -0.03970
 Alpha virt. eigenvalues --   -0.02548  -0.02365  -0.01392  -0.00448  -0.00193
 Alpha virt. eigenvalues --    0.00823   0.01406   0.02104   0.02233   0.02855

 Mulliken charges:
               1
     1  Mg   0.681332
     2  C   -0.027067
     3  C   -0.090890
     4  C   -0.024591
     5  C   -0.061420
     6  N   -0.182207
     7  C   -0.078524
     8  C   -0.006067
     9  C   -0.026407
    10  C    0.085660
    11  C    0.162907
    12  C    0.109747
    13  C    0.104390
    14  C    0.146203
    15  O   -0.215652
    16  O   -0.270934
    17  N   -0.278779
    18  C    0.118221
    19  C   -0.165910
    20  C    0.058581
    21  C    0.080319
    22  C    0.175375
    23  C   -0.108223
    24  O   -0.139284
    25  C    0.133462
    26  N   -0.264079
    27  C    0.038018
    28  C    0.024121
    29  C    0.058157
    30  C    0.083237
    31  C    0.136113
    32  C    0.101360
    33  C    0.054564
    34  N   -0.264665
    35  C    0.065078
    36  C   -0.194248
    37  C    0.126185
    38  C    0.074338
    39  C    0.180843
    40  C   -0.078798
    41  O   -0.174639
    42  C    0.119904
    43  C    0.106715
    44  O   -0.146232
    45  O   -0.311912
    46  C    0.213596
    47  C    0.309627
    48  C   -0.122753
    49  C   -0.165721
    50  C    0.159591
    51  C    0.121004
    52  C    0.112662
    53  C    0.097834
    54  C   -0.081025
    55  C    0.107960
    56  C    0.147113
    57  C    0.008372
    58  C    0.055905
    59  C   -0.023115
    60  C    0.098892
    61  C    0.153069
    62  C    0.061575
    63  C    0.089705
    64  C   -0.091971
    65  C    0.110769
    66  C    0.100454
    67  H   -0.050569
    68  H   -0.044446
    69  H   -0.060491
    70  H   -0.011620
    71  H   -0.026559
    72  H   -0.018224
    73  H    0.009819
    74  H   -0.023192
    75  H   -0.029675
    76  H   -0.002138
    77  H   -0.015042
    78  H    0.011193
    79  H   -0.019670
    80  H    0.024221
    81  H    0.009492
    82  H    0.012137
    83  H    0.002562
    84  H   -0.000941
    85  H   -0.041577
    86  H   -0.048656
    87  H   -0.001807
    88  H   -0.015682
    89  H   -0.017051
    90  H   -0.021535
    91  H   -0.039085
    92  H   -0.016786
    93  H    0.017507
    94  H   -0.018807
    95  H    0.006063
    96  H    0.017245
    97  H   -0.008342
    98  H    0.014019
    99  H    0.012035
   100  H    0.010959
   101  H    0.014640
   102  H    0.017975
   103  H   -0.015377
   104  H   -0.036851
   105  H   -0.002322
   106  H    0.010415
   107  H   -0.027548
   108  H   -0.013087
   109  H   -0.053117
   110  H   -0.016436
   111  H   -0.018184
   112  H   -0.043091
   113  H   -0.035289
   114  H   -0.040202
   115  H   -0.015427
   116  H   -0.025357
   117  H   -0.017870
   118  H   -0.053083
   119  H   -0.035211
   120  H   -0.013910
   121  H   -0.021095
   122  H   -0.042100
   123  H   -0.024581
   124  H   -0.040389
   125  H   -0.023751
   126  H   -0.009702
   127  H   -0.013053
   128  H   -0.043842
   129  H   -0.041127
   130  H   -0.029526
   131  H   -0.044607
   132  H   -0.044588
   133  H   -0.043735
   134  H   -0.036093
   135  H   -0.031758
   136  H   -0.022714
   137  H   -0.008149
   138  H   -0.017464
   139  H   -0.026989
   140  H   -0.008609
 Sum of Mulliken charges =  -0.00000

 Dipole moment (field-independent basis, Debye):
    X=              2.4286    Y=              5.0365    Z=              2.1965  Tot=              6.0074
 Quadrupole moment (field-independent basis, Debye-Ang):
   XX=           -383.5288   YY=           -424.1108   ZZ=           -406.8077
   XY=             -4.0019   XZ=             10.6548   YZ=              2.5743

 Normal termination of Gaussian 16 at Fri Apr 29 21:49:25 2022.
