 Gaussian 16, Revision A.03,
 Gaussian 16:  ES64L-G16RevA.03 25-Dec-2016

 -----------------------------------
 #p cam-b3lyp/Def2SVP td=(nstates=5)
 -----------------------------------

 -------------------------------------------------------
 step_501_chromophore_10 TDDFT with cam-b3lyp functional
 -------------------------------------------------------
 Symbolic Z-matrix:
 Charge =  0 Multiplicity = 1

                         Standard orientation:
 ---------------------------------------------------------------------
 Center     Atomic      Atomic             Coordinates (Angstroms)
 Number     Number       Type             X           Y           Z
 ---------------------------------------------------------------------
      1         12           0       -5.892296    0.369386   -0.012599
      2          6           0       -3.335373   -2.056639    0.090913
      3          6           0       -3.664576    2.654361    1.263162
      4          6           0       -8.293277    2.717951   -0.005356
      5          6           0       -8.247677   -2.109797   -0.753557
      6          7           0       -3.756950    0.251652    0.443165
      7          6           0       -2.871885   -0.741030    0.437647
      8          6           0       -1.431977   -0.383509    0.861219
      9          6           0       -1.765806    1.059820    1.478935
     10          6           0       -3.193154    1.329341    1.069437
     11          6           0       -1.586962    1.136000    2.975780
     12          6           0       -0.369154   -0.312176   -0.369588
     13          6           0        1.072440   -0.592908    0.064515
     14          6           0        1.709752   -1.831851   -0.615721
     15          8           0        1.657347   -2.198876   -1.816021
     16          8           0        2.661574   -2.345995    0.240368
     17          7           0       -5.956261    2.486134    0.398756
     18          6           0       -4.892021    3.220843    0.977711
     19          6           0       -5.259674    4.616641    0.898280
     20          6           0       -6.595237    4.673064    0.510101
     21          6           0       -7.025955    3.262734    0.254665
     22          6           0       -4.386580    5.751007    1.400634
     23          6           0       -7.523082    5.842888    0.274779
     24          8           0       -8.628201    5.650124   -0.141010
     25          6           0       -7.083160    7.259058    0.473451
     26          7           0       -7.991457    0.304973   -0.132831
     27          6           0       -8.769231    1.425157   -0.177269
     28          6           0      -10.212372    0.942424   -0.492024
     29          6           0      -10.064267   -0.369112   -1.242266
     30          6           0       -8.692162   -0.813708   -0.683308
     31          6           0      -10.959224    0.693833    0.817654
     32          6           0      -10.117513   -0.248858   -2.720343
     33          6           0       -9.305576    0.826634   -3.398696
     34          7           0       -5.860952   -1.667128   -0.319780
     35          6           0       -6.874348   -2.563521   -0.602603
     36          6           0       -6.293115   -3.907991   -0.739283
     37          6           0       -4.919245   -3.731327   -0.499808
     38          6           0       -4.716787   -2.399674   -0.259620
     39          6           0       -7.025057   -5.150782   -1.010717
     40          6           0       -3.624955   -4.357150   -0.545170
     41          8           0       -3.287992   -5.543571   -0.831227
     42          6           0       -2.542031   -3.234614   -0.181525
     43          6           0       -1.848099   -3.704035    1.070843
     44          8           0       -2.439003   -4.107577    2.028281
     45          8           0       -0.432194   -3.581000    1.069914
     46          6           0        0.219274   -3.734853    2.406230
     47          6           0        3.538839   -3.365670   -0.294137
     48          6           0        4.889066   -2.617645   -0.587579
     49          6           0        6.102300   -3.042996   -0.525764
     50          6           0        6.563580   -4.468681   -0.197105
     51          6           0        7.133216   -1.988404   -0.800772
     52          6           0        7.242460   -0.843649    0.310467
     53          6           0        8.052818   -1.273420    1.591361
     54          6           0        9.408135   -0.557792    1.842059
     55          6           0        9.906228   -0.807885    3.246661
     56          6           0        9.396908    0.903077    1.533271
     57          6           0       10.358012    1.269037    0.359076
     58          6           0        9.805175    2.066948   -0.900229
     59          6           0       10.724988    3.102471   -1.482455
     60          6           0        9.894998    4.203004   -2.247673
     61          6           0       11.866612    2.535773   -2.346906
     62          6           0       13.261917    2.937766   -1.839246
     63          6           0       14.250565    1.771041   -1.708395
     64          6           0       14.587637    1.337648   -0.270949
     65          6           0       15.716869    2.194135    0.227258
     66          6           0       14.898814   -0.183021   -0.183928
     67          1           0       -2.987637    3.380968    1.716030
     68          1           0       -9.119273    3.427267    0.082868
     69          1           0       -8.890742   -2.897621   -1.152037
     70          1           0       -1.045314   -1.140221    1.544986
     71          1           0       -1.057677    1.724312    0.982318
     72          1           0       -0.602163    1.573024    3.140162
     73          1           0       -1.754573    0.179796    3.471894
     74          1           0       -2.276556    1.923541    3.279481
     75          1           0       -0.387343    0.682297   -0.816528
     76          1           0       -0.664215   -0.989825   -1.170987
     77          1           0        0.958059   -0.682466    1.144989
     78          1           0        1.716734    0.276693   -0.063606
     79          1           0       -3.387046    5.319806    1.441429
     80          1           0       -4.733636    5.884620    2.424835
     81          1           0       -4.398181    6.613000    0.733288
     82          1           0       -6.416318    7.358497   -0.383187
     83          1           0       -6.513782    7.434428    1.385824
     84          1           0       -7.938824    7.933034    0.419851
     85          1           0      -10.831999    1.653402   -1.037436
     86          1           0      -10.834364   -1.112428   -1.038717
     87          1           0      -11.089663   -0.325430    1.181375
     88          1           0      -11.948946    1.138654    0.714792
     89          1           0      -10.455705    1.259440    1.602482
     90          1           0      -11.141879   -0.171215   -3.085455
     91          1           0       -9.742545   -1.209738   -3.072286
     92          1           0       -8.526804    0.300913   -3.951921
     93          1           0       -8.791040    1.624876   -2.862932
     94          1           0       -9.937506    1.303474   -4.147788
     95          1           0       -7.609775   -5.399222   -0.125070
     96          1           0       -6.238642   -5.864503   -1.255924
     97          1           0       -7.746766   -5.021244   -1.818346
     98          1           0       -1.922183   -3.156000   -1.074862
     99          1           0        0.278078   -4.788490    2.678980
    100          1           0       -0.296818   -3.193993    3.200774
    101          1           0        1.265615   -3.436368    2.464177
    102          1           0        3.212401   -3.874252   -1.200750
    103          1           0        3.736102   -4.163342    0.422105
    104          1           0        4.734942   -1.547587   -0.725517
    105          1           0        6.630938   -4.453021    0.891108
    106          1           0        7.457093   -4.861059   -0.683546
    107          1           0        5.718538   -5.153102   -0.273712
    108          1           0        6.850959   -1.686543   -1.808556
    109          1           0        8.033112   -2.589846   -0.931976
    110          1           0        6.272383   -0.411911    0.558821
    111          1           0        7.879766   -0.098579   -0.166389
    112          1           0        8.354501   -2.293789    1.354404
    113          1           0        7.540928   -1.273915    2.553984
    114          1           0       10.134879   -1.075634    1.215779
    115          1           0        9.155465   -0.556699    3.995720
    116          1           0       10.745526   -0.154199    3.484226
    117          1           0       10.312184   -1.817819    3.300075
    118          1           0        9.749272    1.387893    2.443633
    119          1           0        8.456427    1.418467    1.341751
    120          1           0       10.823677    0.388874   -0.084892
    121          1           0       11.110718    1.943488    0.768250
    122          1           0        8.838653    2.470598   -0.599507
    123          1           0        9.622705    1.267924   -1.619350
    124          1           0       11.185558    3.555988   -0.604663
    125          1           0        9.198435    4.698521   -1.570721
    126          1           0        9.308790    3.655160   -2.986122
    127          1           0       10.505941    5.014996   -2.641057
    128          1           0       11.781775    2.841757   -3.389938
    129          1           0       11.883944    1.455118   -2.489163
    130          1           0       13.313987    3.464653   -0.885940
    131          1           0       13.773857    3.604461   -2.533364
    132          1           0       15.154596    2.140827   -2.191906
    133          1           0       13.890895    0.939121   -2.314665
    134          1           0       13.782640    1.463785    0.453067
    135          1           0       15.744488    1.977945    1.294949
    136          1           0       15.406119    3.238343    0.175262
    137          1           0       16.700069    1.983431   -0.193955
    138          1           0       13.959421   -0.679256    0.060207
    139          1           0       15.563935   -0.364676    0.660886
    140          1           0       15.292016   -0.546014   -1.133135
 ---------------------------------------------------------------------

 SCF Done:  E(RCAM-B3LYP) =  -3007.16497004     A.U. after   17 cycles

 Excitation energies and oscillator strengths:

 Excited State   1:      Singlet-A      1.6970 eV  730.60 nm  f=0.3635  <S**2>=0.000
     245 -> 248       -0.17456
     246 -> 247        0.68754
     245 <- 248       -0.10612
 This state for optimization and/or second-order correction.
 Total Energy, E(TD-HF/TD-DFT) =  -3007.10260614
 Copying the excited state density for this state as the 1-particle RhoCI density.

 Excited State   2:      Singlet-A      2.1830 eV  567.96 nm  f=0.1263  <S**2>=0.000
     245 -> 247        0.64713
     246 -> 248        0.27050

 Excited State   3:      Singlet-A      3.3515 eV  369.94 nm  f=0.0162  <S**2>=0.000
     242 -> 247        0.47236
     244 -> 247       -0.46927
     246 -> 248       -0.11219

 Excited State   4:      Singlet-A      3.4313 eV  361.33 nm  f=0.0199  <S**2>=0.000
     241 -> 247        0.55723
     241 -> 249       -0.24972
     241 -> 250       -0.20146
     242 -> 249        0.12635
     246 -> 248       -0.16715

 Excited State   5:      Singlet-A      3.4446 eV  359.94 nm  f=0.0337  <S**2>=0.000
     239 -> 247        0.18203
     241 -> 249        0.10651
     242 -> 247        0.33473
     244 -> 247        0.47485
     246 -> 248       -0.29334

 The electronic state is 1-A.
 Alpha  occ. eigenvalues --  -46.88626 -19.25163 -19.24825 -19.20177 -19.19963
 Alpha  occ. eigenvalues --  -19.19075 -19.18190 -14.43454 -14.41338 -14.39708
 Alpha  occ. eigenvalues --  -14.39049 -10.40220 -10.39526 -10.35181 -10.34695
 Alpha  occ. eigenvalues --  -10.31882 -10.31654 -10.31562 -10.31266 -10.31173
 Alpha  occ. eigenvalues --  -10.30944 -10.30609 -10.30516 -10.29436 -10.29388
 Alpha  occ. eigenvalues --  -10.29116 -10.28409 -10.28365 -10.28361 -10.28273
 Alpha  occ. eigenvalues --  -10.28249 -10.28240 -10.28223 -10.27525 -10.27459
 Alpha  occ. eigenvalues --  -10.27116 -10.27108 -10.26678 -10.26645 -10.26583
 Alpha  occ. eigenvalues --  -10.26544 -10.26152 -10.26110 -10.25619 -10.25553
 Alpha  occ. eigenvalues --  -10.25458 -10.25413 -10.25366 -10.25130 -10.25116
 Alpha  occ. eigenvalues --  -10.25098 -10.25085 -10.25038 -10.24896 -10.24740
 Alpha  occ. eigenvalues --  -10.24683 -10.24559 -10.24539 -10.24513 -10.24418
 Alpha  occ. eigenvalues --  -10.24410 -10.24331 -10.24298 -10.24117 -10.24104
 Alpha  occ. eigenvalues --  -10.24094  -3.17120  -1.92041  -1.91552  -1.91436
 Alpha  occ. eigenvalues --   -1.15834  -1.15752  -1.12110  -1.07564  -1.06626
 Alpha  occ. eigenvalues --   -1.06352  -1.05345  -1.03539  -1.02927  -1.01763
 Alpha  occ. eigenvalues --   -0.92946  -0.90802  -0.90146  -0.90008  -0.89697
 Alpha  occ. eigenvalues --   -0.89349  -0.89004  -0.88234  -0.87887  -0.86974
 Alpha  occ. eigenvalues --   -0.86208  -0.86055  -0.83728  -0.83527  -0.83081
 Alpha  occ. eigenvalues --   -0.82594  -0.82434  -0.81588  -0.80673  -0.80183
 Alpha  occ. eigenvalues --   -0.79866  -0.78922  -0.77973  -0.77234  -0.76675
 Alpha  occ. eigenvalues --   -0.76447  -0.75609  -0.74997  -0.74886  -0.74422
 Alpha  occ. eigenvalues --   -0.73342  -0.72443  -0.71394  -0.70137  -0.69606
 Alpha  occ. eigenvalues --   -0.68641  -0.68166  -0.67480  -0.67396  -0.66017
 Alpha  occ. eigenvalues --   -0.65943  -0.64986  -0.64243  -0.63782  -0.63434
 Alpha  occ. eigenvalues --   -0.63279  -0.62780  -0.62198  -0.61825  -0.60424
 Alpha  occ. eigenvalues --   -0.60372  -0.59173  -0.59133  -0.59065  -0.58608
 Alpha  occ. eigenvalues --   -0.57691  -0.57417  -0.56512  -0.55895  -0.55320
 Alpha  occ. eigenvalues --   -0.54566  -0.54544  -0.54427  -0.54227  -0.54041
 Alpha  occ. eigenvalues --   -0.53985  -0.53818  -0.53708  -0.53476  -0.53246
 Alpha  occ. eigenvalues --   -0.53115  -0.52585  -0.52297  -0.51992  -0.51867
 Alpha  occ. eigenvalues --   -0.51820  -0.51627  -0.51437  -0.51064  -0.50679
 Alpha  occ. eigenvalues --   -0.50621  -0.50321  -0.50111  -0.49995  -0.49912
 Alpha  occ. eigenvalues --   -0.49610  -0.49496  -0.49316  -0.49174  -0.49145
 Alpha  occ. eigenvalues --   -0.48666  -0.48425  -0.48344  -0.48265  -0.48001
 Alpha  occ. eigenvalues --   -0.47759  -0.47405  -0.46897  -0.46803  -0.46356
 Alpha  occ. eigenvalues --   -0.46341  -0.46284  -0.46109  -0.45935  -0.45834
 Alpha  occ. eigenvalues --   -0.45429  -0.45415  -0.45161  -0.44988  -0.44720
 Alpha  occ. eigenvalues --   -0.44357  -0.44242  -0.44201  -0.43769  -0.43697
 Alpha  occ. eigenvalues --   -0.43366  -0.43333  -0.43137  -0.43080  -0.42969
 Alpha  occ. eigenvalues --   -0.42730  -0.42634  -0.42558  -0.42476  -0.41981
 Alpha  occ. eigenvalues --   -0.41773  -0.41693  -0.41458  -0.41271  -0.41055
 Alpha  occ. eigenvalues --   -0.40965  -0.40835  -0.40583  -0.40266  -0.40235
 Alpha  occ. eigenvalues --   -0.39772  -0.39702  -0.39298  -0.39246  -0.38735
 Alpha  occ. eigenvalues --   -0.38464  -0.38137  -0.38099  -0.37703  -0.37548
 Alpha  occ. eigenvalues --   -0.37353  -0.37262  -0.36734  -0.36286  -0.36156
 Alpha  occ. eigenvalues --   -0.35774  -0.35370  -0.35094  -0.34852  -0.34581
 Alpha  occ. eigenvalues --   -0.34565  -0.34301  -0.33203  -0.31725  -0.31365
 Alpha  occ. eigenvalues --   -0.30272  -0.30013  -0.29660  -0.29307  -0.24144
 Alpha  occ. eigenvalues --   -0.21402
 Alpha virt. eigenvalues --   -0.08961  -0.01758   0.00446   0.02227   0.03311
 Alpha virt. eigenvalues --    0.03888   0.04864   0.05437   0.05927   0.06967
 Alpha virt. eigenvalues --    0.07829   0.08046   0.08260   0.08574   0.09118

 Mulliken charges:
               1
     1  Mg   0.814885
     2  C   -0.039707
     3  C   -0.100032
     4  C   -0.055893
     5  C   -0.065052
     6  N   -0.248090
     7  C   -0.041772
     8  C   -0.045002
     9  C   -0.086978
    10  C    0.097120
    11  C    0.104197
    12  C    0.058528
    13  C    0.042760
    14  C    0.221674
    15  O   -0.257522
    16  O   -0.334642
    17  N   -0.365808
    18  C    0.129877
    19  C   -0.165320
    20  C   -0.010040
    21  C    0.116066
    22  C    0.118471
    23  C   -0.027480
    24  O   -0.177880
    25  C    0.053275
    26  N   -0.336397
    27  C    0.059146
    28  C   -0.035989
    29  C    0.000978
    30  C    0.092739
    31  C    0.078996
    32  C    0.053751
    33  C   -0.014177
    34  N   -0.353015
    35  C    0.068388
    36  C   -0.191695
    37  C    0.046891
    38  C    0.100673
    39  C    0.125750
    40  C    0.023819
    41  O   -0.215863
    42  C    0.032722
    43  C    0.195822
    44  O   -0.180483
    45  O   -0.377418
    46  C    0.172886
    47  C    0.277142
    48  C   -0.137656
    49  C   -0.189386
    50  C    0.095565
    51  C    0.061830
    52  C    0.055080
    53  C    0.051129
    54  C   -0.134628
    55  C    0.049386
    56  C    0.078341
    57  C   -0.032849
    58  C    0.007690
    59  C   -0.084478
    60  C    0.044319
    61  C    0.092441
    62  C    0.009776
    63  C    0.031106
    64  C   -0.151684
    65  C    0.051820
    66  C    0.044200
    67  H   -0.016218
    68  H   -0.006697
    69  H   -0.026588
    70  H    0.017432
    71  H    0.009004
    72  H    0.008106
    73  H    0.035400
    74  H    0.002505
    75  H    0.001010
    76  H    0.030576
    77  H    0.017204
    78  H    0.042567
    79  H    0.008221
    80  H    0.052359
    81  H    0.037264
    82  H    0.038271
    83  H    0.030755
    84  H    0.035331
    85  H   -0.003110
    86  H   -0.009934
    87  H    0.023884
    88  H    0.009711
    89  H    0.009224
    90  H    0.006479
    91  H   -0.008661
    92  H    0.008634
    93  H    0.038059
    94  H    0.006392
    95  H    0.030445
    96  H    0.042740
    97  H    0.013882
    98  H    0.056820
    99  H    0.036857
   100  H    0.032489
   101  H    0.037863
   102  H    0.050866
   103  H    0.010206
   104  H   -0.006863
   105  H    0.022264
   106  H    0.034825
   107  H   -0.002001
   108  H    0.018470
   109  H   -0.023102
   110  H    0.011291
   111  H    0.006841
   112  H   -0.015294
   113  H   -0.006929
   114  H   -0.008531
   115  H    0.008064
   116  H   -0.000083
   117  H    0.007454
   118  H   -0.019748
   119  H   -0.005110
   120  H    0.008929
   121  H    0.003171
   122  H   -0.013996
   123  H    0.000693
   124  H   -0.008496
   125  H    0.000729
   126  H    0.012814
   127  H    0.011340
   128  H   -0.011898
   129  H   -0.012132
   130  H   -0.004723
   131  H   -0.013479
   132  H   -0.013717
   133  H   -0.014575
   134  H   -0.006190
   135  H   -0.006676
   136  H    0.001014
   137  H    0.016077
   138  H    0.005297
   139  H   -0.001872
   140  H    0.014488
 Sum of Mulliken charges =  -0.00000

 Dipole moment (field-independent basis, Debye):
    X=              2.5680    Y=              6.5899    Z=              2.6421  Tot=              7.5499
 Quadrupole moment (field-independent basis, Debye-Ang):
   XX=           -383.8188   YY=           -419.2434   ZZ=           -406.7927
   XY=            -12.1745   XZ=             10.1528   YZ=              3.6014

 Normal termination of Gaussian 16 at Fri Apr 29 20:49:41 2022.
