 Gaussian 16, Revision A.03,
 Gaussian 16:  ES64L-G16RevA.03 25-Dec-2016

 ---------------------------------
 #p PBE1PBE/Def2SVP td=(nstates=5)
 ---------------------------------

 -----------------------------------------------------
 step_501_chromophore_10 TDDFT with PBE1PBE functional
 -----------------------------------------------------
 Symbolic Z-matrix:
 Charge =  0 Multiplicity = 1

                         Standard orientation:
 ---------------------------------------------------------------------
 Center     Atomic      Atomic             Coordinates (Angstroms)
 Number     Number       Type             X           Y           Z
 ---------------------------------------------------------------------
      1         12           0       -5.892296    0.369386   -0.012599
      2          6           0       -3.335373   -2.056639    0.090913
      3          6           0       -3.664576    2.654361    1.263162
      4          6           0       -8.293277    2.717951   -0.005356
      5          6           0       -8.247677   -2.109797   -0.753557
      6          7           0       -3.756950    0.251652    0.443165
      7          6           0       -2.871885   -0.741030    0.437647
      8          6           0       -1.431977   -0.383509    0.861219
      9          6           0       -1.765806    1.059820    1.478935
     10          6           0       -3.193154    1.329341    1.069437
     11          6           0       -1.586962    1.136000    2.975780
     12          6           0       -0.369154   -0.312176   -0.369588
     13          6           0        1.072440   -0.592908    0.064515
     14          6           0        1.709752   -1.831851   -0.615721
     15          8           0        1.657347   -2.198876   -1.816021
     16          8           0        2.661574   -2.345995    0.240368
     17          7           0       -5.956261    2.486134    0.398756
     18          6           0       -4.892021    3.220843    0.977711
     19          6           0       -5.259674    4.616641    0.898280
     20          6           0       -6.595237    4.673064    0.510101
     21          6           0       -7.025955    3.262734    0.254665
     22          6           0       -4.386580    5.751007    1.400634
     23          6           0       -7.523082    5.842888    0.274779
     24          8           0       -8.628201    5.650124   -0.141010
     25          6           0       -7.083160    7.259058    0.473451
     26          7           0       -7.991457    0.304973   -0.132831
     27          6           0       -8.769231    1.425157   -0.177269
     28          6           0      -10.212372    0.942424   -0.492024
     29          6           0      -10.064267   -0.369112   -1.242266
     30          6           0       -8.692162   -0.813708   -0.683308
     31          6           0      -10.959224    0.693833    0.817654
     32          6           0      -10.117513   -0.248858   -2.720343
     33          6           0       -9.305576    0.826634   -3.398696
     34          7           0       -5.860952   -1.667128   -0.319780
     35          6           0       -6.874348   -2.563521   -0.602603
     36          6           0       -6.293115   -3.907991   -0.739283
     37          6           0       -4.919245   -3.731327   -0.499808
     38          6           0       -4.716787   -2.399674   -0.259620
     39          6           0       -7.025057   -5.150782   -1.010717
     40          6           0       -3.624955   -4.357150   -0.545170
     41          8           0       -3.287992   -5.543571   -0.831227
     42          6           0       -2.542031   -3.234614   -0.181525
     43          6           0       -1.848099   -3.704035    1.070843
     44          8           0       -2.439003   -4.107577    2.028281
     45          8           0       -0.432194   -3.581000    1.069914
     46          6           0        0.219274   -3.734853    2.406230
     47          6           0        3.538839   -3.365670   -0.294137
     48          6           0        4.889066   -2.617645   -0.587579
     49          6           0        6.102300   -3.042996   -0.525764
     50          6           0        6.563580   -4.468681   -0.197105
     51          6           0        7.133216   -1.988404   -0.800772
     52          6           0        7.242460   -0.843649    0.310467
     53          6           0        8.052818   -1.273420    1.591361
     54          6           0        9.408135   -0.557792    1.842059
     55          6           0        9.906228   -0.807885    3.246661
     56          6           0        9.396908    0.903077    1.533271
     57          6           0       10.358012    1.269037    0.359076
     58          6           0        9.805175    2.066948   -0.900229
     59          6           0       10.724988    3.102471   -1.482455
     60          6           0        9.894998    4.203004   -2.247673
     61          6           0       11.866612    2.535773   -2.346906
     62          6           0       13.261917    2.937766   -1.839246
     63          6           0       14.250565    1.771041   -1.708395
     64          6           0       14.587637    1.337648   -0.270949
     65          6           0       15.716869    2.194135    0.227258
     66          6           0       14.898814   -0.183021   -0.183928
     67          1           0       -2.987637    3.380968    1.716030
     68          1           0       -9.119273    3.427267    0.082868
     69          1           0       -8.890742   -2.897621   -1.152037
     70          1           0       -1.045314   -1.140221    1.544986
     71          1           0       -1.057677    1.724312    0.982318
     72          1           0       -0.602163    1.573024    3.140162
     73          1           0       -1.754573    0.179796    3.471894
     74          1           0       -2.276556    1.923541    3.279481
     75          1           0       -0.387343    0.682297   -0.816528
     76          1           0       -0.664215   -0.989825   -1.170987
     77          1           0        0.958059   -0.682466    1.144989
     78          1           0        1.716734    0.276693   -0.063606
     79          1           0       -3.387046    5.319806    1.441429
     80          1           0       -4.733636    5.884620    2.424835
     81          1           0       -4.398181    6.613000    0.733288
     82          1           0       -6.416318    7.358497   -0.383187
     83          1           0       -6.513782    7.434428    1.385824
     84          1           0       -7.938824    7.933034    0.419851
     85          1           0      -10.831999    1.653402   -1.037436
     86          1           0      -10.834364   -1.112428   -1.038717
     87          1           0      -11.089663   -0.325430    1.181375
     88          1           0      -11.948946    1.138654    0.714792
     89          1           0      -10.455705    1.259440    1.602482
     90          1           0      -11.141879   -0.171215   -3.085455
     91          1           0       -9.742545   -1.209738   -3.072286
     92          1           0       -8.526804    0.300913   -3.951921
     93          1           0       -8.791040    1.624876   -2.862932
     94          1           0       -9.937506    1.303474   -4.147788
     95          1           0       -7.609775   -5.399222   -0.125070
     96          1           0       -6.238642   -5.864503   -1.255924
     97          1           0       -7.746766   -5.021244   -1.818346
     98          1           0       -1.922183   -3.156000   -1.074862
     99          1           0        0.278078   -4.788490    2.678980
    100          1           0       -0.296818   -3.193993    3.200774
    101          1           0        1.265615   -3.436368    2.464177
    102          1           0        3.212401   -3.874252   -1.200750
    103          1           0        3.736102   -4.163342    0.422105
    104          1           0        4.734942   -1.547587   -0.725517
    105          1           0        6.630938   -4.453021    0.891108
    106          1           0        7.457093   -4.861059   -0.683546
    107          1           0        5.718538   -5.153102   -0.273712
    108          1           0        6.850959   -1.686543   -1.808556
    109          1           0        8.033112   -2.589846   -0.931976
    110          1           0        6.272383   -0.411911    0.558821
    111          1           0        7.879766   -0.098579   -0.166389
    112          1           0        8.354501   -2.293789    1.354404
    113          1           0        7.540928   -1.273915    2.553984
    114          1           0       10.134879   -1.075634    1.215779
    115          1           0        9.155465   -0.556699    3.995720
    116          1           0       10.745526   -0.154199    3.484226
    117          1           0       10.312184   -1.817819    3.300075
    118          1           0        9.749272    1.387893    2.443633
    119          1           0        8.456427    1.418467    1.341751
    120          1           0       10.823677    0.388874   -0.084892
    121          1           0       11.110718    1.943488    0.768250
    122          1           0        8.838653    2.470598   -0.599507
    123          1           0        9.622705    1.267924   -1.619350
    124          1           0       11.185558    3.555988   -0.604663
    125          1           0        9.198435    4.698521   -1.570721
    126          1           0        9.308790    3.655160   -2.986122
    127          1           0       10.505941    5.014996   -2.641057
    128          1           0       11.781775    2.841757   -3.389938
    129          1           0       11.883944    1.455118   -2.489163
    130          1           0       13.313987    3.464653   -0.885940
    131          1           0       13.773857    3.604461   -2.533364
    132          1           0       15.154596    2.140827   -2.191906
    133          1           0       13.890895    0.939121   -2.314665
    134          1           0       13.782640    1.463785    0.453067
    135          1           0       15.744488    1.977945    1.294949
    136          1           0       15.406119    3.238343    0.175262
    137          1           0       16.700069    1.983431   -0.193955
    138          1           0       13.959421   -0.679256    0.060207
    139          1           0       15.563935   -0.364676    0.660886
    140          1           0       15.292016   -0.546014   -1.133135
 ---------------------------------------------------------------------

 SCF Done:  E(RPBE1PBE) =  -3005.35255529     A.U. after   16 cycles

 Excitation energies and oscillator strengths:

 Excited State   1:      Singlet-A      1.8267 eV  678.75 nm  f=0.3523  <S**2>=0.000
     245 -> 248       -0.17212
     246 -> 247        0.69438
     246 <- 247       -0.10876
 This state for optimization and/or second-order correction.
 Total Energy, E(TD-HF/TD-DFT) =  -3005.28542681
 Copying the excited state density for this state as the 1-particle RhoCI density.

 Excited State   2:      Singlet-A      2.1774 eV  569.41 nm  f=0.1207  <S**2>=0.000
     245 -> 247        0.65718
     246 -> 248        0.25118

 Excited State   3:      Singlet-A      2.8806 eV  430.41 nm  f=0.0001  <S**2>=0.000
     242 -> 247       -0.42084
     242 -> 249        0.11184
     243 -> 247        0.52449
     243 -> 249       -0.11876

 Excited State   4:      Singlet-A      3.0059 eV  412.47 nm  f=0.0022  <S**2>=0.000
     241 -> 247        0.41043
     242 -> 247       -0.40326
     243 -> 247       -0.39190

 Excited State   5:      Singlet-A      3.0578 eV  405.47 nm  f=0.0019  <S**2>=0.000
     240 -> 247        0.50964
     240 -> 249        0.10765
     241 -> 247       -0.32085
     242 -> 247       -0.26648
     243 -> 247       -0.17927

 The electronic state is 1-A.
 Alpha  occ. eigenvalues --  -46.92030 -19.25894 -19.25466 -19.20367 -19.20307
 Alpha  occ. eigenvalues --  -19.19035 -19.18670 -14.42753 -14.41064 -14.39242
 Alpha  occ. eigenvalues --  -14.38877 -10.37305 -10.36570 -10.32061 -10.32056
 Alpha  occ. eigenvalues --  -10.29376 -10.29081 -10.29009 -10.28903 -10.28816
 Alpha  occ. eigenvalues --  -10.28504 -10.28263 -10.27950 -10.27486 -10.26981
 Alpha  occ. eigenvalues --  -10.26679 -10.26366 -10.26141 -10.25970 -10.25878
 Alpha  occ. eigenvalues --  -10.25866 -10.25598 -10.25408 -10.25230 -10.25127
 Alpha  occ. eigenvalues --  -10.24899 -10.24897 -10.24563 -10.24515 -10.23909
 Alpha  occ. eigenvalues --  -10.23742 -10.23662 -10.23515 -10.23348 -10.23236
 Alpha  occ. eigenvalues --  -10.23065 -10.23046 -10.23040 -10.22792 -10.22778
 Alpha  occ. eigenvalues --  -10.22761 -10.22600 -10.22567 -10.22457 -10.22385
 Alpha  occ. eigenvalues --  -10.22224 -10.22132 -10.22131 -10.22088 -10.21916
 Alpha  occ. eigenvalues --  -10.21864 -10.21860 -10.21681 -10.21678 -10.21648
 Alpha  occ. eigenvalues --  -10.21464  -3.14107  -1.86970  -1.86458  -1.86346
 Alpha  occ. eigenvalues --   -1.10667  -1.10503  -1.06626  -1.02396  -1.01531
 Alpha  occ. eigenvalues --   -1.01235  -0.99876  -0.97974  -0.97825  -0.96408
 Alpha  occ. eigenvalues --   -0.87402  -0.84930  -0.84332  -0.84144  -0.83936
 Alpha  occ. eigenvalues --   -0.83484  -0.83223  -0.82354  -0.81994  -0.81299
 Alpha  occ. eigenvalues --   -0.80797  -0.80265  -0.77991  -0.77709  -0.77313
 Alpha  occ. eigenvalues --   -0.76772  -0.76555  -0.75837  -0.74911  -0.74413
 Alpha  occ. eigenvalues --   -0.74116  -0.72988  -0.72271  -0.71585  -0.70948
 Alpha  occ. eigenvalues --   -0.70689  -0.69685  -0.69345  -0.69024  -0.68589
 Alpha  occ. eigenvalues --   -0.67683  -0.66956  -0.65797  -0.64414  -0.63992
 Alpha  occ. eigenvalues --   -0.63125  -0.62479  -0.61816  -0.61624  -0.60406
 Alpha  occ. eigenvalues --   -0.60112  -0.59488  -0.58864  -0.57932  -0.57879
 Alpha  occ. eigenvalues --   -0.57800  -0.56970  -0.56434  -0.56374  -0.54886
 Alpha  occ. eigenvalues --   -0.54757  -0.53830  -0.53699  -0.53446  -0.53051
 Alpha  occ. eigenvalues --   -0.52336  -0.51917  -0.50987  -0.50495  -0.49750
 Alpha  occ. eigenvalues --   -0.49111  -0.49037  -0.48930  -0.48728  -0.48602
 Alpha  occ. eigenvalues --   -0.48418  -0.48133  -0.48010  -0.47934  -0.47819
 Alpha  occ. eigenvalues --   -0.47651  -0.47191  -0.46825  -0.46547  -0.46451
 Alpha  occ. eigenvalues --   -0.46295  -0.45969  -0.45944  -0.45580  -0.45400
 Alpha  occ. eigenvalues --   -0.45153  -0.44897  -0.44642  -0.44555  -0.44458
 Alpha  occ. eigenvalues --   -0.44072  -0.44022  -0.43890  -0.43775  -0.43709
 Alpha  occ. eigenvalues --   -0.43223  -0.43040  -0.42989  -0.42920  -0.42600
 Alpha  occ. eigenvalues --   -0.42423  -0.42053  -0.41629  -0.41391  -0.41057
 Alpha  occ. eigenvalues --   -0.41022  -0.40864  -0.40812  -0.40713  -0.40591
 Alpha  occ. eigenvalues --   -0.40223  -0.40125  -0.39961  -0.39709  -0.39364
 Alpha  occ. eigenvalues --   -0.39078  -0.38945  -0.38904  -0.38529  -0.38474
 Alpha  occ. eigenvalues --   -0.38220  -0.38062  -0.38008  -0.37851  -0.37687
 Alpha  occ. eigenvalues --   -0.37511  -0.37402  -0.37280  -0.37256  -0.36809
 Alpha  occ. eigenvalues --   -0.36553  -0.36507  -0.36259  -0.36112  -0.35861
 Alpha  occ. eigenvalues --   -0.35818  -0.35690  -0.35419  -0.35214  -0.34998
 Alpha  occ. eigenvalues --   -0.34667  -0.34546  -0.34201  -0.34121  -0.33500
 Alpha  occ. eigenvalues --   -0.33276  -0.33111  -0.32889  -0.32676  -0.32378
 Alpha  occ. eigenvalues --   -0.32367  -0.32108  -0.31703  -0.31323  -0.30994
 Alpha  occ. eigenvalues --   -0.30675  -0.30308  -0.29994  -0.29824  -0.29669
 Alpha  occ. eigenvalues --   -0.29517  -0.29151  -0.28809  -0.27138  -0.25978
 Alpha  occ. eigenvalues --   -0.25582  -0.25247  -0.25216  -0.24892  -0.21025
 Alpha  occ. eigenvalues --   -0.18968
 Alpha virt. eigenvalues --   -0.11431  -0.05261  -0.03798  -0.02190  -0.00742
 Alpha virt. eigenvalues --    0.00203   0.00704   0.00942   0.02520   0.02665
 Alpha virt. eigenvalues --    0.03563   0.04396   0.04989   0.05071   0.05734

 Mulliken charges:
               1
     1  Mg   0.966984
     2  C   -0.042845
     3  C   -0.093070
     4  C   -0.054746
     5  C   -0.052811
     6  N   -0.360867
     7  C    0.044542
     8  C   -0.116830
     9  C   -0.166535
    10  C    0.124583
    11  C    0.047028
    12  C    0.015357
    13  C   -0.031833
    14  C    0.282318
    15  O   -0.288707
    16  O   -0.363218
    17  N   -0.473019
    18  C    0.151831
    19  C   -0.188111
    20  C   -0.066703
    21  C    0.155482
    22  C    0.055003
    23  C    0.025952
    24  O   -0.217304
    25  C   -0.019426
    26  N   -0.428483
    27  C    0.084232
    28  C   -0.122030
    29  C   -0.071157
    30  C    0.117615
    31  C    0.029752
    32  C   -0.005359
    33  C   -0.085551
    34  N   -0.480526
    35  C    0.099175
    36  C   -0.212758
    37  C    0.004699
    38  C    0.145810
    39  C    0.068145
    40  C    0.120766
    41  O   -0.257736
    42  C   -0.093986
    43  C    0.287327
    44  O   -0.213255
    45  O   -0.407418
    46  C    0.114255
    47  C    0.236551
    48  C   -0.144866
    49  C   -0.227459
    50  C    0.028668
    51  C   -0.006699
    52  C   -0.022881
    53  C    0.004168
    54  C   -0.220843
    55  C   -0.013265
    56  C    0.017265
    57  C   -0.089946
    58  C   -0.045032
    59  C   -0.177459
    60  C   -0.019548
    61  C    0.045229
    62  C   -0.049902
    63  C   -0.026013
    64  C   -0.248452
    65  C   -0.010705
    66  C   -0.016467
    67  H    0.012546
    68  H    0.026640
    69  H    0.005329
    70  H    0.061421
    71  H    0.045190
    72  H    0.036062
    73  H    0.061201
    74  H    0.032691
    75  H    0.033782
    76  H    0.062686
    77  H    0.049777
    78  H    0.073537
    79  H    0.036592
    80  H    0.079349
    81  H    0.062987
    82  H    0.065618
    83  H    0.056781
    84  H    0.061388
    85  H    0.032930
    86  H    0.026185
    87  H    0.049269
    88  H    0.038017
    89  H    0.038541
    90  H    0.039449
    91  H    0.025965
    92  H    0.036613
    93  H    0.068417
    94  H    0.035075
    95  H    0.060618
    96  H    0.071841
    97  H    0.042698
    98  H    0.091573
    99  H    0.059477
   100  H    0.053518
   101  H    0.060679
   102  H    0.077326
   103  H    0.036951
   104  H    0.022936
   105  H    0.050909
   106  H    0.060168
   107  H    0.026782
   108  H    0.051275
   109  H    0.010572
   110  H    0.042224
   111  H    0.051161
   112  H    0.020537
   113  H    0.024484
   114  H    0.029363
   115  H    0.035530
   116  H    0.028838
   117  H    0.035764
   118  H    0.014548
   119  H    0.026877
   120  H    0.040277
   121  H    0.036165
   122  H    0.017649
   123  H    0.032979
   124  H    0.030559
   125  H    0.029173
   126  H    0.040927
   127  H    0.039539
   128  H    0.020488
   129  H    0.018640
   130  H    0.025943
   131  H    0.020049
   132  H    0.019628
   133  H    0.017504
   134  H    0.034307
   135  H    0.022431
   136  H    0.030144
   137  H    0.043217
   138  H    0.033530
   139  H    0.025756
   140  H    0.041488
 Sum of Mulliken charges =  -0.00000

 Dipole moment (field-independent basis, Debye):
    X=              2.4627    Y=              5.8888    Z=              2.4827  Tot=              6.8488
 Quadrupole moment (field-independent basis, Debye-Ang):
   XX=           -376.4844   YY=           -417.1389   ZZ=           -404.1479
   XY=             -7.5057   XZ=             12.1184   YZ=              3.6715

 Normal termination of Gaussian 16 at Fri Apr 29 21:08:48 2022.
