 Gaussian 16, Revision A.03,
 Gaussian 16:  ES64L-G16RevA.03 25-Dec-2016

 --------------------------------
 #p wB97XD/Def2SVP td=(nstates=5)
 --------------------------------

 ----------------------------------------------------
 step_501_chromophore_10 TDDFT with wB97XD functional
 ----------------------------------------------------
 Symbolic Z-matrix:
 Charge =  0 Multiplicity = 1

                         Standard orientation:
 ---------------------------------------------------------------------
 Center     Atomic      Atomic             Coordinates (Angstroms)
 Number     Number       Type             X           Y           Z
 ---------------------------------------------------------------------
      1         12           0       -5.892296    0.369386   -0.012599
      2          6           0       -3.335373   -2.056639    0.090913
      3          6           0       -3.664576    2.654361    1.263162
      4          6           0       -8.293277    2.717951   -0.005356
      5          6           0       -8.247677   -2.109797   -0.753557
      6          7           0       -3.756950    0.251652    0.443165
      7          6           0       -2.871885   -0.741030    0.437647
      8          6           0       -1.431977   -0.383509    0.861219
      9          6           0       -1.765806    1.059820    1.478935
     10          6           0       -3.193154    1.329341    1.069437
     11          6           0       -1.586962    1.136000    2.975780
     12          6           0       -0.369154   -0.312176   -0.369588
     13          6           0        1.072440   -0.592908    0.064515
     14          6           0        1.709752   -1.831851   -0.615721
     15          8           0        1.657347   -2.198876   -1.816021
     16          8           0        2.661574   -2.345995    0.240368
     17          7           0       -5.956261    2.486134    0.398756
     18          6           0       -4.892021    3.220843    0.977711
     19          6           0       -5.259674    4.616641    0.898280
     20          6           0       -6.595237    4.673064    0.510101
     21          6           0       -7.025955    3.262734    0.254665
     22          6           0       -4.386580    5.751007    1.400634
     23          6           0       -7.523082    5.842888    0.274779
     24          8           0       -8.628201    5.650124   -0.141010
     25          6           0       -7.083160    7.259058    0.473451
     26          7           0       -7.991457    0.304973   -0.132831
     27          6           0       -8.769231    1.425157   -0.177269
     28          6           0      -10.212372    0.942424   -0.492024
     29          6           0      -10.064267   -0.369112   -1.242266
     30          6           0       -8.692162   -0.813708   -0.683308
     31          6           0      -10.959224    0.693833    0.817654
     32          6           0      -10.117513   -0.248858   -2.720343
     33          6           0       -9.305576    0.826634   -3.398696
     34          7           0       -5.860952   -1.667128   -0.319780
     35          6           0       -6.874348   -2.563521   -0.602603
     36          6           0       -6.293115   -3.907991   -0.739283
     37          6           0       -4.919245   -3.731327   -0.499808
     38          6           0       -4.716787   -2.399674   -0.259620
     39          6           0       -7.025057   -5.150782   -1.010717
     40          6           0       -3.624955   -4.357150   -0.545170
     41          8           0       -3.287992   -5.543571   -0.831227
     42          6           0       -2.542031   -3.234614   -0.181525
     43          6           0       -1.848099   -3.704035    1.070843
     44          8           0       -2.439003   -4.107577    2.028281
     45          8           0       -0.432194   -3.581000    1.069914
     46          6           0        0.219274   -3.734853    2.406230
     47          6           0        3.538839   -3.365670   -0.294137
     48          6           0        4.889066   -2.617645   -0.587579
     49          6           0        6.102300   -3.042996   -0.525764
     50          6           0        6.563580   -4.468681   -0.197105
     51          6           0        7.133216   -1.988404   -0.800772
     52          6           0        7.242460   -0.843649    0.310467
     53          6           0        8.052818   -1.273420    1.591361
     54          6           0        9.408135   -0.557792    1.842059
     55          6           0        9.906228   -0.807885    3.246661
     56          6           0        9.396908    0.903077    1.533271
     57          6           0       10.358012    1.269037    0.359076
     58          6           0        9.805175    2.066948   -0.900229
     59          6           0       10.724988    3.102471   -1.482455
     60          6           0        9.894998    4.203004   -2.247673
     61          6           0       11.866612    2.535773   -2.346906
     62          6           0       13.261917    2.937766   -1.839246
     63          6           0       14.250565    1.771041   -1.708395
     64          6           0       14.587637    1.337648   -0.270949
     65          6           0       15.716869    2.194135    0.227258
     66          6           0       14.898814   -0.183021   -0.183928
     67          1           0       -2.987637    3.380968    1.716030
     68          1           0       -9.119273    3.427267    0.082868
     69          1           0       -8.890742   -2.897621   -1.152037
     70          1           0       -1.045314   -1.140221    1.544986
     71          1           0       -1.057677    1.724312    0.982318
     72          1           0       -0.602163    1.573024    3.140162
     73          1           0       -1.754573    0.179796    3.471894
     74          1           0       -2.276556    1.923541    3.279481
     75          1           0       -0.387343    0.682297   -0.816528
     76          1           0       -0.664215   -0.989825   -1.170987
     77          1           0        0.958059   -0.682466    1.144989
     78          1           0        1.716734    0.276693   -0.063606
     79          1           0       -3.387046    5.319806    1.441429
     80          1           0       -4.733636    5.884620    2.424835
     81          1           0       -4.398181    6.613000    0.733288
     82          1           0       -6.416318    7.358497   -0.383187
     83          1           0       -6.513782    7.434428    1.385824
     84          1           0       -7.938824    7.933034    0.419851
     85          1           0      -10.831999    1.653402   -1.037436
     86          1           0      -10.834364   -1.112428   -1.038717
     87          1           0      -11.089663   -0.325430    1.181375
     88          1           0      -11.948946    1.138654    0.714792
     89          1           0      -10.455705    1.259440    1.602482
     90          1           0      -11.141879   -0.171215   -3.085455
     91          1           0       -9.742545   -1.209738   -3.072286
     92          1           0       -8.526804    0.300913   -3.951921
     93          1           0       -8.791040    1.624876   -2.862932
     94          1           0       -9.937506    1.303474   -4.147788
     95          1           0       -7.609775   -5.399222   -0.125070
     96          1           0       -6.238642   -5.864503   -1.255924
     97          1           0       -7.746766   -5.021244   -1.818346
     98          1           0       -1.922183   -3.156000   -1.074862
     99          1           0        0.278078   -4.788490    2.678980
    100          1           0       -0.296818   -3.193993    3.200774
    101          1           0        1.265615   -3.436368    2.464177
    102          1           0        3.212401   -3.874252   -1.200750
    103          1           0        3.736102   -4.163342    0.422105
    104          1           0        4.734942   -1.547587   -0.725517
    105          1           0        6.630938   -4.453021    0.891108
    106          1           0        7.457093   -4.861059   -0.683546
    107          1           0        5.718538   -5.153102   -0.273712
    108          1           0        6.850959   -1.686543   -1.808556
    109          1           0        8.033112   -2.589846   -0.931976
    110          1           0        6.272383   -0.411911    0.558821
    111          1           0        7.879766   -0.098579   -0.166389
    112          1           0        8.354501   -2.293789    1.354404
    113          1           0        7.540928   -1.273915    2.553984
    114          1           0       10.134879   -1.075634    1.215779
    115          1           0        9.155465   -0.556699    3.995720
    116          1           0       10.745526   -0.154199    3.484226
    117          1           0       10.312184   -1.817819    3.300075
    118          1           0        9.749272    1.387893    2.443633
    119          1           0        8.456427    1.418467    1.341751
    120          1           0       10.823677    0.388874   -0.084892
    121          1           0       11.110718    1.943488    0.768250
    122          1           0        8.838653    2.470598   -0.599507
    123          1           0        9.622705    1.267924   -1.619350
    124          1           0       11.185558    3.555988   -0.604663
    125          1           0        9.198435    4.698521   -1.570721
    126          1           0        9.308790    3.655160   -2.986122
    127          1           0       10.505941    5.014996   -2.641057
    128          1           0       11.781775    2.841757   -3.389938
    129          1           0       11.883944    1.455118   -2.489163
    130          1           0       13.313987    3.464653   -0.885940
    131          1           0       13.773857    3.604461   -2.533364
    132          1           0       15.154596    2.140827   -2.191906
    133          1           0       13.890895    0.939121   -2.314665
    134          1           0       13.782640    1.463785    0.453067
    135          1           0       15.744488    1.977945    1.294949
    136          1           0       15.406119    3.238343    0.175262
    137          1           0       16.700069    1.983431   -0.193955
    138          1           0       13.959421   -0.679256    0.060207
    139          1           0       15.563935   -0.364676    0.660886
    140          1           0       15.292016   -0.546014   -1.133135
 ---------------------------------------------------------------------

 SCF Done:  E(RwB97XD) =  -3007.86540827     A.U. after   18 cycles

 Excitation energies and oscillator strengths:

 Excited State   1:      Singlet-A      1.6539 eV  749.66 nm  f=0.3634  <S**2>=0.000
     245 -> 248       -0.17829
     246 -> 247        0.68528
     245 <- 248       -0.11381
 This state for optimization and/or second-order correction.
 Total Energy, E(TD-HF/TD-DFT) =  -3007.80462976
 Copying the excited state density for this state as the 1-particle RhoCI density.

 Excited State   2:      Singlet-A      2.1334 eV  581.15 nm  f=0.1228  <S**2>=0.000
     245 -> 247        0.64467
     246 -> 248        0.27165

 Excited State   3:      Singlet-A      3.3758 eV  367.28 nm  f=0.0308  <S**2>=0.000
     239 -> 247        0.14940
     241 -> 247        0.41869
     242 -> 247       -0.31373
     244 -> 247       -0.36610
     246 -> 248       -0.18338

 Excited State   4:      Singlet-A      3.4701 eV  357.29 nm  f=0.0588  <S**2>=0.000
     239 -> 247        0.15060
     241 -> 247        0.31927
     242 -> 247        0.20914
     242 -> 249        0.18511
     242 -> 250       -0.13717
     244 -> 247        0.37627
     246 -> 248       -0.30956

 Excited State   5:      Singlet-A      3.4898 eV  355.28 nm  f=0.0133  <S**2>=0.000
     239 -> 247       -0.10200
     241 -> 247        0.14324
     241 -> 249        0.13486
     242 -> 247        0.40534
     242 -> 249        0.21977
     242 -> 250       -0.18083
     244 -> 247       -0.37837
     246 -> 248        0.17594

 The electronic state is 1-A.
 Alpha  occ. eigenvalues --  -46.94954 -19.30403 -19.30020 -19.25059 -19.24931
 Alpha  occ. eigenvalues --  -19.24134 -19.23217 -14.48071 -14.45921 -14.44336
 Alpha  occ. eigenvalues --  -14.43612 -10.44078 -10.43355 -10.39170 -10.38701
 Alpha  occ. eigenvalues --  -10.35973 -10.35456 -10.35423 -10.35353 -10.35151
 Alpha  occ. eigenvalues --  -10.35052 -10.34748 -10.34509 -10.33653 -10.33339
 Alpha  occ. eigenvalues --  -10.33221 -10.32546 -10.32337 -10.32333 -10.32298
 Alpha  occ. eigenvalues --  -10.32281 -10.32249 -10.32243 -10.31692 -10.31443
 Alpha  occ. eigenvalues --  -10.31131 -10.31126 -10.30682 -10.30605 -10.30485
 Alpha  occ. eigenvalues --  -10.30428 -10.30119 -10.29947 -10.29657 -10.29528
 Alpha  occ. eigenvalues --  -10.29404 -10.29372 -10.29256 -10.29074 -10.29047
 Alpha  occ. eigenvalues --  -10.28972 -10.28946 -10.28883 -10.28816 -10.28598
 Alpha  occ. eigenvalues --  -10.28576 -10.28485 -10.28458 -10.28369 -10.28350
 Alpha  occ. eigenvalues --  -10.28229 -10.28222 -10.28100 -10.28037 -10.28002
 Alpha  occ. eigenvalues --  -10.27904  -3.20886  -1.94499  -1.93987  -1.93873
 Alpha  occ. eigenvalues --   -1.18015  -1.17876  -1.14367  -1.09739  -1.08809
 Alpha  occ. eigenvalues --   -1.08557  -1.07364  -1.05628  -1.04907  -1.03749
 Alpha  occ. eigenvalues --   -0.94907  -0.92583  -0.92061  -0.91800  -0.91559
 Alpha  occ. eigenvalues --   -0.91129  -0.90915  -0.90193  -0.89651  -0.88895
 Alpha  occ. eigenvalues --   -0.88089  -0.87974  -0.85582  -0.85338  -0.85000
 Alpha  occ. eigenvalues --   -0.84539  -0.84292  -0.83498  -0.82528  -0.82058
 Alpha  occ. eigenvalues --   -0.81772  -0.80933  -0.79868  -0.79122  -0.78552
 Alpha  occ. eigenvalues --   -0.78336  -0.77384  -0.76938  -0.76705  -0.76246
 Alpha  occ. eigenvalues --   -0.75259  -0.74407  -0.73361  -0.72066  -0.71501
 Alpha  occ. eigenvalues --   -0.70629  -0.70071  -0.69462  -0.69268  -0.67995
 Alpha  occ. eigenvalues --   -0.67768  -0.67003  -0.66238  -0.65568  -0.65370
 Alpha  occ. eigenvalues --   -0.65241  -0.64610  -0.64013  -0.63802  -0.62410
 Alpha  occ. eigenvalues --   -0.62365  -0.61166  -0.61077  -0.60966  -0.60527
 Alpha  occ. eigenvalues --   -0.59653  -0.59369  -0.58520  -0.57864  -0.57268
 Alpha  occ. eigenvalues --   -0.56479  -0.56438  -0.56352  -0.56108  -0.55951
 Alpha  occ. eigenvalues --   -0.55871  -0.55773  -0.55660  -0.55363  -0.55161
 Alpha  occ. eigenvalues --   -0.55028  -0.54500  -0.54186  -0.53885  -0.53795
 Alpha  occ. eigenvalues --   -0.53674  -0.53613  -0.53323  -0.52970  -0.52579
 Alpha  occ. eigenvalues --   -0.52493  -0.52246  -0.52078  -0.51876  -0.51794
 Alpha  occ. eigenvalues --   -0.51568  -0.51367  -0.51178  -0.51084  -0.51026
 Alpha  occ. eigenvalues --   -0.50539  -0.50368  -0.50271  -0.50177  -0.49947
 Alpha  occ. eigenvalues --   -0.49669  -0.49332  -0.48827  -0.48662  -0.48269
 Alpha  occ. eigenvalues --   -0.48243  -0.48101  -0.48020  -0.47831  -0.47740
 Alpha  occ. eigenvalues --   -0.47357  -0.47329  -0.47050  -0.46932  -0.46584
 Alpha  occ. eigenvalues --   -0.46308  -0.46108  -0.46062  -0.45649  -0.45601
 Alpha  occ. eigenvalues --   -0.45288  -0.45203  -0.45116  -0.44956  -0.44839
 Alpha  occ. eigenvalues --   -0.44654  -0.44577  -0.44428  -0.44410  -0.43897
 Alpha  occ. eigenvalues --   -0.43645  -0.43613  -0.43356  -0.43154  -0.42924
 Alpha  occ. eigenvalues --   -0.42901  -0.42767  -0.42474  -0.42149  -0.42091
 Alpha  occ. eigenvalues --   -0.41629  -0.41582  -0.41187  -0.41117  -0.40560
 Alpha  occ. eigenvalues --   -0.40327  -0.40074  -0.39936  -0.39680  -0.39373
 Alpha  occ. eigenvalues --   -0.39343  -0.39132  -0.38675  -0.38311  -0.37985
 Alpha  occ. eigenvalues --   -0.37627  -0.37261  -0.36950  -0.36776  -0.36545
 Alpha  occ. eigenvalues --   -0.36405  -0.36222  -0.35402  -0.33918  -0.33365
 Alpha  occ. eigenvalues --   -0.32326  -0.32108  -0.31676  -0.31425  -0.26075
 Alpha  occ. eigenvalues --   -0.23220
 Alpha virt. eigenvalues --   -0.07294   0.00166   0.02493   0.04342   0.06107
 Alpha virt. eigenvalues --    0.06384   0.07267   0.07627   0.08791   0.09375
 Alpha virt. eigenvalues --    0.10252   0.11087   0.11698   0.11726   0.12368

 Mulliken charges:
               1
     1  Mg   0.955413
     2  C   -0.042117
     3  C   -0.110011
     4  C   -0.074321
     5  C   -0.071195
     6  N   -0.320675
     7  C   -0.000768
     8  C   -0.079653
     9  C   -0.139714
    10  C    0.116625
    11  C    0.056277
    12  C    0.022043
    13  C   -0.008957
    14  C    0.266594
    15  O   -0.285594
    16  O   -0.361208
    17  N   -0.444645
    18  C    0.146928
    19  C   -0.177006
    20  C   -0.058193
    21  C    0.148399
    22  C    0.068236
    23  C    0.023126
    24  O   -0.209879
    25  C   -0.009731
    26  N   -0.406501
    27  C    0.080371
    28  C   -0.094017
    29  C   -0.044196
    30  C    0.108308
    31  C    0.034254
    32  C    0.007435
    33  C   -0.069701
    34  N   -0.442932
    35  C    0.084059
    36  C   -0.208613
    37  C    0.007343
    38  C    0.127508
    39  C    0.078985
    40  C    0.100037
    41  O   -0.250106
    42  C   -0.050270
    43  C    0.265405
    44  O   -0.209133
    45  O   -0.405532
    46  C    0.129234
    47  C    0.251375
    48  C   -0.154484
    49  C   -0.217917
    50  C    0.042726
    51  C    0.018026
    52  C    0.003179
    53  C    0.015716
    54  C   -0.189962
    55  C    0.000265
    56  C    0.034700
    57  C   -0.070201
    58  C   -0.029667
    59  C   -0.142495
    60  C   -0.004624
    61  C    0.052773
    62  C   -0.034147
    63  C   -0.008884
    64  C   -0.215003
    65  C    0.001109
    66  C   -0.004648
    67  H    0.006037
    68  H    0.021289
    69  H   -0.000142
    70  H    0.035665
    71  H    0.034783
    72  H    0.031583
    73  H    0.058190
    74  H    0.023786
    75  H    0.026283
    76  H    0.053706
    77  H    0.039609
    78  H    0.069108
    79  H    0.032312
    80  H    0.075964
    81  H    0.059771
    82  H    0.060003
    83  H    0.052526
    84  H    0.061956
    85  H    0.025113
    86  H    0.018278
    87  H    0.044957
    88  H    0.032968
    89  H    0.031168
    90  H    0.032146
    91  H    0.016433
    92  H    0.031275
    93  H    0.056652
    94  H    0.029999
    95  H    0.053731
    96  H    0.066682
    97  H    0.035387
    98  H    0.087572
    99  H    0.056150
   100  H    0.049534
   101  H    0.056632
   102  H    0.073398
   103  H    0.031419
   104  H    0.016153
   105  H    0.043958
   106  H    0.057126
   107  H    0.020660
   108  H    0.044104
   109  H    0.000998
   110  H    0.035552
   111  H    0.030107
   112  H    0.006828
   113  H    0.017035
   114  H    0.016280
   115  H    0.028810
   116  H    0.021548
   117  H    0.030617
   118  H    0.005682
   119  H    0.016941
   120  H    0.029072
   121  H    0.023228
   122  H    0.007634
   123  H    0.023196
   124  H    0.015479
   125  H    0.023007
   126  H    0.033702
   127  H    0.034111
   128  H    0.013890
   129  H    0.008445
   130  H    0.013129
   131  H    0.013353
   132  H    0.010761
   133  H    0.007517
   134  H    0.019797
   135  H    0.015529
   136  H    0.023030
   137  H    0.037986
   138  H    0.027523
   139  H    0.020094
   140  H    0.035444
 Sum of Mulliken charges =  -0.00000

 Dipole moment (field-independent basis, Debye):
    X=              2.6008    Y=              6.8348    Z=              2.7192  Tot=              7.8021
 Quadrupole moment (field-independent basis, Debye-Ang):
   XX=           -378.7353   YY=           -414.6150   ZZ=           -403.8104
   XY=            -13.5014   XZ=             10.8493   YZ=              3.8443

 Normal termination of Gaussian 16 at Fri Apr 29 21:36:57 2022.
