 Gaussian 16, Revision A.03,
 Gaussian 16:  ES64L-G16RevA.03 25-Dec-2016

 --------------------
 #p ZINDO=(nstates=5)
 --------------------

 -----------------------------
 step_501_chromophore_10 ZINDO
 -----------------------------
 Symbolic Z-matrix:
 Charge =  0 Multiplicity = 1

                         Standard orientation:
 ---------------------------------------------------------------------
 Center     Atomic      Atomic             Coordinates (Angstroms)
 Number     Number       Type             X           Y           Z
 ---------------------------------------------------------------------
      1         12           0       -5.892296    0.369386   -0.012599
      2          6           0       -3.335373   -2.056639    0.090913
      3          6           0       -3.664576    2.654361    1.263162
      4          6           0       -8.293277    2.717951   -0.005356
      5          6           0       -8.247677   -2.109797   -0.753557
      6          7           0       -3.756950    0.251652    0.443165
      7          6           0       -2.871885   -0.741030    0.437647
      8          6           0       -1.431977   -0.383509    0.861219
      9          6           0       -1.765806    1.059820    1.478935
     10          6           0       -3.193154    1.329341    1.069437
     11          6           0       -1.586962    1.136000    2.975780
     12          6           0       -0.369154   -0.312176   -0.369588
     13          6           0        1.072440   -0.592908    0.064515
     14          6           0        1.709752   -1.831851   -0.615721
     15          8           0        1.657347   -2.198876   -1.816021
     16          8           0        2.661574   -2.345995    0.240368
     17          7           0       -5.956261    2.486134    0.398756
     18          6           0       -4.892021    3.220843    0.977711
     19          6           0       -5.259674    4.616641    0.898280
     20          6           0       -6.595237    4.673064    0.510101
     21          6           0       -7.025955    3.262734    0.254665
     22          6           0       -4.386580    5.751007    1.400634
     23          6           0       -7.523082    5.842888    0.274779
     24          8           0       -8.628201    5.650124   -0.141010
     25          6           0       -7.083160    7.259058    0.473451
     26          7           0       -7.991457    0.304973   -0.132831
     27          6           0       -8.769231    1.425157   -0.177269
     28          6           0      -10.212372    0.942424   -0.492024
     29          6           0      -10.064267   -0.369112   -1.242266
     30          6           0       -8.692162   -0.813708   -0.683308
     31          6           0      -10.959224    0.693833    0.817654
     32          6           0      -10.117513   -0.248858   -2.720343
     33          6           0       -9.305576    0.826634   -3.398696
     34          7           0       -5.860952   -1.667128   -0.319780
     35          6           0       -6.874348   -2.563521   -0.602603
     36          6           0       -6.293115   -3.907991   -0.739283
     37          6           0       -4.919245   -3.731327   -0.499808
     38          6           0       -4.716787   -2.399674   -0.259620
     39          6           0       -7.025057   -5.150782   -1.010717
     40          6           0       -3.624955   -4.357150   -0.545170
     41          8           0       -3.287992   -5.543571   -0.831227
     42          6           0       -2.542031   -3.234614   -0.181525
     43          6           0       -1.848099   -3.704035    1.070843
     44          8           0       -2.439003   -4.107577    2.028281
     45          8           0       -0.432194   -3.581000    1.069914
     46          6           0        0.219274   -3.734853    2.406230
     47          6           0        3.538839   -3.365670   -0.294137
     48          6           0        4.889066   -2.617645   -0.587579
     49          6           0        6.102300   -3.042996   -0.525764
     50          6           0        6.563580   -4.468681   -0.197105
     51          6           0        7.133216   -1.988404   -0.800772
     52          6           0        7.242460   -0.843649    0.310467
     53          6           0        8.052818   -1.273420    1.591361
     54          6           0        9.408135   -0.557792    1.842059
     55          6           0        9.906228   -0.807885    3.246661
     56          6           0        9.396908    0.903077    1.533271
     57          6           0       10.358012    1.269037    0.359076
     58          6           0        9.805175    2.066948   -0.900229
     59          6           0       10.724988    3.102471   -1.482455
     60          6           0        9.894998    4.203004   -2.247673
     61          6           0       11.866612    2.535773   -2.346906
     62          6           0       13.261917    2.937766   -1.839246
     63          6           0       14.250565    1.771041   -1.708395
     64          6           0       14.587637    1.337648   -0.270949
     65          6           0       15.716869    2.194135    0.227258
     66          6           0       14.898814   -0.183021   -0.183928
     67          1           0       -2.987637    3.380968    1.716030
     68          1           0       -9.119273    3.427267    0.082868
     69          1           0       -8.890742   -2.897621   -1.152037
     70          1           0       -1.045314   -1.140221    1.544986
     71          1           0       -1.057677    1.724312    0.982318
     72          1           0       -0.602163    1.573024    3.140162
     73          1           0       -1.754573    0.179796    3.471894
     74          1           0       -2.276556    1.923541    3.279481
     75          1           0       -0.387343    0.682297   -0.816528
     76          1           0       -0.664215   -0.989825   -1.170987
     77          1           0        0.958059   -0.682466    1.144989
     78          1           0        1.716734    0.276693   -0.063606
     79          1           0       -3.387046    5.319806    1.441429
     80          1           0       -4.733636    5.884620    2.424835
     81          1           0       -4.398181    6.613000    0.733288
     82          1           0       -6.416318    7.358497   -0.383187
     83          1           0       -6.513782    7.434428    1.385824
     84          1           0       -7.938824    7.933034    0.419851
     85          1           0      -10.831999    1.653402   -1.037436
     86          1           0      -10.834364   -1.112428   -1.038717
     87          1           0      -11.089663   -0.325430    1.181375
     88          1           0      -11.948946    1.138654    0.714792
     89          1           0      -10.455705    1.259440    1.602482
     90          1           0      -11.141879   -0.171215   -3.085455
     91          1           0       -9.742545   -1.209738   -3.072286
     92          1           0       -8.526804    0.300913   -3.951921
     93          1           0       -8.791040    1.624876   -2.862932
     94          1           0       -9.937506    1.303474   -4.147788
     95          1           0       -7.609775   -5.399222   -0.125070
     96          1           0       -6.238642   -5.864503   -1.255924
     97          1           0       -7.746766   -5.021244   -1.818346
     98          1           0       -1.922183   -3.156000   -1.074862
     99          1           0        0.278078   -4.788490    2.678980
    100          1           0       -0.296818   -3.193993    3.200774
    101          1           0        1.265615   -3.436368    2.464177
    102          1           0        3.212401   -3.874252   -1.200750
    103          1           0        3.736102   -4.163342    0.422105
    104          1           0        4.734942   -1.547587   -0.725517
    105          1           0        6.630938   -4.453021    0.891108
    106          1           0        7.457093   -4.861059   -0.683546
    107          1           0        5.718538   -5.153102   -0.273712
    108          1           0        6.850959   -1.686543   -1.808556
    109          1           0        8.033112   -2.589846   -0.931976
    110          1           0        6.272383   -0.411911    0.558821
    111          1           0        7.879766   -0.098579   -0.166389
    112          1           0        8.354501   -2.293789    1.354404
    113          1           0        7.540928   -1.273915    2.553984
    114          1           0       10.134879   -1.075634    1.215779
    115          1           0        9.155465   -0.556699    3.995720
    116          1           0       10.745526   -0.154199    3.484226
    117          1           0       10.312184   -1.817819    3.300075
    118          1           0        9.749272    1.387893    2.443633
    119          1           0        8.456427    1.418467    1.341751
    120          1           0       10.823677    0.388874   -0.084892
    121          1           0       11.110718    1.943488    0.768250
    122          1           0        8.838653    2.470598   -0.599507
    123          1           0        9.622705    1.267924   -1.619350
    124          1           0       11.185558    3.555988   -0.604663
    125          1           0        9.198435    4.698521   -1.570721
    126          1           0        9.308790    3.655160   -2.986122
    127          1           0       10.505941    5.014996   -2.641057
    128          1           0       11.781775    2.841757   -3.389938
    129          1           0       11.883944    1.455118   -2.489163
    130          1           0       13.313987    3.464653   -0.885940
    131          1           0       13.773857    3.604461   -2.533364
    132          1           0       15.154596    2.140827   -2.191906
    133          1           0       13.890895    0.939121   -2.314665
    134          1           0       13.782640    1.463785    0.453067
    135          1           0       15.744488    1.977945    1.294949
    136          1           0       15.406119    3.238343    0.175262
    137          1           0       16.700069    1.983431   -0.193955
    138          1           0       13.959421   -0.679256    0.060207
    139          1           0       15.563935   -0.364676    0.660886
    140          1           0       15.292016   -0.546014   -1.133135
 ---------------------------------------------------------------------

 SCF Done:  E(RZINDO/S) =  -474.426299469     A.U. after   19 cycles

 Excitation energies and oscillator strengths:

 Excited State   1:      Singlet-A      1.2765 eV  971.27 nm  f=0.5562  <S**2>=0.000
     175 ->178         0.16287
     176 ->177         0.67005
 This state for optimization and/or second-order correction.
 Total Energy, E(CIS/TDA) =  -474.379388335
 Copying the excited state density for this state as the 1-particle RhoCI density.

 Excited State   2:      Singlet-A      1.9325 eV  641.57 nm  f=0.0600  <S**2>=0.000
     175 ->177         0.55727
     176 ->178        -0.39346

 Excited State   3:      Singlet-A      2.9554 eV  419.52 nm  f=0.0120  <S**2>=0.000
     168 ->177         0.33689
     168 ->179        -0.44123
     168 ->181         0.22293
     168 ->185        -0.24104
     168 ->186         0.13442

 Excited State   4:      Singlet-A      2.9601 eV  418.85 nm  f=0.8350  <S**2>=0.000
     175 ->177         0.34033
     176 ->178         0.51813
     176 ->179        -0.13677
     176 ->181        -0.17326

 Excited State   5:      Singlet-A      3.0086 eV  412.09 nm  f=0.0735  <S**2>=0.000
     170 ->181        -0.12103
     171 ->177         0.30350
     171 ->178        -0.18052
     171 ->179         0.20728
     171 ->181         0.39147
     171 ->183         0.10360
     171 ->184         0.11150
     171 ->185         0.17394
     171 ->186         0.13611
     176 ->178         0.13458

 The electronic state is 1-A.
 Alpha  occ. eigenvalues --   -1.83764  -1.81832  -1.80900  -1.72817  -1.72033
 Alpha  occ. eigenvalues --   -1.69956  -1.66376  -1.62447  -1.62409  -1.56745
 Alpha  occ. eigenvalues --   -1.55680  -1.53061  -1.48675  -1.46942  -1.45545
 Alpha  occ. eigenvalues --   -1.43919  -1.42298  -1.41211  -1.39205  -1.37672
 Alpha  occ. eigenvalues --   -1.36936  -1.33193  -1.32876  -1.32110  -1.30671
 Alpha  occ. eigenvalues --   -1.29477  -1.24431  -1.22612  -1.20284  -1.18271
 Alpha  occ. eigenvalues --   -1.17134  -1.16364  -1.15438  -1.13887  -1.13361
 Alpha  occ. eigenvalues --   -1.13011  -1.11024  -1.10594  -1.04959  -1.04219
 Alpha  occ. eigenvalues --   -1.02209  -1.00357  -0.98325  -0.98011  -0.96402
 Alpha  occ. eigenvalues --   -0.95405  -0.94936  -0.93773  -0.92952  -0.92712
 Alpha  occ. eigenvalues --   -0.92066  -0.89962  -0.88733  -0.87424  -0.86572
 Alpha  occ. eigenvalues --   -0.85235  -0.84176  -0.82707  -0.82328  -0.80555
 Alpha  occ. eigenvalues --   -0.79578  -0.78369  -0.77228  -0.77141  -0.76424
 Alpha  occ. eigenvalues --   -0.76064  -0.75894  -0.75422  -0.75089  -0.74556
 Alpha  occ. eigenvalues --   -0.73253  -0.72739  -0.72542  -0.71024  -0.70636
 Alpha  occ. eigenvalues --   -0.70473  -0.69969  -0.69257  -0.68941  -0.68334
 Alpha  occ. eigenvalues --   -0.68096  -0.67100  -0.66439  -0.66157  -0.65794
 Alpha  occ. eigenvalues --   -0.65117  -0.64582  -0.64545  -0.64283  -0.63783
 Alpha  occ. eigenvalues --   -0.63496  -0.63084  -0.62806  -0.62509  -0.62326
 Alpha  occ. eigenvalues --   -0.62094  -0.61295  -0.60864  -0.60745  -0.60129
 Alpha  occ. eigenvalues --   -0.59346  -0.58970  -0.58733  -0.58598  -0.58269
 Alpha  occ. eigenvalues --   -0.57566  -0.57006  -0.56638  -0.56378  -0.55596
 Alpha  occ. eigenvalues --   -0.55419  -0.55150  -0.55136  -0.54627  -0.54369
 Alpha  occ. eigenvalues --   -0.53472  -0.53147  -0.53034  -0.52690  -0.52506
 Alpha  occ. eigenvalues --   -0.52372  -0.52322  -0.51646  -0.51432  -0.51204
 Alpha  occ. eigenvalues --   -0.50804  -0.50584  -0.50566  -0.50258  -0.50024
 Alpha  occ. eigenvalues --   -0.49637  -0.49520  -0.49399  -0.48941  -0.48772
 Alpha  occ. eigenvalues --   -0.48713  -0.48573  -0.48067  -0.47821  -0.47470
 Alpha  occ. eigenvalues --   -0.47262  -0.47087  -0.46809  -0.46601  -0.46311
 Alpha  occ. eigenvalues --   -0.46240  -0.46017  -0.45841  -0.45764  -0.45264
 Alpha  occ. eigenvalues --   -0.44652  -0.44351  -0.44134  -0.43942  -0.43517
 Alpha  occ. eigenvalues --   -0.43326  -0.43274  -0.42747  -0.42279  -0.42092
 Alpha  occ. eigenvalues --   -0.41802  -0.41577  -0.40863  -0.39217  -0.38969
 Alpha  occ. eigenvalues --   -0.38050  -0.37286  -0.35665  -0.34618  -0.34180
 Alpha  occ. eigenvalues --   -0.33877  -0.32261  -0.32059  -0.31251  -0.26677
 Alpha  occ. eigenvalues --   -0.21861
 Alpha virt. eigenvalues --   -0.08476  -0.01986  -0.00228   0.00689   0.01585
 Alpha virt. eigenvalues --    0.02933   0.03156   0.03472   0.04822   0.06319
 Alpha virt. eigenvalues --    0.06430   0.06484   0.06913   0.07599   0.07817

 Mulliken charges:
               1
     1  Mg   0.422755
     2  C   -0.022122
     3  C   -0.063262
     4  C   -0.089621
     5  C   -0.067896
     6  N   -0.243325
     7  C    0.082511
     8  C   -0.016323
     9  C    0.003886
    10  C    0.149687
    11  C   -0.049318
    12  C   -0.030194
    13  C    0.008672
    14  C    0.465554
    15  O   -0.513414
    16  O   -0.263535
    17  N   -0.345018
    18  C    0.105058
    19  C    0.036384
    20  C   -0.043280
    21  C    0.186542
    22  C   -0.047025
    23  C    0.331698
    24  O   -0.511355
    25  C   -0.029027
    26  N   -0.309981
    27  C    0.192336
    28  C    0.021993
    29  C    0.013149
    30  C    0.097566
    31  C   -0.049946
    32  C   -0.016326
    33  C   -0.057155
    34  N   -0.316797
    35  C    0.065665
    36  C    0.006902
    37  C   -0.039835
    38  C    0.087176
    39  C   -0.037548
    40  C    0.325949
    41  O   -0.545714
    42  C    0.069436
    43  C    0.488653
    44  O   -0.501352
    45  O   -0.289363
    46  C    0.073356
    47  C    0.096700
    48  C   -0.090071
    49  C   -0.000248
    50  C   -0.049078
    51  C   -0.030701
    52  C   -0.029704
    53  C   -0.041213
    54  C   -0.002005
    55  C   -0.054751
    56  C   -0.027767
    57  C   -0.052512
    58  C   -0.035139
    59  C   -0.002355
    60  C   -0.059553
    61  C   -0.027643
    62  C   -0.040435
    63  C   -0.034155
    64  C   -0.009378
    65  C   -0.053129
    66  C   -0.061573
    67  H    0.026443
    68  H    0.031272
    69  H    0.025497
    70  H    0.043675
    71  H    0.029486
    72  H    0.016219
    73  H    0.039549
    74  H    0.020118
    75  H    0.019991
    76  H    0.036794
    77  H    0.035518
    78  H    0.047839
    79  H    0.022584
    80  H    0.042743
    81  H    0.040341
    82  H    0.042153
    83  H    0.030610
    84  H    0.043494
    85  H    0.025411
    86  H    0.022432
    87  H    0.029602
    88  H    0.014427
    89  H    0.016844
    90  H    0.014656
    91  H    0.013069
    92  H    0.013314
    93  H    0.032089
    94  H    0.012099
    95  H    0.033181
    96  H    0.038872
    97  H    0.024059
    98  H    0.063951
    99  H    0.042895
   100  H    0.039779
   101  H    0.031659
   102  H    0.061537
   103  H    0.035449
   104  H    0.025733
   105  H    0.026817
   106  H    0.038252
   107  H    0.019800
   108  H    0.030050
   109  H    0.015316
   110  H    0.032293
   111  H    0.018825
   112  H    0.012059
   113  H    0.026875
   114  H    0.017875
   115  H    0.021709
   116  H    0.009837
   117  H    0.016079
   118  H    0.010070
   119  H    0.022418
   120  H    0.022540
   121  H    0.014845
   122  H    0.015610
   123  H    0.013134
   124  H    0.018669
   125  H    0.011413
   126  H    0.023761
   127  H    0.021949
   128  H    0.014839
   129  H    0.021154
   130  H    0.022017
   131  H    0.010854
   132  H    0.013615
   133  H    0.014513
   134  H    0.020438
   135  H    0.003782
   136  H    0.016469
   137  H    0.028446
   138  H    0.013888
   139  H    0.017927
   140  H    0.025000
 Sum of Mulliken charges =  -0.00000

 Dipole moment (field-independent basis, Debye):
    X=              4.2387    Y=             11.7445    Z=              4.4330  Tot=             13.2496
 N-N= 4.322375768962D+03 E-N= 0.000000000000D+00  KE=-9.319406889066D+03
 Leave Link  601 at Fri Apr 29 21:49:31 2022, MaxMem=  6710886400 cpu:               0.8 elap:               0.1
 (Enter /sw/apps/gaussian-16.0/g16/l9999.exe)
 1\1\GINC-BP1-COMPUTE102\SP\RZINDO CIS\STO-3G\C55H74Mg1N4O6\OF15641\29-
 Apr-2022\0\\#p ZINDO=(nstates=5)\\step_501_chromophore_10 ZINDO\\0,1\M
 g,0,40.466,8.468,29.026\C,0,42.131,9.824,31.823\C,0,38.272,6.931,31.17
 9\C,0,38.872,7.074,26.419\C,0,43.042,9.568,26.929\N,0,40.228,8.552,31.
 198\C,0,40.931,9.116,32.176\C,0,40.408,8.904,33.612\C,0,39.364,7.735,3
 3.266\C,0,39.314,7.702,31.758\C,0,39.741,6.393,33.845\C,0,39.695,10.21
 3,34.266\C,0,39.76,10.231,35.796\C,0,40.526,11.444,36.384\O,0,40.483,1

 Normal termination of Gaussian 16 at Fri Apr 29 21:49:31 2022.
