 Gaussian 16, Revision A.03,
 Gaussian 16:  ES64L-G16RevA.03 25-Dec-2016

 ------------------------------
 #p blyp/Def2SVP td=(nstates=5)
 ------------------------------

 --------------------------------------------------
 step_601_chromophore_11 TDDFT with blyp functional
 --------------------------------------------------
 Symbolic Z-matrix:
 Charge =  0 Multiplicity = 1

                         Standard orientation:
 ---------------------------------------------------------------------
 Center     Atomic      Atomic             Coordinates (Angstroms)
 Number     Number       Type             X           Y           Z
 ---------------------------------------------------------------------
      1         12           0       -4.861804    1.449294    0.430716
      2          6           0       -5.128750   -2.143110    0.242718
      3          6           0       -2.121551    0.886790    2.539640
      4          6           0       -4.204941    4.627117    0.242538
      5          6           0       -7.796466    1.740214   -1.278779
      6          7           0       -3.649344   -0.513872    1.094238
      7          6           0       -4.022272   -1.754751    1.008577
      8          6           0       -3.237268   -2.702023    1.944976
      9          6           0       -2.407291   -1.624408    2.744601
     10          6           0       -2.762426   -0.314541    2.079389
     11          6           0       -2.743946   -1.724274    4.275180
     12          6           0       -2.324807   -3.791658    1.246191
     13          6           0       -1.883734   -3.373288   -0.103413
     14          6           0       -0.840307   -4.314651   -0.779987
     15          8           0       -1.159894   -5.313383   -1.369709
     16          8           0        0.481259   -3.928876   -0.599667
     17          7           0       -3.307032    2.634338    1.223854
     18          6           0       -2.422260    2.240480    2.170695
     19          6           0       -1.572691    3.418857    2.392801
     20          6           0       -2.108546    4.548556    1.721544
     21          6           0       -3.336490    3.991154    1.118373
     22          6           0       -0.304102    3.377251    3.132303
     23          6           0       -1.414550    5.823790    1.559584
     24          8           0       -0.398307    6.075354    2.275988
     25          6           0       -1.904090    6.955459    0.653901
     26          7           0       -5.780589    2.978110   -0.484148
     27          6           0       -5.300162    4.212540   -0.529392
     28          6           0       -6.156015    5.123843   -1.378089
     29          6           0       -7.395849    4.254068   -1.641769
     30          6           0       -6.986101    2.859667   -1.140911
     31          6           0       -6.491662    6.469807   -0.638490
     32          6           0       -7.936382    4.174187   -3.142705
     33          6           0       -9.354940    4.746208   -3.411787
     34          7           0       -6.241600    0.079430   -0.392317
     35          6           0       -7.443684    0.391558   -0.985893
     36          6           0       -8.160294   -0.907262   -1.218605
     37          6           0       -7.248228   -1.890692   -0.699519
     38          6           0       -6.050758   -1.261510   -0.277200
     39          6           0       -9.547037   -1.049312   -1.854322
     40          6           0       -7.130536   -3.305939   -0.535194
     41          8           0       -7.885805   -4.254357   -0.826258
     42          6           0       -5.743162   -3.524179    0.070772
     43          6           0       -5.141593   -4.427108   -0.873262
     44          8           0       -5.045544   -4.234698   -2.069461
     45          8           0       -4.580391   -5.449162   -0.171361
     46          6           0       -4.112354   -6.562184   -0.992334
     47          6           0        1.466770   -4.908727   -1.087463
     48          6           0        2.884070   -4.281270   -0.855895
     49          6           0        3.666831   -4.282072    0.247134
     50          6           0        3.204033   -4.891312    1.610370
     51          6           0        5.069340   -3.717663    0.160401
     52          6           0        5.163658   -2.254828    0.649644
     53          6           0        5.929266   -1.315128   -0.384230
     54          6           0        7.054786   -0.464342    0.283487
     55          6           0        6.813238    1.039880    0.227200
     56          6           0        8.501087   -0.802905   -0.232545
     57          6           0        9.641938   -0.715833    0.759997
     58          6           0       10.727651    0.219183    0.037308
     59          6           0       12.128484    0.242735    0.729103
     60          6           0       12.132122    0.149642    2.222980
     61          6           0       12.888321    1.476439    0.079608
     62          6           0       14.329732    1.102178   -0.238293
     63          6           0       14.629625    1.116958   -1.776283
     64          6           0       15.828632    2.029584   -2.175736
     65          6           0       15.601246    3.630146   -2.003813
     66          6           0       16.510751    1.660979   -3.496368
     67          1           0       -1.479964    0.811501    3.420756
     68          1           0       -4.116870    5.712771    0.166299
     69          1           0       -8.768537    1.740157   -1.775442
     70          1           0       -4.011797   -3.133430    2.579570
     71          1           0       -1.372358   -1.869844    2.506515
     72          1           0       -3.792499   -1.676916    4.569599
     73          1           0       -2.322564   -0.797818    4.665255
     74          1           0       -2.439148   -2.651864    4.759968
     75          1           0       -2.794033   -4.775168    1.216052
     76          1           0       -1.380941   -3.758974    1.789641
     77          1           0       -1.550176   -2.336981   -0.045190
     78          1           0       -2.727882   -3.277346   -0.786672
     79          1           0       -0.377314    2.568114    3.859375
     80          1           0       -0.205813    4.272583    3.746199
     81          1           0        0.591901    3.232922    2.527756
     82          1           0       -2.036964    6.597538   -0.366583
     83          1           0       -1.193508    7.781595    0.621800
     84          1           0       -2.881217    7.358671    0.918354
     85          1           0       -5.548552    5.414798   -2.234916
     86          1           0       -8.266506    4.543288   -1.053286
     87          1           0       -5.905549    7.181379   -1.219484
     88          1           0       -6.244812    6.548409    0.420767
     89          1           0       -7.514546    6.822648   -0.771720
     90          1           0       -7.773129    3.265812   -3.723786
     91          1           0       -7.381396    4.957916   -3.658021
     92          1           0       -9.568577    5.558569   -2.717518
     93          1           0       -9.987201    3.857413   -3.400026
     94          1           0       -9.332189    5.254405   -4.375026
     95          1           0       -9.865664   -1.990921   -1.408158
     96          1           0       -9.370343   -1.171415   -2.922722
     97          1           0      -10.055097   -0.133725   -1.550552
     98          1           0       -5.835225   -4.140137    0.966000
     99          1           0       -5.006489   -7.110702   -1.290158
    100          1           0       -3.500001   -7.333799   -0.527179
    101          1           0       -3.533535   -6.194273   -1.839303
    102          1           0        1.442639   -4.972011   -2.175448
    103          1           0        1.452153   -5.910410   -0.659027
    104          1           0        3.285324   -4.031557   -1.838410
    105          1           0        2.371221   -5.583008    1.481251
    106          1           0        2.835172   -4.214500    2.381640
    107          1           0        4.057214   -5.506174    1.894875
    108          1           0        5.530568   -3.989501   -0.788763
    109          1           0        5.743750   -4.174810    0.884757
    110          1           0        5.617324   -2.355688    1.635344
    111          1           0        4.115341   -1.959781    0.669094
    112          1           0        5.137643   -0.622946   -0.672892
    113          1           0        6.350633   -1.764618   -1.283315
    114          1           0        7.031726   -0.651422    1.356804
    115          1           0        7.672545    1.560858   -0.194433
    116          1           0        6.553901    1.389582    1.226972
    117          1           0        5.940798    1.180910   -0.411860
    118          1           0        8.614900   -0.129987   -1.082567
    119          1           0        8.514725   -1.845950   -0.547031
    120          1           0       10.155187   -1.673450    0.843855
    121          1           0        9.300565   -0.515373    1.775320
    122          1           0       10.391355    1.256676    0.004143
    123          1           0       10.852481   -0.182205   -0.968071
    124          1           0       12.524376   -0.720516    0.408203
    125          1           0       12.077541   -0.907739    2.479530
    126          1           0       11.420594    0.797314    2.734258
    127          1           0       13.144033    0.446161    2.498551
    128          1           0       12.933805    2.312093    0.777713
    129          1           0       12.323991    1.819895   -0.786730
    130          1           0       14.527216    0.084321    0.097037
    131          1           0       15.025998    1.714787    0.335446
    132          1           0       13.730650    1.489933   -2.266606
    133          1           0       14.878615    0.082307   -2.014119
    134          1           0       16.618993    1.874650   -1.442040
    135          1           0       14.749711    3.787939   -1.341687
    136          1           0       15.492933    4.117914   -2.972953
    137          1           0       16.437284    4.018136   -1.423214
    138          1           0       16.889912    2.585051   -3.931621
    139          1           0       15.809967    1.130576   -4.141295
    140          1           0       17.278753    0.912980   -3.299529
 ---------------------------------------------------------------------

 SCF Done:  E(RB-LYP) =  -3007.33616170     A.U. after   20 cycles

 Excitation energies and oscillator strengths:

 Excited State   1:      Singlet-A      1.7587 eV  704.96 nm  f=0.0434  <S**2>=0.000
     244 -> 247        0.64452
     245 -> 247        0.11778
     246 -> 247       -0.25863
 This state for optimization and/or second-order correction.
 Total Energy, E(TD-HF/TD-DFT) =  -3007.27152905
 Copying the excited state density for this state as the 1-particle RhoCI density.

 Excited State   2:      Singlet-A      1.8303 eV  677.39 nm  f=0.1824  <S**2>=0.000
     243 -> 247       -0.35754
     244 -> 247        0.16135
     245 -> 247        0.24299
     245 -> 248       -0.13926
     246 -> 247        0.51685
     246 <- 247       -0.10884

 Excited State   3:      Singlet-A      1.8515 eV  669.65 nm  f=0.0912  <S**2>=0.000
     243 -> 247        0.47632
     244 -> 247        0.21933
     245 -> 247       -0.27292
     245 -> 248       -0.11747
     246 -> 247        0.36926

 Excited State   4:      Singlet-A      2.0709 eV  598.69 nm  f=0.0468  <S**2>=0.000
     243 -> 247        0.35939
     245 -> 247        0.51717
     246 -> 248        0.27220

 Excited State   5:      Singlet-A      2.3906 eV  518.64 nm  f=0.0000  <S**2>=0.000
     240 -> 247       -0.33327
     241 -> 247        0.62210

 The electronic state is 1-A.
 Alpha  occ. eigenvalues --  -46.27753 -18.82060 -18.81928 -18.77170 -18.75911
 Alpha  occ. eigenvalues --  -18.75163 -18.74941 -14.03602 -14.03598 -14.01657
 Alpha  occ. eigenvalues --  -14.01139 -10.04067 -10.03012  -9.99899  -9.98866
 Alpha  occ. eigenvalues --   -9.97888  -9.97179  -9.97035  -9.96982  -9.96511
 Alpha  occ. eigenvalues --   -9.96394  -9.96134  -9.96085  -9.96013  -9.94989
 Alpha  occ. eigenvalues --   -9.94746  -9.94624  -9.94396  -9.94172  -9.94072
 Alpha  occ. eigenvalues --   -9.93925  -9.93862  -9.93671  -9.93545  -9.93524
 Alpha  occ. eigenvalues --   -9.93245  -9.93071  -9.93051  -9.93034  -9.92914
 Alpha  occ. eigenvalues --   -9.92859  -9.92837  -9.92719  -9.92634  -9.92585
 Alpha  occ. eigenvalues --   -9.92509  -9.92202  -9.91885  -9.91741  -9.91696
 Alpha  occ. eigenvalues --   -9.91582  -9.91376  -9.91151  -9.91099  -9.91080
 Alpha  occ. eigenvalues --   -9.91072  -9.91067  -9.91054  -9.91038  -9.90958
 Alpha  occ. eigenvalues --   -9.90758  -9.90616  -9.90577  -9.90544  -9.90528
 Alpha  occ. eigenvalues --   -9.90195  -2.92402  -1.72834  -1.72301  -1.72097
 Alpha  occ. eigenvalues --   -0.97908  -0.97728  -0.90286  -0.90250  -0.89287
 Alpha  occ. eigenvalues --   -0.89121  -0.88354  -0.87584  -0.86166  -0.85290
 Alpha  occ. eigenvalues --   -0.76387  -0.73270  -0.73029  -0.72807  -0.72539
 Alpha  occ. eigenvalues --   -0.72505  -0.71457  -0.71380  -0.70152  -0.70070
 Alpha  occ. eigenvalues --   -0.69729  -0.69142  -0.68280  -0.68007  -0.67492
 Alpha  occ. eigenvalues --   -0.66461  -0.66166  -0.65498  -0.65010  -0.64797
 Alpha  occ. eigenvalues --   -0.63927  -0.62754  -0.62097  -0.61740  -0.60747
 Alpha  occ. eigenvalues --   -0.60281  -0.60134  -0.59751  -0.59703  -0.58363
 Alpha  occ. eigenvalues --   -0.58077  -0.57980  -0.57449  -0.55725  -0.54912
 Alpha  occ. eigenvalues --   -0.54098  -0.53778  -0.53497  -0.52461  -0.52201
 Alpha  occ. eigenvalues --   -0.51710  -0.51577  -0.50993  -0.50642  -0.49857
 Alpha  occ. eigenvalues --   -0.49012  -0.48354  -0.48259  -0.48049  -0.46884
 Alpha  occ. eigenvalues --   -0.46397  -0.46042  -0.45879  -0.45322  -0.44960
 Alpha  occ. eigenvalues --   -0.44603  -0.44073  -0.43403  -0.43113  -0.42832
 Alpha  occ. eigenvalues --   -0.42175  -0.41975  -0.41494  -0.41431  -0.41037
 Alpha  occ. eigenvalues --   -0.40888  -0.40764  -0.40574  -0.40121  -0.40059
 Alpha  occ. eigenvalues --   -0.39882  -0.39581  -0.39425  -0.39192  -0.39069
 Alpha  occ. eigenvalues --   -0.38939  -0.38728  -0.38602  -0.38513  -0.38296
 Alpha  occ. eigenvalues --   -0.38209  -0.38080  -0.37742  -0.37547  -0.37513
 Alpha  occ. eigenvalues --   -0.36977  -0.36760  -0.36529  -0.36396  -0.36299
 Alpha  occ. eigenvalues --   -0.36071  -0.36006  -0.35781  -0.35697  -0.35526
 Alpha  occ. eigenvalues --   -0.35400  -0.35219  -0.35077  -0.34947  -0.34723
 Alpha  occ. eigenvalues --   -0.34567  -0.34350  -0.34299  -0.34261  -0.33972
 Alpha  occ. eigenvalues --   -0.33847  -0.33634  -0.33503  -0.33468  -0.33343
 Alpha  occ. eigenvalues --   -0.32901  -0.32854  -0.32803  -0.32356  -0.32259
 Alpha  occ. eigenvalues --   -0.32062  -0.32019  -0.31964  -0.31865  -0.31686
 Alpha  occ. eigenvalues --   -0.31608  -0.31144  -0.30905  -0.30799  -0.30281
 Alpha  occ. eigenvalues --   -0.30034  -0.29793  -0.29733  -0.29646  -0.29581
 Alpha  occ. eigenvalues --   -0.29450  -0.29403  -0.29346  -0.29061  -0.29002
 Alpha  occ. eigenvalues --   -0.28763  -0.28539  -0.28096  -0.27905  -0.27527
 Alpha  occ. eigenvalues --   -0.27223  -0.26952  -0.26851  -0.26198  -0.26053
 Alpha  occ. eigenvalues --   -0.26021  -0.25769  -0.25515  -0.25418  -0.25305
 Alpha  occ. eigenvalues --   -0.25028  -0.24977  -0.24699  -0.24367  -0.23312
 Alpha  occ. eigenvalues --   -0.22647  -0.22487  -0.22343  -0.21250  -0.20543
 Alpha  occ. eigenvalues --   -0.20530  -0.20258  -0.18508  -0.18164  -0.17794
 Alpha  occ. eigenvalues --   -0.16135
 Alpha virt. eigenvalues --   -0.11748  -0.07675  -0.06719  -0.05146  -0.02803
 Alpha virt. eigenvalues --   -0.02631  -0.02372  -0.02174  -0.01385  -0.00463
 Alpha virt. eigenvalues --    0.00727   0.01478   0.01966   0.02714   0.02941

 Mulliken charges:
               1
     1  Mg   0.678724
     2  C    0.056517
     3  C   -0.063551
     4  C   -0.070106
     5  C   -0.057685
     6  N   -0.095326
     7  C   -0.214245
     8  C    0.034698
     9  C    0.023706
    10  C    0.002827
    11  C    0.122604
    12  C    0.144403
    13  C    0.102097
    14  C    0.103111
    15  O   -0.177142
    16  O   -0.273639
    17  N   -0.298528
    18  C    0.133134
    19  C   -0.172978
    20  C    0.092938
    21  C    0.165076
    22  C    0.208017
    23  C   -0.085139
    24  O   -0.212885
    25  C    0.127873
    26  N   -0.261624
    27  C   -0.020776
    28  C    0.063713
    29  C    0.065908
    30  C    0.082175
    31  C    0.097186
    32  C    0.046467
    33  C    0.054606
    34  N   -0.265642
    35  C    0.051030
    36  C   -0.189779
    37  C    0.066990
    38  C    0.118148
    39  C    0.180247
    40  C   -0.066476
    41  O   -0.159023
    42  C    0.104130
    43  C    0.067027
    44  O   -0.170529
    45  O   -0.268565
    46  C    0.221735
    47  C    0.302202
    48  C   -0.125556
    49  C   -0.121029
    50  C    0.130214
    51  C    0.118448
    52  C    0.064422
    53  C    0.129786
    54  C   -0.121678
    55  C    0.122897
    56  C    0.111136
    57  C    0.094539
    58  C    0.009099
    59  C   -0.091283
    60  C    0.161638
    61  C    0.105238
    62  C    0.065875
    63  C    0.114986
    64  C   -0.121561
    65  C    0.079977
    66  C    0.121879
    67  H   -0.036315
    68  H   -0.085349
    69  H   -0.064027
    70  H   -0.028052
    71  H   -0.019169
    72  H   -0.015557
    73  H   -0.017786
    74  H    0.001585
    75  H    0.004346
    76  H   -0.030975
    77  H   -0.024870
    78  H    0.012381
    79  H   -0.041319
    80  H    0.005298
    81  H    0.012196
    82  H   -0.005031
    83  H   -0.007872
    84  H    0.020948
    85  H   -0.006496
    86  H   -0.018526
    87  H   -0.015079
    88  H    0.012774
    89  H   -0.009753
    90  H   -0.004673
    91  H   -0.037692
    92  H   -0.009735
    93  H    0.007212
    94  H   -0.009732
    95  H    0.021279
    96  H    0.020980
    97  H    0.008347
    98  H   -0.020581
    99  H    0.003778
   100  H    0.005043
   101  H    0.033326
   102  H   -0.011846
   103  H    0.009274
   104  H   -0.032494
   105  H   -0.023607
   106  H    0.013979
   107  H   -0.002561
   108  H   -0.019215
   109  H   -0.049946
   110  H   -0.010805
   111  H   -0.013343
   112  H   -0.036008
   113  H   -0.022005
   114  H   -0.046746
   115  H   -0.012733
   116  H   -0.014678
   117  H   -0.028292
   118  H   -0.023045
   119  H   -0.043701
   120  H   -0.046753
   121  H   -0.025645
   122  H   -0.015483
   123  H   -0.015744
   124  H   -0.046869
   125  H   -0.020710
   126  H   -0.011959
   127  H   -0.031546
   128  H   -0.038094
   129  H   -0.026557
   130  H   -0.033674
   131  H   -0.034294
   132  H   -0.024148
   133  H   -0.034274
   134  H   -0.038804
   135  H   -0.019353
   136  H   -0.001782
   137  H   -0.014533
   138  H   -0.015426
   139  H   -0.022121
   140  H   -0.018046
 Sum of Mulliken charges =  -0.00000

 Dipole moment (field-independent basis, Debye):
    X=              0.4474    Y=              2.5948    Z=              1.7671  Tot=              3.1711
 Quadrupole moment (field-independent basis, Debye-Ang):
   XX=           -391.7426   YY=           -410.3508   ZZ=           -405.2893
   XY=            -66.5329   XZ=             -4.3220   YZ=            -34.1780

 Normal termination of Gaussian 16 at Thu May  5 05:22:08 2022.
