 Gaussian 16, Revision A.03,
 Gaussian 16:  ES64L-G16RevA.03 25-Dec-2016

 -----------------------------------
 #p cam-b3lyp/Def2SVP td=(nstates=5)
 -----------------------------------

 -------------------------------------------------------
 step_601_chromophore_11 TDDFT with cam-b3lyp functional
 -------------------------------------------------------
 Symbolic Z-matrix:
 Charge =  0 Multiplicity = 1

                         Standard orientation:
 ---------------------------------------------------------------------
 Center     Atomic      Atomic             Coordinates (Angstroms)
 Number     Number       Type             X           Y           Z
 ---------------------------------------------------------------------
      1         12           0       -4.861804    1.449294    0.430716
      2          6           0       -5.128750   -2.143110    0.242718
      3          6           0       -2.121551    0.886790    2.539640
      4          6           0       -4.204941    4.627117    0.242538
      5          6           0       -7.796466    1.740214   -1.278779
      6          7           0       -3.649344   -0.513872    1.094238
      7          6           0       -4.022272   -1.754751    1.008577
      8          6           0       -3.237268   -2.702023    1.944976
      9          6           0       -2.407291   -1.624408    2.744601
     10          6           0       -2.762426   -0.314541    2.079389
     11          6           0       -2.743946   -1.724274    4.275180
     12          6           0       -2.324807   -3.791658    1.246191
     13          6           0       -1.883734   -3.373288   -0.103413
     14          6           0       -0.840307   -4.314651   -0.779987
     15          8           0       -1.159894   -5.313383   -1.369709
     16          8           0        0.481259   -3.928876   -0.599667
     17          7           0       -3.307032    2.634338    1.223854
     18          6           0       -2.422260    2.240480    2.170695
     19          6           0       -1.572691    3.418857    2.392801
     20          6           0       -2.108546    4.548556    1.721544
     21          6           0       -3.336490    3.991154    1.118373
     22          6           0       -0.304102    3.377251    3.132303
     23          6           0       -1.414550    5.823790    1.559584
     24          8           0       -0.398307    6.075354    2.275988
     25          6           0       -1.904090    6.955459    0.653901
     26          7           0       -5.780589    2.978110   -0.484148
     27          6           0       -5.300162    4.212540   -0.529392
     28          6           0       -6.156015    5.123843   -1.378089
     29          6           0       -7.395849    4.254068   -1.641769
     30          6           0       -6.986101    2.859667   -1.140911
     31          6           0       -6.491662    6.469807   -0.638490
     32          6           0       -7.936382    4.174187   -3.142705
     33          6           0       -9.354940    4.746208   -3.411787
     34          7           0       -6.241600    0.079430   -0.392317
     35          6           0       -7.443684    0.391558   -0.985893
     36          6           0       -8.160294   -0.907262   -1.218605
     37          6           0       -7.248228   -1.890692   -0.699519
     38          6           0       -6.050758   -1.261510   -0.277200
     39          6           0       -9.547037   -1.049312   -1.854322
     40          6           0       -7.130536   -3.305939   -0.535194
     41          8           0       -7.885805   -4.254357   -0.826258
     42          6           0       -5.743162   -3.524179    0.070772
     43          6           0       -5.141593   -4.427108   -0.873262
     44          8           0       -5.045544   -4.234698   -2.069461
     45          8           0       -4.580391   -5.449162   -0.171361
     46          6           0       -4.112354   -6.562184   -0.992334
     47          6           0        1.466770   -4.908727   -1.087463
     48          6           0        2.884070   -4.281270   -0.855895
     49          6           0        3.666831   -4.282072    0.247134
     50          6           0        3.204033   -4.891312    1.610370
     51          6           0        5.069340   -3.717663    0.160401
     52          6           0        5.163658   -2.254828    0.649644
     53          6           0        5.929266   -1.315128   -0.384230
     54          6           0        7.054786   -0.464342    0.283487
     55          6           0        6.813238    1.039880    0.227200
     56          6           0        8.501087   -0.802905   -0.232545
     57          6           0        9.641938   -0.715833    0.759997
     58          6           0       10.727651    0.219183    0.037308
     59          6           0       12.128484    0.242735    0.729103
     60          6           0       12.132122    0.149642    2.222980
     61          6           0       12.888321    1.476439    0.079608
     62          6           0       14.329732    1.102178   -0.238293
     63          6           0       14.629625    1.116958   -1.776283
     64          6           0       15.828632    2.029584   -2.175736
     65          6           0       15.601246    3.630146   -2.003813
     66          6           0       16.510751    1.660979   -3.496368
     67          1           0       -1.479964    0.811501    3.420756
     68          1           0       -4.116870    5.712771    0.166299
     69          1           0       -8.768537    1.740157   -1.775442
     70          1           0       -4.011797   -3.133430    2.579570
     71          1           0       -1.372358   -1.869844    2.506515
     72          1           0       -3.792499   -1.676916    4.569599
     73          1           0       -2.322564   -0.797818    4.665255
     74          1           0       -2.439148   -2.651864    4.759968
     75          1           0       -2.794033   -4.775168    1.216052
     76          1           0       -1.380941   -3.758974    1.789641
     77          1           0       -1.550176   -2.336981   -0.045190
     78          1           0       -2.727882   -3.277346   -0.786672
     79          1           0       -0.377314    2.568114    3.859375
     80          1           0       -0.205813    4.272583    3.746199
     81          1           0        0.591901    3.232922    2.527756
     82          1           0       -2.036964    6.597538   -0.366583
     83          1           0       -1.193508    7.781595    0.621800
     84          1           0       -2.881217    7.358671    0.918354
     85          1           0       -5.548552    5.414798   -2.234916
     86          1           0       -8.266506    4.543288   -1.053286
     87          1           0       -5.905549    7.181379   -1.219484
     88          1           0       -6.244812    6.548409    0.420767
     89          1           0       -7.514546    6.822648   -0.771720
     90          1           0       -7.773129    3.265812   -3.723786
     91          1           0       -7.381396    4.957916   -3.658021
     92          1           0       -9.568577    5.558569   -2.717518
     93          1           0       -9.987201    3.857413   -3.400026
     94          1           0       -9.332189    5.254405   -4.375026
     95          1           0       -9.865664   -1.990921   -1.408158
     96          1           0       -9.370343   -1.171415   -2.922722
     97          1           0      -10.055097   -0.133725   -1.550552
     98          1           0       -5.835225   -4.140137    0.966000
     99          1           0       -5.006489   -7.110702   -1.290158
    100          1           0       -3.500001   -7.333799   -0.527179
    101          1           0       -3.533535   -6.194273   -1.839303
    102          1           0        1.442639   -4.972011   -2.175448
    103          1           0        1.452153   -5.910410   -0.659027
    104          1           0        3.285324   -4.031557   -1.838410
    105          1           0        2.371221   -5.583008    1.481251
    106          1           0        2.835172   -4.214500    2.381640
    107          1           0        4.057214   -5.506174    1.894875
    108          1           0        5.530568   -3.989501   -0.788763
    109          1           0        5.743750   -4.174810    0.884757
    110          1           0        5.617324   -2.355688    1.635344
    111          1           0        4.115341   -1.959781    0.669094
    112          1           0        5.137643   -0.622946   -0.672892
    113          1           0        6.350633   -1.764618   -1.283315
    114          1           0        7.031726   -0.651422    1.356804
    115          1           0        7.672545    1.560858   -0.194433
    116          1           0        6.553901    1.389582    1.226972
    117          1           0        5.940798    1.180910   -0.411860
    118          1           0        8.614900   -0.129987   -1.082567
    119          1           0        8.514725   -1.845950   -0.547031
    120          1           0       10.155187   -1.673450    0.843855
    121          1           0        9.300565   -0.515373    1.775320
    122          1           0       10.391355    1.256676    0.004143
    123          1           0       10.852481   -0.182205   -0.968071
    124          1           0       12.524376   -0.720516    0.408203
    125          1           0       12.077541   -0.907739    2.479530
    126          1           0       11.420594    0.797314    2.734258
    127          1           0       13.144033    0.446161    2.498551
    128          1           0       12.933805    2.312093    0.777713
    129          1           0       12.323991    1.819895   -0.786730
    130          1           0       14.527216    0.084321    0.097037
    131          1           0       15.025998    1.714787    0.335446
    132          1           0       13.730650    1.489933   -2.266606
    133          1           0       14.878615    0.082307   -2.014119
    134          1           0       16.618993    1.874650   -1.442040
    135          1           0       14.749711    3.787939   -1.341687
    136          1           0       15.492933    4.117914   -2.972953
    137          1           0       16.437284    4.018136   -1.423214
    138          1           0       16.889912    2.585051   -3.931621
    139          1           0       15.809967    1.130576   -4.141295
    140          1           0       17.278753    0.912980   -3.299529
 ---------------------------------------------------------------------

 SCF Done:  E(RCAM-B3LYP) =  -3007.13050338     A.U. after   17 cycles

 Excitation energies and oscillator strengths:

 Excited State   1:      Singlet-A      1.7360 eV  714.20 nm  f=0.3770  <S**2>=0.000
     245 -> 248       -0.19045
     246 -> 247        0.68268
     245 <- 248       -0.10904
 This state for optimization and/or second-order correction.
 Total Energy, E(TD-HF/TD-DFT) =  -3007.06670663
 Copying the excited state density for this state as the 1-particle RhoCI density.

 Excited State   2:      Singlet-A      2.2971 eV  539.75 nm  f=0.0579  <S**2>=0.000
     245 -> 247        0.60621
     246 -> 248        0.35140

 Excited State   3:      Singlet-A      3.3499 eV  370.12 nm  f=0.0500  <S**2>=0.000
     240 -> 247       -0.26723
     240 -> 248       -0.10725
     240 -> 249        0.22362
     240 -> 250        0.14423
     241 -> 247        0.14756
     243 -> 247       -0.22438
     244 -> 247        0.43369
     246 -> 248        0.16055

 Excited State   4:      Singlet-A      3.3694 eV  367.97 nm  f=0.0108  <S**2>=0.000
     239 -> 247        0.10515
     240 -> 247        0.29993
     240 -> 248        0.11828
     240 -> 249       -0.25663
     240 -> 250       -0.15456
     241 -> 247        0.12571
     241 -> 249        0.10349
     243 -> 247        0.15597
     244 -> 247        0.43638
     246 -> 248       -0.12278

 Excited State   5:      Singlet-A      3.4208 eV  362.45 nm  f=0.2205  <S**2>=0.000
     241 -> 247        0.41942
     241 -> 249        0.18550
     241 -> 250       -0.14318
     243 -> 247        0.11016
     244 -> 247       -0.24875
     245 -> 247       -0.18704
     246 -> 248        0.36103

 The electronic state is 1-A.
 Alpha  occ. eigenvalues --  -46.89405 -19.24891 -19.24844 -19.20142 -19.18955
 Alpha  occ. eigenvalues --  -19.18291 -19.18222 -14.42534 -14.42435 -14.40240
 Alpha  occ. eigenvalues --  -14.39545 -10.39327 -10.38324 -10.35237 -10.34140
 Alpha  occ. eigenvalues --  -10.31998 -10.31601 -10.31584 -10.31579 -10.31045
 Alpha  occ. eigenvalues --  -10.30909 -10.30501 -10.30368 -10.30031 -10.28976
 Alpha  occ. eigenvalues --  -10.28966 -10.28868 -10.28563 -10.28496 -10.28276
 Alpha  occ. eigenvalues --  -10.28202 -10.28186 -10.28152 -10.27660 -10.27565
 Alpha  occ. eigenvalues --  -10.27107 -10.27051 -10.26950 -10.26886 -10.26843
 Alpha  occ. eigenvalues --  -10.26809 -10.26807 -10.26795 -10.26587 -10.26372
 Alpha  occ. eigenvalues --  -10.26304 -10.26152 -10.25693 -10.25530 -10.25462
 Alpha  occ. eigenvalues --  -10.25241 -10.25154 -10.25042 -10.24877 -10.24816
 Alpha  occ. eigenvalues --  -10.24801 -10.24761 -10.24759 -10.24745 -10.24687
 Alpha  occ. eigenvalues --  -10.24441 -10.24235 -10.24185 -10.24178 -10.24103
 Alpha  occ. eigenvalues --  -10.23744  -3.17961  -1.92866  -1.92434  -1.92239
 Alpha  occ. eigenvalues --   -1.16440  -1.16175  -1.08447  -1.08082  -1.07492
 Alpha  occ. eigenvalues --   -1.07335  -1.06220  -1.05365  -1.03890  -1.02792
 Alpha  occ. eigenvalues --   -0.93560  -0.90090  -0.89834  -0.89549  -0.89319
 Alpha  occ. eigenvalues --   -0.89200  -0.88117  -0.88037  -0.86833  -0.86702
 Alpha  occ. eigenvalues --   -0.86251  -0.85540  -0.84500  -0.84215  -0.83673
 Alpha  occ. eigenvalues --   -0.82553  -0.82253  -0.81419  -0.81093  -0.80672
 Alpha  occ. eigenvalues --   -0.79621  -0.78387  -0.77676  -0.77390  -0.76139
 Alpha  occ. eigenvalues --   -0.75633  -0.75444  -0.75085  -0.75036  -0.73558
 Alpha  occ. eigenvalues --   -0.73085  -0.73008  -0.72416  -0.70576  -0.69490
 Alpha  occ. eigenvalues --   -0.68763  -0.68387  -0.68153  -0.66629  -0.66320
 Alpha  occ. eigenvalues --   -0.65864  -0.65698  -0.65151  -0.64809  -0.63634
 Alpha  occ. eigenvalues --   -0.62977  -0.62164  -0.62064  -0.61915  -0.60517
 Alpha  occ. eigenvalues --   -0.59870  -0.59572  -0.59352  -0.58812  -0.58440
 Alpha  occ. eigenvalues --   -0.58055  -0.57690  -0.56772  -0.56446  -0.55905
 Alpha  occ. eigenvalues --   -0.55348  -0.55045  -0.54447  -0.54246  -0.54073
 Alpha  occ. eigenvalues --   -0.53843  -0.53518  -0.53330  -0.52883  -0.52712
 Alpha  occ. eigenvalues --   -0.52625  -0.52158  -0.52033  -0.51892  -0.51734
 Alpha  occ. eigenvalues --   -0.51458  -0.51312  -0.51109  -0.51083  -0.50838
 Alpha  occ. eigenvalues --   -0.50644  -0.50333  -0.50033  -0.49803  -0.49734
 Alpha  occ. eigenvalues --   -0.49295  -0.49022  -0.48883  -0.48795  -0.48677
 Alpha  occ. eigenvalues --   -0.48495  -0.48331  -0.48057  -0.47657  -0.47532
 Alpha  occ. eigenvalues --   -0.47491  -0.47321  -0.47222  -0.46892  -0.46811
 Alpha  occ. eigenvalues --   -0.46609  -0.46453  -0.46294  -0.46039  -0.45883
 Alpha  occ. eigenvalues --   -0.45637  -0.45410  -0.45207  -0.45176  -0.45125
 Alpha  occ. eigenvalues --   -0.44771  -0.44508  -0.44263  -0.44151  -0.43852
 Alpha  occ. eigenvalues --   -0.43779  -0.43650  -0.43487  -0.43440  -0.43297
 Alpha  occ. eigenvalues --   -0.42965  -0.42699  -0.42518  -0.42259  -0.41551
 Alpha  occ. eigenvalues --   -0.41518  -0.41329  -0.41219  -0.41041  -0.40943
 Alpha  occ. eigenvalues --   -0.40748  -0.40507  -0.40483  -0.40298  -0.40196
 Alpha  occ. eigenvalues --   -0.40030  -0.39752  -0.39044  -0.38946  -0.38551
 Alpha  occ. eigenvalues --   -0.38078  -0.37757  -0.37475  -0.37158  -0.37079
 Alpha  occ. eigenvalues --   -0.36928  -0.36824  -0.36720  -0.36148  -0.35991
 Alpha  occ. eigenvalues --   -0.35928  -0.35630  -0.35614  -0.34437  -0.34303
 Alpha  occ. eigenvalues --   -0.34146  -0.33643  -0.32683  -0.31562  -0.30749
 Alpha  occ. eigenvalues --   -0.30635  -0.30306  -0.29934  -0.29417  -0.24749
 Alpha  occ. eigenvalues --   -0.21390
 Alpha virt. eigenvalues --   -0.08772  -0.02672  -0.00397   0.01668   0.02532
 Alpha virt. eigenvalues --    0.04744   0.05039   0.05349   0.05702   0.06199
 Alpha virt. eigenvalues --    0.07576   0.08237   0.08708   0.08904   0.09204

 Mulliken charges:
               1
     1  Mg   0.813273
     2  C    0.029191
     3  C   -0.067067
     4  C   -0.098686
     5  C   -0.065800
     6  N   -0.161177
     7  C   -0.168013
     8  C   -0.010809
     9  C   -0.038888
    10  C    0.018385
    11  C    0.068233
    12  C    0.087488
    13  C    0.036796
    14  C    0.183344
    15  O   -0.218209
    16  O   -0.337007
    17  N   -0.380762
    18  C    0.137796
    19  C   -0.170348
    20  C    0.020944
    21  C    0.196910
    22  C    0.144179
    23  C   -0.012159
    24  O   -0.253834
    25  C    0.049764
    26  N   -0.343888
    27  C    0.014745
    28  C    0.004010
    29  C    0.006199
    30  C    0.103748
    31  C    0.037562
    32  C   -0.012528
    33  C   -0.000081
    34  N   -0.355621
    35  C    0.057154
    36  C   -0.179777
    37  C   -0.019728
    38  C    0.156093
    39  C    0.132598
    40  C    0.034647
    41  O   -0.199200
    42  C    0.016699
    43  C    0.161584
    44  O   -0.206959
    45  O   -0.333147
    46  C    0.177340
    47  C    0.268915
    48  C   -0.140359
    49  C   -0.150230
    50  C    0.075126
    51  C    0.058990
    52  C    0.015176
    53  C    0.071917
    54  C   -0.173370
    55  C    0.065643
    56  C    0.056193
    57  C    0.038334
    58  C   -0.035838
    59  C   -0.141547
    60  C    0.098550
    61  C    0.047231
    62  C    0.008217
    63  C    0.061219
    64  C   -0.177608
    65  C    0.023688
    66  C    0.061132
    67  H   -0.003896
    68  H   -0.051744
    69  H   -0.030083
    70  H    0.008082
    71  H    0.015868
    72  H    0.010028
    73  H    0.004779
    74  H    0.026618
    75  H    0.035544
    76  H    0.000316
    77  H    0.009652
    78  H    0.040215
    79  H   -0.014946
    80  H    0.037558
    81  H    0.041176
    82  H    0.023853
    83  H    0.028669
    84  H    0.046043
    85  H    0.028577
    86  H    0.016733
    87  H    0.009033
    88  H    0.037613
    89  H    0.016035
    90  H    0.025439
    91  H   -0.008822
    92  H    0.011226
    93  H    0.027661
    94  H    0.014534
    95  H    0.047244
    96  H    0.046976
    97  H    0.028978
    98  H    0.026661
    99  H    0.027386
   100  H    0.029051
   101  H    0.059503
   102  H    0.018002
   103  H    0.035024
   104  H   -0.001896
   105  H    0.000498
   106  H    0.036708
   107  H    0.019983
   108  H    0.010294
   109  H   -0.018038
   110  H    0.014681
   111  H    0.016007
   112  H   -0.005708
   113  H    0.005443
   114  H   -0.015656
   115  H    0.009099
   116  H    0.009438
   117  H   -0.003872
   118  H    0.003901
   119  H   -0.013918
   120  H   -0.016709
   121  H    0.001723
   122  H    0.008010
   123  H    0.011743
   124  H   -0.015725
   125  H    0.003898
   126  H    0.012283
   127  H   -0.006648
   128  H   -0.008037
   129  H    0.002580
   130  H   -0.004671
   131  H   -0.005556
   132  H    0.001964
   133  H   -0.004680
   134  H   -0.007506
   135  H    0.002423
   136  H    0.020585
   137  H    0.009420
   138  H    0.008812
   139  H    0.002116
   140  H    0.006051
 Sum of Mulliken charges =  -0.00000

 Dipole moment (field-independent basis, Debye):
    X=              0.5757    Y=              3.0185    Z=              1.9988  Tot=              3.6658
 Quadrupole moment (field-independent basis, Debye-Ang):
   XX=           -393.7001   YY=           -405.7488   ZZ=           -404.4735
   XY=            -69.4203   XZ=             -4.8169   YZ=            -35.5793

 Normal termination of Gaussian 16 at Thu May  5 03:55:26 2022.
