 Gaussian 16, Revision A.03,
 Gaussian 16:  ES64L-G16RevA.03 25-Dec-2016

 ---------------------------------
 #p PBE1PBE/Def2SVP td=(nstates=5)
 ---------------------------------

 -----------------------------------------------------
 step_601_chromophore_11 TDDFT with PBE1PBE functional
 -----------------------------------------------------
 Symbolic Z-matrix:
 Charge =  0 Multiplicity = 1

                         Standard orientation:
 ---------------------------------------------------------------------
 Center     Atomic      Atomic             Coordinates (Angstroms)
 Number     Number       Type             X           Y           Z
 ---------------------------------------------------------------------
      1         12           0       -4.861804    1.449294    0.430716
      2          6           0       -5.128750   -2.143110    0.242718
      3          6           0       -2.121551    0.886790    2.539640
      4          6           0       -4.204941    4.627117    0.242538
      5          6           0       -7.796466    1.740214   -1.278779
      6          7           0       -3.649344   -0.513872    1.094238
      7          6           0       -4.022272   -1.754751    1.008577
      8          6           0       -3.237268   -2.702023    1.944976
      9          6           0       -2.407291   -1.624408    2.744601
     10          6           0       -2.762426   -0.314541    2.079389
     11          6           0       -2.743946   -1.724274    4.275180
     12          6           0       -2.324807   -3.791658    1.246191
     13          6           0       -1.883734   -3.373288   -0.103413
     14          6           0       -0.840307   -4.314651   -0.779987
     15          8           0       -1.159894   -5.313383   -1.369709
     16          8           0        0.481259   -3.928876   -0.599667
     17          7           0       -3.307032    2.634338    1.223854
     18          6           0       -2.422260    2.240480    2.170695
     19          6           0       -1.572691    3.418857    2.392801
     20          6           0       -2.108546    4.548556    1.721544
     21          6           0       -3.336490    3.991154    1.118373
     22          6           0       -0.304102    3.377251    3.132303
     23          6           0       -1.414550    5.823790    1.559584
     24          8           0       -0.398307    6.075354    2.275988
     25          6           0       -1.904090    6.955459    0.653901
     26          7           0       -5.780589    2.978110   -0.484148
     27          6           0       -5.300162    4.212540   -0.529392
     28          6           0       -6.156015    5.123843   -1.378089
     29          6           0       -7.395849    4.254068   -1.641769
     30          6           0       -6.986101    2.859667   -1.140911
     31          6           0       -6.491662    6.469807   -0.638490
     32          6           0       -7.936382    4.174187   -3.142705
     33          6           0       -9.354940    4.746208   -3.411787
     34          7           0       -6.241600    0.079430   -0.392317
     35          6           0       -7.443684    0.391558   -0.985893
     36          6           0       -8.160294   -0.907262   -1.218605
     37          6           0       -7.248228   -1.890692   -0.699519
     38          6           0       -6.050758   -1.261510   -0.277200
     39          6           0       -9.547037   -1.049312   -1.854322
     40          6           0       -7.130536   -3.305939   -0.535194
     41          8           0       -7.885805   -4.254357   -0.826258
     42          6           0       -5.743162   -3.524179    0.070772
     43          6           0       -5.141593   -4.427108   -0.873262
     44          8           0       -5.045544   -4.234698   -2.069461
     45          8           0       -4.580391   -5.449162   -0.171361
     46          6           0       -4.112354   -6.562184   -0.992334
     47          6           0        1.466770   -4.908727   -1.087463
     48          6           0        2.884070   -4.281270   -0.855895
     49          6           0        3.666831   -4.282072    0.247134
     50          6           0        3.204033   -4.891312    1.610370
     51          6           0        5.069340   -3.717663    0.160401
     52          6           0        5.163658   -2.254828    0.649644
     53          6           0        5.929266   -1.315128   -0.384230
     54          6           0        7.054786   -0.464342    0.283487
     55          6           0        6.813238    1.039880    0.227200
     56          6           0        8.501087   -0.802905   -0.232545
     57          6           0        9.641938   -0.715833    0.759997
     58          6           0       10.727651    0.219183    0.037308
     59          6           0       12.128484    0.242735    0.729103
     60          6           0       12.132122    0.149642    2.222980
     61          6           0       12.888321    1.476439    0.079608
     62          6           0       14.329732    1.102178   -0.238293
     63          6           0       14.629625    1.116958   -1.776283
     64          6           0       15.828632    2.029584   -2.175736
     65          6           0       15.601246    3.630146   -2.003813
     66          6           0       16.510751    1.660979   -3.496368
     67          1           0       -1.479964    0.811501    3.420756
     68          1           0       -4.116870    5.712771    0.166299
     69          1           0       -8.768537    1.740157   -1.775442
     70          1           0       -4.011797   -3.133430    2.579570
     71          1           0       -1.372358   -1.869844    2.506515
     72          1           0       -3.792499   -1.676916    4.569599
     73          1           0       -2.322564   -0.797818    4.665255
     74          1           0       -2.439148   -2.651864    4.759968
     75          1           0       -2.794033   -4.775168    1.216052
     76          1           0       -1.380941   -3.758974    1.789641
     77          1           0       -1.550176   -2.336981   -0.045190
     78          1           0       -2.727882   -3.277346   -0.786672
     79          1           0       -0.377314    2.568114    3.859375
     80          1           0       -0.205813    4.272583    3.746199
     81          1           0        0.591901    3.232922    2.527756
     82          1           0       -2.036964    6.597538   -0.366583
     83          1           0       -1.193508    7.781595    0.621800
     84          1           0       -2.881217    7.358671    0.918354
     85          1           0       -5.548552    5.414798   -2.234916
     86          1           0       -8.266506    4.543288   -1.053286
     87          1           0       -5.905549    7.181379   -1.219484
     88          1           0       -6.244812    6.548409    0.420767
     89          1           0       -7.514546    6.822648   -0.771720
     90          1           0       -7.773129    3.265812   -3.723786
     91          1           0       -7.381396    4.957916   -3.658021
     92          1           0       -9.568577    5.558569   -2.717518
     93          1           0       -9.987201    3.857413   -3.400026
     94          1           0       -9.332189    5.254405   -4.375026
     95          1           0       -9.865664   -1.990921   -1.408158
     96          1           0       -9.370343   -1.171415   -2.922722
     97          1           0      -10.055097   -0.133725   -1.550552
     98          1           0       -5.835225   -4.140137    0.966000
     99          1           0       -5.006489   -7.110702   -1.290158
    100          1           0       -3.500001   -7.333799   -0.527179
    101          1           0       -3.533535   -6.194273   -1.839303
    102          1           0        1.442639   -4.972011   -2.175448
    103          1           0        1.452153   -5.910410   -0.659027
    104          1           0        3.285324   -4.031557   -1.838410
    105          1           0        2.371221   -5.583008    1.481251
    106          1           0        2.835172   -4.214500    2.381640
    107          1           0        4.057214   -5.506174    1.894875
    108          1           0        5.530568   -3.989501   -0.788763
    109          1           0        5.743750   -4.174810    0.884757
    110          1           0        5.617324   -2.355688    1.635344
    111          1           0        4.115341   -1.959781    0.669094
    112          1           0        5.137643   -0.622946   -0.672892
    113          1           0        6.350633   -1.764618   -1.283315
    114          1           0        7.031726   -0.651422    1.356804
    115          1           0        7.672545    1.560858   -0.194433
    116          1           0        6.553901    1.389582    1.226972
    117          1           0        5.940798    1.180910   -0.411860
    118          1           0        8.614900   -0.129987   -1.082567
    119          1           0        8.514725   -1.845950   -0.547031
    120          1           0       10.155187   -1.673450    0.843855
    121          1           0        9.300565   -0.515373    1.775320
    122          1           0       10.391355    1.256676    0.004143
    123          1           0       10.852481   -0.182205   -0.968071
    124          1           0       12.524376   -0.720516    0.408203
    125          1           0       12.077541   -0.907739    2.479530
    126          1           0       11.420594    0.797314    2.734258
    127          1           0       13.144033    0.446161    2.498551
    128          1           0       12.933805    2.312093    0.777713
    129          1           0       12.323991    1.819895   -0.786730
    130          1           0       14.527216    0.084321    0.097037
    131          1           0       15.025998    1.714787    0.335446
    132          1           0       13.730650    1.489933   -2.266606
    133          1           0       14.878615    0.082307   -2.014119
    134          1           0       16.618993    1.874650   -1.442040
    135          1           0       14.749711    3.787939   -1.341687
    136          1           0       15.492933    4.117914   -2.972953
    137          1           0       16.437284    4.018136   -1.423214
    138          1           0       16.889912    2.585051   -3.931621
    139          1           0       15.809967    1.130576   -4.141295
    140          1           0       17.278753    0.912980   -3.299529
 ---------------------------------------------------------------------

 SCF Done:  E(RPBE1PBE) =  -3005.31870775     A.U. after   15 cycles

 Excitation energies and oscillator strengths:

 Excited State   1:      Singlet-A      1.8857 eV  657.51 nm  f=0.3664  <S**2>=0.000
     245 -> 248       -0.18196
     246 -> 247        0.68969
     246 <- 247       -0.10247
 This state for optimization and/or second-order correction.
 Total Energy, E(TD-HF/TD-DFT) =  -3005.24941048
 Copying the excited state density for this state as the 1-particle RhoCI density.

 Excited State   2:      Singlet-A      2.2965 eV  539.88 nm  f=0.0642  <S**2>=0.000
     245 -> 247        0.62506
     246 -> 248        0.31519

 Excited State   3:      Singlet-A      2.8939 eV  428.43 nm  f=0.0036  <S**2>=0.000
     240 -> 247       -0.28629
     242 -> 247        0.28003
     243 -> 247       -0.13976
     244 -> 247        0.52150

 Excited State   4:      Singlet-A      2.9191 eV  424.74 nm  f=0.0003  <S**2>=0.000
     240 -> 247        0.11468
     242 -> 247        0.27020
     242 -> 249       -0.12860
     243 -> 247        0.57238
     243 -> 249       -0.15961

 Excited State   5:      Singlet-A      3.0362 eV  408.36 nm  f=0.0001  <S**2>=0.000
     240 -> 247       -0.13837
     242 -> 247        0.49831
     243 -> 247       -0.19091
     244 -> 247       -0.41828

 The electronic state is 1-A.
 Alpha  occ. eigenvalues --  -46.92756 -19.25550 -19.25498 -19.20349 -19.19172
 Alpha  occ. eigenvalues --  -19.18588 -19.18441 -14.41980 -14.41923 -14.39827
 Alpha  occ. eigenvalues --  -14.39234 -10.36340 -10.35326 -10.32332 -10.31332
 Alpha  occ. eigenvalues --  -10.29391 -10.29374 -10.29257 -10.29197 -10.28672
 Alpha  occ. eigenvalues --  -10.28578 -10.28199 -10.28113 -10.27258 -10.26764
 Alpha  occ. eigenvalues --  -10.26710 -10.26693 -10.26425 -10.26015 -10.25994
 Alpha  occ. eigenvalues --  -10.25981 -10.25955 -10.25873 -10.25351 -10.25263
 Alpha  occ. eigenvalues --  -10.24722 -10.24604 -10.24560 -10.24504 -10.24496
 Alpha  occ. eigenvalues --  -10.24467 -10.24320 -10.24244 -10.24085 -10.23684
 Alpha  occ. eigenvalues --  -10.23625 -10.23614 -10.23267 -10.23140 -10.23120
 Alpha  occ. eigenvalues --  -10.22944 -10.22810 -10.22651 -10.22566 -10.22478
 Alpha  occ. eigenvalues --  -10.22387 -10.22312 -10.22290 -10.22183 -10.22085
 Alpha  occ. eigenvalues --  -10.22019 -10.21779 -10.21759 -10.21534 -10.21467
 Alpha  occ. eigenvalues --  -10.21127  -3.14893  -1.87740  -1.87286  -1.87093
 Alpha  occ. eigenvalues --   -1.11195  -1.10945  -1.03203  -1.02930  -1.02145
 Alpha  occ. eigenvalues --   -1.02142  -1.00831  -0.99979  -0.98514  -0.97523
 Alpha  occ. eigenvalues --   -0.87963  -0.84274  -0.83965  -0.83847  -0.83500
 Alpha  occ. eigenvalues --   -0.83413  -0.82383  -0.82187  -0.81080  -0.80793
 Alpha  occ. eigenvalues --   -0.80570  -0.79823  -0.78806  -0.78441  -0.77881
 Alpha  occ. eigenvalues --   -0.76787  -0.76419  -0.75775  -0.75309  -0.74850
 Alpha  occ. eigenvalues --   -0.73808  -0.72720  -0.71951  -0.71619  -0.70447
 Alpha  occ. eigenvalues --   -0.69981  -0.69618  -0.69195  -0.69113  -0.67732
 Alpha  occ. eigenvalues --   -0.67512  -0.67372  -0.66816  -0.64863  -0.63885
 Alpha  occ. eigenvalues --   -0.63227  -0.62662  -0.62533  -0.61088  -0.60684
 Alpha  occ. eigenvalues --   -0.60311  -0.60119  -0.59661  -0.59038  -0.58116
 Alpha  occ. eigenvalues --   -0.57104  -0.56639  -0.56338  -0.56107  -0.55053
 Alpha  occ. eigenvalues --   -0.54522  -0.54133  -0.53737  -0.53289  -0.52908
 Alpha  occ. eigenvalues --   -0.52595  -0.52116  -0.51294  -0.50931  -0.50331
 Alpha  occ. eigenvalues --   -0.49873  -0.49601  -0.49074  -0.48728  -0.48493
 Alpha  occ. eigenvalues --   -0.48410  -0.48081  -0.47806  -0.47551  -0.47325
 Alpha  occ. eigenvalues --   -0.47059  -0.46675  -0.46480  -0.46318  -0.46167
 Alpha  occ. eigenvalues --   -0.45923  -0.45824  -0.45666  -0.45612  -0.45442
 Alpha  occ. eigenvalues --   -0.45276  -0.44841  -0.44623  -0.44430  -0.44282
 Alpha  occ. eigenvalues --   -0.43785  -0.43639  -0.43532  -0.43334  -0.43293
 Alpha  occ. eigenvalues --   -0.43111  -0.42929  -0.42732  -0.42304  -0.42163
 Alpha  occ. eigenvalues --   -0.42131  -0.42059  -0.41869  -0.41549  -0.41460
 Alpha  occ. eigenvalues --   -0.41291  -0.41130  -0.40977  -0.40684  -0.40535
 Alpha  occ. eigenvalues --   -0.40432  -0.40155  -0.39975  -0.39854  -0.39701
 Alpha  occ. eigenvalues --   -0.39525  -0.39173  -0.39125  -0.38876  -0.38604
 Alpha  occ. eigenvalues --   -0.38449  -0.38348  -0.38269  -0.38140  -0.38093
 Alpha  occ. eigenvalues --   -0.37680  -0.37571  -0.37373  -0.37041  -0.36373
 Alpha  occ. eigenvalues --   -0.36278  -0.36070  -0.35999  -0.35864  -0.35805
 Alpha  occ. eigenvalues --   -0.35509  -0.35405  -0.35272  -0.35247  -0.35076
 Alpha  occ. eigenvalues --   -0.34823  -0.34602  -0.33866  -0.33843  -0.33489
 Alpha  occ. eigenvalues --   -0.32910  -0.32583  -0.32539  -0.32166  -0.32072
 Alpha  occ. eigenvalues --   -0.31757  -0.31708  -0.31520  -0.30979  -0.30892
 Alpha  occ. eigenvalues --   -0.30859  -0.30480  -0.30404  -0.29816  -0.29430
 Alpha  occ. eigenvalues --   -0.29034  -0.28663  -0.27710  -0.27104  -0.25705
 Alpha  occ. eigenvalues --   -0.25599  -0.25521  -0.25271  -0.25025  -0.21643
 Alpha  occ. eigenvalues --   -0.19063
 Alpha virt. eigenvalues --   -0.11309  -0.06101  -0.04567  -0.02672  -0.00273
 Alpha virt. eigenvalues --    0.00266   0.00709   0.00972   0.01503   0.02146
 Alpha virt. eigenvalues --    0.03550   0.04564   0.04828   0.05641   0.05885

 Mulliken charges:
               1
     1  Mg   0.960623
     2  C    0.021797
     3  C   -0.055515
     4  C   -0.102523
     5  C   -0.060162
     6  N   -0.269232
     7  C   -0.086887
     8  C   -0.071498
     9  C   -0.125357
    10  C    0.055289
    11  C    0.010075
    12  C    0.028883
    13  C   -0.043345
    14  C    0.250077
    15  O   -0.250595
    16  O   -0.366194
    17  N   -0.486381
    18  C    0.164904
    19  C   -0.201484
    20  C   -0.021103
    21  C    0.219584
    22  C    0.082345
    23  C    0.032684
    24  O   -0.286310
    25  C   -0.022295
    26  N   -0.458427
    27  C    0.065822
    28  C   -0.081032
    29  C   -0.068286
    30  C    0.138654
    31  C   -0.019727
    32  C   -0.074351
    33  C   -0.072272
    34  N   -0.484044
    35  C    0.088989
    36  C   -0.188755
    37  C   -0.074894
    38  C    0.213534
    39  C    0.073508
    40  C    0.126492
    41  O   -0.244894
    42  C   -0.101424
    43  C    0.261725
    44  O   -0.242651
    45  O   -0.367194
    46  C    0.121028
    47  C    0.223272
    48  C   -0.141196
    49  C   -0.205673
    50  C    0.015201
    51  C    0.001776
    52  C   -0.046805
    53  C    0.015744
    54  C   -0.252170
    55  C    0.006861
    56  C   -0.003935
    57  C   -0.020631
    58  C   -0.094504
    59  C   -0.223410
    60  C    0.034980
    61  C   -0.009273
    62  C   -0.051899
    63  C    0.000468
    64  C   -0.262992
    65  C   -0.039911
    66  C   -0.002319
    67  H    0.024976
    68  H   -0.014041
    69  H    0.004042
    70  H    0.045829
    71  H    0.052713
    72  H    0.037622
    73  H    0.034310
    74  H    0.054067
    75  H    0.068272
    76  H    0.036191
    77  H    0.045025
    78  H    0.077980
    79  H    0.014454
    80  H    0.064980
    81  H    0.068532
    82  H    0.050761
    83  H    0.056184
    84  H    0.070698
    85  H    0.063812
    86  H    0.053955
    87  H    0.036934
    88  H    0.064003
    89  H    0.044084
    90  H    0.056373
    91  H    0.026866
    92  H    0.038821
    93  H    0.055345
    94  H    0.042790
    95  H    0.075758
    96  H    0.075623
    97  H    0.055491
    98  H    0.063616
    99  H    0.050404
   100  H    0.050741
   101  H    0.081397
   102  H    0.045169
   103  H    0.060160
   104  H    0.026799
   105  H    0.028228
   106  H    0.062437
   107  H    0.047122
   108  H    0.040327
   109  H    0.016182
   110  H    0.044366
   111  H    0.050445
   112  H    0.028002
   113  H    0.035583
   114  H    0.023432
   115  H    0.036423
   116  H    0.036673
   117  H    0.023733
   118  H    0.036025
   119  H    0.020038
   120  H    0.017890
   121  H    0.031378
   122  H    0.042517
   123  H    0.045373
   124  H    0.022751
   125  H    0.031636
   126  H    0.039559
   127  H    0.023557
   128  H    0.025122
   129  H    0.033166
   130  H    0.027941
   131  H    0.025648
   132  H    0.034886
   133  H    0.028349
   134  H    0.031790
   135  H    0.031774
   136  H    0.047145
   137  H    0.036826
   138  H    0.036107
   139  H    0.030267
   140  H    0.033802
 Sum of Mulliken charges =  -0.00000

 Dipole moment (field-independent basis, Debye):
    X=              0.4598    Y=              2.9743    Z=              1.9255  Tot=              3.5729
 Quadrupole moment (field-independent basis, Debye-Ang):
   XX=           -387.5861   YY=           -402.4780   ZZ=           -401.3243
   XY=            -70.3696   XZ=             -3.2640   YZ=            -36.5530

 Normal termination of Gaussian 16 at Thu May  5 04:19:09 2022.
