 Gaussian 16, Revision A.03,
 Gaussian 16:  ES64L-G16RevA.03 25-Dec-2016

 --------------------------------
 #p wB97XD/Def2SVP td=(nstates=5)
 --------------------------------

 ----------------------------------------------------
 step_601_chromophore_11 TDDFT with wB97XD functional
 ----------------------------------------------------
 Symbolic Z-matrix:
 Charge =  0 Multiplicity = 1

                         Standard orientation:
 ---------------------------------------------------------------------
 Center     Atomic      Atomic             Coordinates (Angstroms)
 Number     Number       Type             X           Y           Z
 ---------------------------------------------------------------------
      1         12           0       -4.861804    1.449294    0.430716
      2          6           0       -5.128750   -2.143110    0.242718
      3          6           0       -2.121551    0.886790    2.539640
      4          6           0       -4.204941    4.627117    0.242538
      5          6           0       -7.796466    1.740214   -1.278779
      6          7           0       -3.649344   -0.513872    1.094238
      7          6           0       -4.022272   -1.754751    1.008577
      8          6           0       -3.237268   -2.702023    1.944976
      9          6           0       -2.407291   -1.624408    2.744601
     10          6           0       -2.762426   -0.314541    2.079389
     11          6           0       -2.743946   -1.724274    4.275180
     12          6           0       -2.324807   -3.791658    1.246191
     13          6           0       -1.883734   -3.373288   -0.103413
     14          6           0       -0.840307   -4.314651   -0.779987
     15          8           0       -1.159894   -5.313383   -1.369709
     16          8           0        0.481259   -3.928876   -0.599667
     17          7           0       -3.307032    2.634338    1.223854
     18          6           0       -2.422260    2.240480    2.170695
     19          6           0       -1.572691    3.418857    2.392801
     20          6           0       -2.108546    4.548556    1.721544
     21          6           0       -3.336490    3.991154    1.118373
     22          6           0       -0.304102    3.377251    3.132303
     23          6           0       -1.414550    5.823790    1.559584
     24          8           0       -0.398307    6.075354    2.275988
     25          6           0       -1.904090    6.955459    0.653901
     26          7           0       -5.780589    2.978110   -0.484148
     27          6           0       -5.300162    4.212540   -0.529392
     28          6           0       -6.156015    5.123843   -1.378089
     29          6           0       -7.395849    4.254068   -1.641769
     30          6           0       -6.986101    2.859667   -1.140911
     31          6           0       -6.491662    6.469807   -0.638490
     32          6           0       -7.936382    4.174187   -3.142705
     33          6           0       -9.354940    4.746208   -3.411787
     34          7           0       -6.241600    0.079430   -0.392317
     35          6           0       -7.443684    0.391558   -0.985893
     36          6           0       -8.160294   -0.907262   -1.218605
     37          6           0       -7.248228   -1.890692   -0.699519
     38          6           0       -6.050758   -1.261510   -0.277200
     39          6           0       -9.547037   -1.049312   -1.854322
     40          6           0       -7.130536   -3.305939   -0.535194
     41          8           0       -7.885805   -4.254357   -0.826258
     42          6           0       -5.743162   -3.524179    0.070772
     43          6           0       -5.141593   -4.427108   -0.873262
     44          8           0       -5.045544   -4.234698   -2.069461
     45          8           0       -4.580391   -5.449162   -0.171361
     46          6           0       -4.112354   -6.562184   -0.992334
     47          6           0        1.466770   -4.908727   -1.087463
     48          6           0        2.884070   -4.281270   -0.855895
     49          6           0        3.666831   -4.282072    0.247134
     50          6           0        3.204033   -4.891312    1.610370
     51          6           0        5.069340   -3.717663    0.160401
     52          6           0        5.163658   -2.254828    0.649644
     53          6           0        5.929266   -1.315128   -0.384230
     54          6           0        7.054786   -0.464342    0.283487
     55          6           0        6.813238    1.039880    0.227200
     56          6           0        8.501087   -0.802905   -0.232545
     57          6           0        9.641938   -0.715833    0.759997
     58          6           0       10.727651    0.219183    0.037308
     59          6           0       12.128484    0.242735    0.729103
     60          6           0       12.132122    0.149642    2.222980
     61          6           0       12.888321    1.476439    0.079608
     62          6           0       14.329732    1.102178   -0.238293
     63          6           0       14.629625    1.116958   -1.776283
     64          6           0       15.828632    2.029584   -2.175736
     65          6           0       15.601246    3.630146   -2.003813
     66          6           0       16.510751    1.660979   -3.496368
     67          1           0       -1.479964    0.811501    3.420756
     68          1           0       -4.116870    5.712771    0.166299
     69          1           0       -8.768537    1.740157   -1.775442
     70          1           0       -4.011797   -3.133430    2.579570
     71          1           0       -1.372358   -1.869844    2.506515
     72          1           0       -3.792499   -1.676916    4.569599
     73          1           0       -2.322564   -0.797818    4.665255
     74          1           0       -2.439148   -2.651864    4.759968
     75          1           0       -2.794033   -4.775168    1.216052
     76          1           0       -1.380941   -3.758974    1.789641
     77          1           0       -1.550176   -2.336981   -0.045190
     78          1           0       -2.727882   -3.277346   -0.786672
     79          1           0       -0.377314    2.568114    3.859375
     80          1           0       -0.205813    4.272583    3.746199
     81          1           0        0.591901    3.232922    2.527756
     82          1           0       -2.036964    6.597538   -0.366583
     83          1           0       -1.193508    7.781595    0.621800
     84          1           0       -2.881217    7.358671    0.918354
     85          1           0       -5.548552    5.414798   -2.234916
     86          1           0       -8.266506    4.543288   -1.053286
     87          1           0       -5.905549    7.181379   -1.219484
     88          1           0       -6.244812    6.548409    0.420767
     89          1           0       -7.514546    6.822648   -0.771720
     90          1           0       -7.773129    3.265812   -3.723786
     91          1           0       -7.381396    4.957916   -3.658021
     92          1           0       -9.568577    5.558569   -2.717518
     93          1           0       -9.987201    3.857413   -3.400026
     94          1           0       -9.332189    5.254405   -4.375026
     95          1           0       -9.865664   -1.990921   -1.408158
     96          1           0       -9.370343   -1.171415   -2.922722
     97          1           0      -10.055097   -0.133725   -1.550552
     98          1           0       -5.835225   -4.140137    0.966000
     99          1           0       -5.006489   -7.110702   -1.290158
    100          1           0       -3.500001   -7.333799   -0.527179
    101          1           0       -3.533535   -6.194273   -1.839303
    102          1           0        1.442639   -4.972011   -2.175448
    103          1           0        1.452153   -5.910410   -0.659027
    104          1           0        3.285324   -4.031557   -1.838410
    105          1           0        2.371221   -5.583008    1.481251
    106          1           0        2.835172   -4.214500    2.381640
    107          1           0        4.057214   -5.506174    1.894875
    108          1           0        5.530568   -3.989501   -0.788763
    109          1           0        5.743750   -4.174810    0.884757
    110          1           0        5.617324   -2.355688    1.635344
    111          1           0        4.115341   -1.959781    0.669094
    112          1           0        5.137643   -0.622946   -0.672892
    113          1           0        6.350633   -1.764618   -1.283315
    114          1           0        7.031726   -0.651422    1.356804
    115          1           0        7.672545    1.560858   -0.194433
    116          1           0        6.553901    1.389582    1.226972
    117          1           0        5.940798    1.180910   -0.411860
    118          1           0        8.614900   -0.129987   -1.082567
    119          1           0        8.514725   -1.845950   -0.547031
    120          1           0       10.155187   -1.673450    0.843855
    121          1           0        9.300565   -0.515373    1.775320
    122          1           0       10.391355    1.256676    0.004143
    123          1           0       10.852481   -0.182205   -0.968071
    124          1           0       12.524376   -0.720516    0.408203
    125          1           0       12.077541   -0.907739    2.479530
    126          1           0       11.420594    0.797314    2.734258
    127          1           0       13.144033    0.446161    2.498551
    128          1           0       12.933805    2.312093    0.777713
    129          1           0       12.323991    1.819895   -0.786730
    130          1           0       14.527216    0.084321    0.097037
    131          1           0       15.025998    1.714787    0.335446
    132          1           0       13.730650    1.489933   -2.266606
    133          1           0       14.878615    0.082307   -2.014119
    134          1           0       16.618993    1.874650   -1.442040
    135          1           0       14.749711    3.787939   -1.341687
    136          1           0       15.492933    4.117914   -2.972953
    137          1           0       16.437284    4.018136   -1.423214
    138          1           0       16.889912    2.585051   -3.931621
    139          1           0       15.809967    1.130576   -4.141295
    140          1           0       17.278753    0.912980   -3.299529
 ---------------------------------------------------------------------

 SCF Done:  E(RwB97XD) =  -3007.82751185     A.U. after   18 cycles

 Excitation energies and oscillator strengths:

 Excited State   1:      Singlet-A      1.6789 eV  738.49 nm  f=0.3746  <S**2>=0.000
     245 -> 248       -0.19589
     246 -> 247        0.68062
     245 <- 248       -0.11856
 This state for optimization and/or second-order correction.
 Total Energy, E(TD-HF/TD-DFT) =  -3007.76581392
 Copying the excited state density for this state as the 1-particle RhoCI density.

 Excited State   2:      Singlet-A      2.2446 eV  552.36 nm  f=0.0560  <S**2>=0.000
     245 -> 247        0.60465
     246 -> 248        0.35287

 Excited State   3:      Singlet-A      3.3611 eV  368.87 nm  f=0.0459  <S**2>=0.000
     240 -> 247        0.33200
     240 -> 248        0.14437
     240 -> 249       -0.33311
     240 -> 250       -0.19972
     241 -> 247       -0.14588
     243 -> 247        0.27600
     243 -> 249       -0.13600
     244 -> 247       -0.18111
     246 -> 248       -0.17114

 Excited State   4:      Singlet-A      3.3914 eV  365.58 nm  f=0.0016  <S**2>=0.000
     239 -> 247        0.11824
     240 -> 247        0.16336
     240 -> 249       -0.10571
     241 -> 247        0.13314
     241 -> 249        0.15310
     241 -> 250       -0.11715
     244 -> 247        0.58405
     244 -> 249        0.11364

 Excited State   5:      Singlet-A      3.4391 eV  360.52 nm  f=0.3613  <S**2>=0.000
     240 -> 247        0.19565
     241 -> 247        0.31231
     241 -> 249        0.17225
     241 -> 250       -0.11223
     244 -> 247       -0.18768
     245 -> 247       -0.23447
     246 -> 248        0.45488

 The electronic state is 1-A.
 Alpha  occ. eigenvalues --  -46.95745 -19.30122 -19.30063 -19.25034 -19.23883
 Alpha  occ. eigenvalues --  -19.23347 -19.23282 -14.47109 -14.47028 -14.44840
 Alpha  occ. eigenvalues --  -14.44128 -10.43126 -10.42157 -10.39226 -10.38155
 Alpha  occ. eigenvalues --  -10.35901 -10.35630 -10.35628 -10.35593 -10.35115
 Alpha  occ. eigenvalues --  -10.34887 -10.34573 -10.34381 -10.33786 -10.33013
 Alpha  occ. eigenvalues --  -10.33000 -10.32942 -10.32664 -10.32616 -10.32397
 Alpha  occ. eigenvalues --  -10.32334 -10.32244 -10.32221 -10.31673 -10.31587
 Alpha  occ. eigenvalues --  -10.31140 -10.31058 -10.30950 -10.30861 -10.30848
 Alpha  occ. eigenvalues --  -10.30755 -10.30741 -10.30711 -10.30456 -10.30246
 Alpha  occ. eigenvalues --  -10.30136 -10.29971 -10.29632 -10.29466 -10.29413
 Alpha  occ. eigenvalues --  -10.29194 -10.29170 -10.28992 -10.28849 -10.28754
 Alpha  occ. eigenvalues --  -10.28751 -10.28741 -10.28675 -10.28674 -10.28506
 Alpha  occ. eigenvalues --  -10.28373 -10.28145 -10.28121 -10.27995 -10.27897
 Alpha  occ. eigenvalues --  -10.27556  -3.21741  -1.95337  -1.94879  -1.94691
 Alpha  occ. eigenvalues --   -1.18596  -1.18323  -1.10643  -1.10273  -1.09706
 Alpha  occ. eigenvalues --   -1.09537  -1.08224  -1.07373  -1.05964  -1.04814
 Alpha  occ. eigenvalues --   -0.95549  -0.91917  -0.91626  -0.91456  -0.91097
 Alpha  occ. eigenvalues --   -0.91081  -0.90008  -0.89852  -0.88828  -0.88467
 Alpha  occ. eigenvalues --   -0.88192  -0.87440  -0.86405  -0.86083  -0.85531
 Alpha  occ. eigenvalues --   -0.84455  -0.84098  -0.83394  -0.83029  -0.82511
 Alpha  occ. eigenvalues --   -0.81474  -0.80332  -0.79587  -0.79314  -0.78066
 Alpha  occ. eigenvalues --   -0.77586  -0.77292  -0.76886  -0.76822  -0.75398
 Alpha  occ. eigenvalues --   -0.75055  -0.74948  -0.74379  -0.72499  -0.71424
 Alpha  occ. eigenvalues --   -0.70760  -0.70272  -0.70157  -0.68577  -0.68215
 Alpha  occ. eigenvalues --   -0.67764  -0.67687  -0.67145  -0.66670  -0.65601
 Alpha  occ. eigenvalues --   -0.64786  -0.64051  -0.63986  -0.63748  -0.62517
 Alpha  occ. eigenvalues --   -0.61868  -0.61552  -0.61249  -0.60759  -0.60386
 Alpha  occ. eigenvalues --   -0.60024  -0.59651  -0.58762  -0.58371  -0.57789
 Alpha  occ. eigenvalues --   -0.57273  -0.57006  -0.56396  -0.56137  -0.55947
 Alpha  occ. eigenvalues --   -0.55760  -0.55410  -0.55202  -0.54840  -0.54675
 Alpha  occ. eigenvalues --   -0.54480  -0.54077  -0.53901  -0.53820  -0.53625
 Alpha  occ. eigenvalues --   -0.53332  -0.53211  -0.53021  -0.52992  -0.52772
 Alpha  occ. eigenvalues --   -0.52580  -0.52207  -0.51936  -0.51708  -0.51628
 Alpha  occ. eigenvalues --   -0.51250  -0.50935  -0.50841  -0.50663  -0.50606
 Alpha  occ. eigenvalues --   -0.50430  -0.50239  -0.49974  -0.49556  -0.49463
 Alpha  occ. eigenvalues --   -0.49395  -0.49248  -0.49144  -0.48823  -0.48713
 Alpha  occ. eigenvalues --   -0.48543  -0.48342  -0.48216  -0.47936  -0.47820
 Alpha  occ. eigenvalues --   -0.47587  -0.47340  -0.47123  -0.47048  -0.46969
 Alpha  occ. eigenvalues --   -0.46673  -0.46372  -0.46213  -0.46089  -0.45780
 Alpha  occ. eigenvalues --   -0.45645  -0.45533  -0.45387  -0.45322  -0.45213
 Alpha  occ. eigenvalues --   -0.44824  -0.44620  -0.44417  -0.44133  -0.43454
 Alpha  occ. eigenvalues --   -0.43397  -0.43295  -0.43161  -0.43058  -0.42855
 Alpha  occ. eigenvalues --   -0.42597  -0.42387  -0.42350  -0.42213  -0.42091
 Alpha  occ. eigenvalues --   -0.41890  -0.41622  -0.40895  -0.40862  -0.40464
 Alpha  occ. eigenvalues --   -0.39930  -0.39630  -0.39586  -0.39084  -0.39006
 Alpha  occ. eigenvalues --   -0.38816  -0.38753  -0.38578  -0.37991  -0.37921
 Alpha  occ. eigenvalues --   -0.37847  -0.37487  -0.37443  -0.36589  -0.36254
 Alpha  occ. eigenvalues --   -0.36089  -0.35695  -0.34519  -0.33753  -0.32695
 Alpha  occ. eigenvalues --   -0.32626  -0.32315  -0.32118  -0.31574  -0.26679
 Alpha  occ. eigenvalues --   -0.23197
 Alpha virt. eigenvalues --   -0.07119  -0.00780   0.01661   0.03805   0.05544
 Alpha virt. eigenvalues --    0.06968   0.07518   0.07756   0.08134   0.08532
 Alpha virt. eigenvalues --    0.10201   0.11423   0.11633   0.12356   0.12669

 Mulliken charges:
               1
     1  Mg   0.952417
     2  C    0.014751
     3  C   -0.070045
     4  C   -0.109444
     5  C   -0.076875
     6  N   -0.227748
     7  C   -0.123110
     8  C   -0.050160
     9  C   -0.095595
    10  C    0.039043
    11  C    0.021517
    12  C    0.043474
    13  C   -0.017989
    14  C    0.241431
    15  O   -0.248101
    16  O   -0.365701
    17  N   -0.458426
    18  C    0.154075
    19  C   -0.187797
    20  C   -0.019265
    21  C    0.218992
    22  C    0.093692
    23  C    0.028817
    24  O   -0.282033
    25  C   -0.009847
    26  N   -0.425225
    27  C    0.048929
    28  C   -0.053941
    29  C   -0.044388
    30  C    0.128914
    31  C   -0.009487
    32  C   -0.060067
    33  C   -0.054794
    34  N   -0.444932
    35  C    0.075264
    36  C   -0.188808
    37  C   -0.068847
    38  C    0.193334
    39  C    0.087520
    40  C    0.111025
    41  O   -0.235274
    42  C   -0.058846
    43  C    0.231378
    44  O   -0.235918
    45  O   -0.362814
    46  C    0.133889
    47  C    0.236345
    48  C   -0.153789
    49  C   -0.186633
    50  C    0.029759
    51  C    0.014505
    52  C   -0.028594
    53  C    0.029928
    54  C   -0.224537
    55  C    0.019484
    56  C    0.016583
    57  C   -0.008486
    58  C   -0.072705
    59  C   -0.194288
    60  C    0.045718
    61  C    0.006486
    62  C   -0.037820
    63  C    0.016970
    64  C   -0.235397
    65  C   -0.026523
    66  C    0.009983
    67  H    0.017410
    68  H   -0.032978
    69  H   -0.003548
    70  H    0.035067
    71  H    0.041957
    72  H    0.032057
    73  H    0.025886
    74  H    0.049353
    75  H    0.059433
    76  H    0.025451
    77  H    0.035352
    78  H    0.064402
    79  H    0.008446
    80  H    0.061341
    81  H    0.065953
    82  H    0.045146
    83  H    0.055484
    84  H    0.066526
    85  H    0.055455
    86  H    0.042270
    87  H    0.030957
    88  H    0.058393
    89  H    0.038839
    90  H    0.050160
    91  H    0.016047
    92  H    0.031604
    93  H    0.048950
    94  H    0.037226
    95  H    0.071130
    96  H    0.070733
    97  H    0.049196
    98  H    0.057390
    99  H    0.046932
   100  H    0.048366
   101  H    0.076888
   102  H    0.041366
   103  H    0.055177
   104  H    0.023479
   105  H    0.021616
   106  H    0.058086
   107  H    0.040563
   108  H    0.033608
   109  H    0.007823
   110  H    0.037090
   111  H    0.039949
   112  H    0.018792
   113  H    0.027576
   114  H    0.007532
   115  H    0.028845
   116  H    0.031904
   117  H    0.016627
   118  H    0.024032
   119  H    0.011247
   120  H    0.008461
   121  H    0.023919
   122  H    0.029240
   123  H    0.035026
   124  H    0.009110
   125  H    0.025964
   126  H    0.034201
   127  H    0.016226
   128  H    0.017671
   129  H    0.022127
   130  H    0.018420
   131  H    0.017866
   132  H    0.024298
   133  H    0.021127
   134  H    0.018698
   135  H    0.023550
   136  H    0.041536
   137  H    0.031361
   138  H    0.030518
   139  H    0.023870
   140  H    0.028254
 Sum of Mulliken charges =  -0.00000

 Dipole moment (field-independent basis, Debye):
    X=              0.6233    Y=              3.0940    Z=              2.0662  Tot=              3.7724
 Quadrupole moment (field-independent basis, Debye-Ang):
   XX=           -389.4017   YY=           -401.2355   ZZ=           -401.0293
   XY=            -69.9694   XZ=             -4.1015   YZ=            -36.2150

 Normal termination of Gaussian 16 at Thu May  5 05:02:00 2022.
