 Gaussian 16, Revision A.03,
 Gaussian 16:  ES64L-G16RevA.03 25-Dec-2016

 --------------------
 #p ZINDO=(nstates=5)
 --------------------

 -----------------------------
 step_601_chromophore_11 ZINDO
 -----------------------------
 Symbolic Z-matrix:
 Charge =  0 Multiplicity = 1

                         Standard orientation:
 ---------------------------------------------------------------------
 Center     Atomic      Atomic             Coordinates (Angstroms)
 Number     Number       Type             X           Y           Z
 ---------------------------------------------------------------------
      1         12           0       -4.861804    1.449294    0.430716
      2          6           0       -5.128750   -2.143110    0.242718
      3          6           0       -2.121551    0.886790    2.539640
      4          6           0       -4.204941    4.627117    0.242538
      5          6           0       -7.796466    1.740214   -1.278779
      6          7           0       -3.649344   -0.513872    1.094238
      7          6           0       -4.022272   -1.754751    1.008577
      8          6           0       -3.237268   -2.702023    1.944976
      9          6           0       -2.407291   -1.624408    2.744601
     10          6           0       -2.762426   -0.314541    2.079389
     11          6           0       -2.743946   -1.724274    4.275180
     12          6           0       -2.324807   -3.791658    1.246191
     13          6           0       -1.883734   -3.373288   -0.103413
     14          6           0       -0.840307   -4.314651   -0.779987
     15          8           0       -1.159894   -5.313383   -1.369709
     16          8           0        0.481259   -3.928876   -0.599667
     17          7           0       -3.307032    2.634338    1.223854
     18          6           0       -2.422260    2.240480    2.170695
     19          6           0       -1.572691    3.418857    2.392801
     20          6           0       -2.108546    4.548556    1.721544
     21          6           0       -3.336490    3.991154    1.118373
     22          6           0       -0.304102    3.377251    3.132303
     23          6           0       -1.414550    5.823790    1.559584
     24          8           0       -0.398307    6.075354    2.275988
     25          6           0       -1.904090    6.955459    0.653901
     26          7           0       -5.780589    2.978110   -0.484148
     27          6           0       -5.300162    4.212540   -0.529392
     28          6           0       -6.156015    5.123843   -1.378089
     29          6           0       -7.395849    4.254068   -1.641769
     30          6           0       -6.986101    2.859667   -1.140911
     31          6           0       -6.491662    6.469807   -0.638490
     32          6           0       -7.936382    4.174187   -3.142705
     33          6           0       -9.354940    4.746208   -3.411787
     34          7           0       -6.241600    0.079430   -0.392317
     35          6           0       -7.443684    0.391558   -0.985893
     36          6           0       -8.160294   -0.907262   -1.218605
     37          6           0       -7.248228   -1.890692   -0.699519
     38          6           0       -6.050758   -1.261510   -0.277200
     39          6           0       -9.547037   -1.049312   -1.854322
     40          6           0       -7.130536   -3.305939   -0.535194
     41          8           0       -7.885805   -4.254357   -0.826258
     42          6           0       -5.743162   -3.524179    0.070772
     43          6           0       -5.141593   -4.427108   -0.873262
     44          8           0       -5.045544   -4.234698   -2.069461
     45          8           0       -4.580391   -5.449162   -0.171361
     46          6           0       -4.112354   -6.562184   -0.992334
     47          6           0        1.466770   -4.908727   -1.087463
     48          6           0        2.884070   -4.281270   -0.855895
     49          6           0        3.666831   -4.282072    0.247134
     50          6           0        3.204033   -4.891312    1.610370
     51          6           0        5.069340   -3.717663    0.160401
     52          6           0        5.163658   -2.254828    0.649644
     53          6           0        5.929266   -1.315128   -0.384230
     54          6           0        7.054786   -0.464342    0.283487
     55          6           0        6.813238    1.039880    0.227200
     56          6           0        8.501087   -0.802905   -0.232545
     57          6           0        9.641938   -0.715833    0.759997
     58          6           0       10.727651    0.219183    0.037308
     59          6           0       12.128484    0.242735    0.729103
     60          6           0       12.132122    0.149642    2.222980
     61          6           0       12.888321    1.476439    0.079608
     62          6           0       14.329732    1.102178   -0.238293
     63          6           0       14.629625    1.116958   -1.776283
     64          6           0       15.828632    2.029584   -2.175736
     65          6           0       15.601246    3.630146   -2.003813
     66          6           0       16.510751    1.660979   -3.496368
     67          1           0       -1.479964    0.811501    3.420756
     68          1           0       -4.116870    5.712771    0.166299
     69          1           0       -8.768537    1.740157   -1.775442
     70          1           0       -4.011797   -3.133430    2.579570
     71          1           0       -1.372358   -1.869844    2.506515
     72          1           0       -3.792499   -1.676916    4.569599
     73          1           0       -2.322564   -0.797818    4.665255
     74          1           0       -2.439148   -2.651864    4.759968
     75          1           0       -2.794033   -4.775168    1.216052
     76          1           0       -1.380941   -3.758974    1.789641
     77          1           0       -1.550176   -2.336981   -0.045190
     78          1           0       -2.727882   -3.277346   -0.786672
     79          1           0       -0.377314    2.568114    3.859375
     80          1           0       -0.205813    4.272583    3.746199
     81          1           0        0.591901    3.232922    2.527756
     82          1           0       -2.036964    6.597538   -0.366583
     83          1           0       -1.193508    7.781595    0.621800
     84          1           0       -2.881217    7.358671    0.918354
     85          1           0       -5.548552    5.414798   -2.234916
     86          1           0       -8.266506    4.543288   -1.053286
     87          1           0       -5.905549    7.181379   -1.219484
     88          1           0       -6.244812    6.548409    0.420767
     89          1           0       -7.514546    6.822648   -0.771720
     90          1           0       -7.773129    3.265812   -3.723786
     91          1           0       -7.381396    4.957916   -3.658021
     92          1           0       -9.568577    5.558569   -2.717518
     93          1           0       -9.987201    3.857413   -3.400026
     94          1           0       -9.332189    5.254405   -4.375026
     95          1           0       -9.865664   -1.990921   -1.408158
     96          1           0       -9.370343   -1.171415   -2.922722
     97          1           0      -10.055097   -0.133725   -1.550552
     98          1           0       -5.835225   -4.140137    0.966000
     99          1           0       -5.006489   -7.110702   -1.290158
    100          1           0       -3.500001   -7.333799   -0.527179
    101          1           0       -3.533535   -6.194273   -1.839303
    102          1           0        1.442639   -4.972011   -2.175448
    103          1           0        1.452153   -5.910410   -0.659027
    104          1           0        3.285324   -4.031557   -1.838410
    105          1           0        2.371221   -5.583008    1.481251
    106          1           0        2.835172   -4.214500    2.381640
    107          1           0        4.057214   -5.506174    1.894875
    108          1           0        5.530568   -3.989501   -0.788763
    109          1           0        5.743750   -4.174810    0.884757
    110          1           0        5.617324   -2.355688    1.635344
    111          1           0        4.115341   -1.959781    0.669094
    112          1           0        5.137643   -0.622946   -0.672892
    113          1           0        6.350633   -1.764618   -1.283315
    114          1           0        7.031726   -0.651422    1.356804
    115          1           0        7.672545    1.560858   -0.194433
    116          1           0        6.553901    1.389582    1.226972
    117          1           0        5.940798    1.180910   -0.411860
    118          1           0        8.614900   -0.129987   -1.082567
    119          1           0        8.514725   -1.845950   -0.547031
    120          1           0       10.155187   -1.673450    0.843855
    121          1           0        9.300565   -0.515373    1.775320
    122          1           0       10.391355    1.256676    0.004143
    123          1           0       10.852481   -0.182205   -0.968071
    124          1           0       12.524376   -0.720516    0.408203
    125          1           0       12.077541   -0.907739    2.479530
    126          1           0       11.420594    0.797314    2.734258
    127          1           0       13.144033    0.446161    2.498551
    128          1           0       12.933805    2.312093    0.777713
    129          1           0       12.323991    1.819895   -0.786730
    130          1           0       14.527216    0.084321    0.097037
    131          1           0       15.025998    1.714787    0.335446
    132          1           0       13.730650    1.489933   -2.266606
    133          1           0       14.878615    0.082307   -2.014119
    134          1           0       16.618993    1.874650   -1.442040
    135          1           0       14.749711    3.787939   -1.341687
    136          1           0       15.492933    4.117914   -2.972953
    137          1           0       16.437284    4.018136   -1.423214
    138          1           0       16.889912    2.585051   -3.931621
    139          1           0       15.809967    1.130576   -4.141295
    140          1           0       17.278753    0.912980   -3.299529
 ---------------------------------------------------------------------

 SCF Done:  E(RZINDO/S) =  -474.313580110     A.U. after   20 cycles

 Excitation energies and oscillator strengths:

 Excited State   1:      Singlet-A      1.2765 eV  971.25 nm  f=0.5777  <S**2>=0.000
     175 ->178         0.20387
     176 ->177         0.65932
 This state for optimization and/or second-order correction.
 Total Energy, E(CIS/TDA) =  -474.266668238
 Copying the excited state density for this state as the 1-particle RhoCI density.

 Excited State   2:      Singlet-A      1.9084 eV  649.67 nm  f=0.0049  <S**2>=0.000
     175 ->177         0.49417
     176 ->178        -0.48410

 Excited State   3:      Singlet-A      2.8230 eV  439.20 nm  f=0.0135  <S**2>=0.000
     168 ->177         0.16758
     168 ->178        -0.10403
     168 ->179         0.26447
     168 ->180         0.16023
     168 ->185        -0.12549
     169 ->177         0.21717
     169 ->178        -0.13186
     169 ->179         0.33517
     169 ->180         0.21635
     169 ->185        -0.15178
     176 ->179        -0.15984

 Excited State   4:      Singlet-A      2.9283 eV  423.41 nm  f=0.0997  <S**2>=0.000
     170 ->177         0.32868
     170 ->179        -0.29215
     170 ->180         0.34808
     170 ->185         0.17287
     174 ->177        -0.10246
     175 ->177         0.12940
     176 ->178         0.14796
     176 ->179        -0.11024

 Excited State   5:      Singlet-A      2.9623 eV  418.54 nm  f=0.1183  <S**2>=0.000
     170 ->177         0.11307
     170 ->180         0.11589
     175 ->177        -0.14533
     176 ->178        -0.19807
     176 ->179         0.56973

 The electronic state is 1-A.
 Alpha  occ. eigenvalues --   -1.85373  -1.83787  -1.81557  -1.75441  -1.73088
 Alpha  occ. eigenvalues --   -1.70614  -1.64464  -1.59876  -1.59301  -1.57191
 Alpha  occ. eigenvalues --   -1.54043  -1.51129  -1.48799  -1.47568  -1.46828
 Alpha  occ. eigenvalues --   -1.44836  -1.44763  -1.41472  -1.39331  -1.38274
 Alpha  occ. eigenvalues --   -1.36738  -1.32873  -1.31932  -1.31133  -1.29152
 Alpha  occ. eigenvalues --   -1.27480  -1.27026  -1.23407  -1.19948  -1.19317
 Alpha  occ. eigenvalues --   -1.18600  -1.15262  -1.14925  -1.14848  -1.12992
 Alpha  occ. eigenvalues --   -1.12522  -1.10042  -1.09761  -1.04789  -1.03425
 Alpha  occ. eigenvalues --   -1.02626  -1.01462  -1.00251  -0.98252  -0.97491
 Alpha  occ. eigenvalues --   -0.94850  -0.94317  -0.93538  -0.92671  -0.91085
 Alpha  occ. eigenvalues --   -0.91009  -0.89740  -0.89385  -0.87384  -0.87018
 Alpha  occ. eigenvalues --   -0.85447  -0.85185  -0.84809  -0.81961  -0.80147
 Alpha  occ. eigenvalues --   -0.79946  -0.78580  -0.78211  -0.77566  -0.76429
 Alpha  occ. eigenvalues --   -0.76328  -0.75724  -0.74647  -0.73905  -0.73577
 Alpha  occ. eigenvalues --   -0.73249  -0.73187  -0.72944  -0.71550  -0.71010
 Alpha  occ. eigenvalues --   -0.70377  -0.70105  -0.69609  -0.68666  -0.67608
 Alpha  occ. eigenvalues --   -0.67041  -0.66351  -0.66277  -0.65505  -0.65436
 Alpha  occ. eigenvalues --   -0.65157  -0.64646  -0.64235  -0.63863  -0.63588
 Alpha  occ. eigenvalues --   -0.63163  -0.62850  -0.62626  -0.62112  -0.61668
 Alpha  occ. eigenvalues --   -0.61265  -0.61052  -0.60708  -0.60494  -0.60151
 Alpha  occ. eigenvalues --   -0.60048  -0.59450  -0.59105  -0.58059  -0.57761
 Alpha  occ. eigenvalues --   -0.57612  -0.57095  -0.56721  -0.56337  -0.56250
 Alpha  occ. eigenvalues --   -0.55970  -0.55870  -0.55181  -0.54835  -0.54702
 Alpha  occ. eigenvalues --   -0.54448  -0.54174  -0.53998  -0.53684  -0.53255
 Alpha  occ. eigenvalues --   -0.53172  -0.52937  -0.52620  -0.52231  -0.51546
 Alpha  occ. eigenvalues --   -0.51029  -0.50904  -0.50760  -0.50387  -0.50301
 Alpha  occ. eigenvalues --   -0.50165  -0.49836  -0.49532  -0.49433  -0.48930
 Alpha  occ. eigenvalues --   -0.48717  -0.48658  -0.48511  -0.48231  -0.48195
 Alpha  occ. eigenvalues --   -0.47285  -0.47015  -0.46859  -0.46533  -0.46259
 Alpha  occ. eigenvalues --   -0.45996  -0.45922  -0.45578  -0.45131  -0.44972
 Alpha  occ. eigenvalues --   -0.44834  -0.44686  -0.44122  -0.44010  -0.43818
 Alpha  occ. eigenvalues --   -0.43284  -0.43132  -0.42958  -0.42771  -0.42211
 Alpha  occ. eigenvalues --   -0.41640  -0.40422  -0.40338  -0.39542  -0.38523
 Alpha  occ. eigenvalues --   -0.37570  -0.36986  -0.35664  -0.35251  -0.34512
 Alpha  occ. eigenvalues --   -0.33106  -0.32815  -0.32614  -0.31992  -0.27149
 Alpha  occ. eigenvalues --   -0.21974
 Alpha virt. eigenvalues --   -0.08496  -0.03043  -0.01129   0.00892   0.02225
 Alpha virt. eigenvalues --    0.02420   0.02663   0.03206   0.04452   0.04646
 Alpha virt. eigenvalues --    0.05756   0.06202   0.07086   0.07512   0.07921

 Mulliken charges:
               1
     1  Mg   0.426795
     2  C   -0.030970
     3  C   -0.083417
     4  C   -0.094973
     5  C   -0.065165
     6  N   -0.261077
     7  C    0.130911
     8  C   -0.016025
     9  C   -0.000853
    10  C    0.131094
    11  C   -0.054573
    12  C   -0.015605
    13  C    0.010375
    14  C    0.460838
    15  O   -0.501628
    16  O   -0.268678
    17  N   -0.314659
    18  C    0.097691
    19  C    0.069713
    20  C   -0.055807
    21  C    0.134263
    22  C   -0.036315
    23  C    0.328704
    24  O   -0.549499
    25  C   -0.026704
    26  N   -0.264485
    27  C    0.155025
    28  C    0.015648
    29  C    0.006987
    30  C    0.106253
    31  C   -0.058954
    32  C   -0.049479
    33  C   -0.060800
    34  N   -0.324136
    35  C    0.079467
    36  C    0.017211
    37  C   -0.054505
    38  C    0.109746
    39  C   -0.042263
    40  C    0.336726
    41  O   -0.542837
    42  C    0.053045
    43  C    0.509275
    44  O   -0.520740
    45  O   -0.273619
    46  C    0.068499
    47  C    0.099133
    48  C   -0.105089
    49  C    0.007181
    50  C   -0.046665
    51  C   -0.026901
    52  C   -0.033925
    53  C   -0.037834
    54  C   -0.023832
    55  C   -0.059287
    56  C   -0.036118
    57  C   -0.043721
    58  C   -0.041242
    59  C   -0.020594
    60  C   -0.049986
    61  C   -0.034014
    62  C   -0.040402
    63  C   -0.032293
    64  C   -0.025174
    65  C   -0.064179
    66  C   -0.056821
    67  H    0.035791
    68  H    0.013985
    69  H    0.031076
    70  H    0.030904
    71  H    0.037129
    72  H    0.022205
    73  H    0.020075
    74  H    0.026616
    75  H    0.043913
    76  H    0.023119
    77  H    0.028860
    78  H    0.043066
    79  H    0.009585
    80  H    0.042233
    81  H    0.047400
    82  H    0.027478
    83  H    0.037520
    84  H    0.037396
    85  H    0.044183
    86  H    0.036216
    87  H    0.012497
    88  H    0.032718
    89  H    0.019856
    90  H    0.037435
    91  H    0.003775
    92  H    0.024288
    93  H    0.028454
    94  H    0.018777
    95  H    0.045801
    96  H    0.046036
    97  H    0.035854
    98  H    0.049908
    99  H    0.036505
   100  H    0.033366
   101  H    0.057492
   102  H    0.043477
   103  H    0.055230
   104  H    0.024530
   105  H    0.017757
   106  H    0.036501
   107  H    0.026448
   108  H    0.028406
   109  H    0.008185
   110  H    0.032051
   111  H    0.026549
   112  H    0.016417
   113  H    0.031847
   114  H    0.012341
   115  H    0.023353
   116  H    0.018259
   117  H    0.017054
   118  H    0.024118
   119  H    0.010788
   120  H    0.011463
   121  H    0.031540
   122  H    0.020069
   123  H    0.022296
   124  H    0.016493
   125  H    0.020152
   126  H    0.027626
   127  H    0.009677
   128  H    0.016196
   129  H    0.024782
   130  H    0.014349
   131  H    0.019259
   132  H    0.026202
   133  H    0.021255
   134  H    0.009273
   135  H    0.017685
   136  H    0.028427
   137  H    0.019577
   138  H    0.025686
   139  H    0.016797
   140  H    0.017634
 Sum of Mulliken charges =  -0.00000

 Dipole moment (field-independent basis, Debye):
    X=             -0.1455    Y=              4.3547    Z=              3.9847  Tot=              5.9045
 N-N= 4.307820627830D+03 E-N= 0.000000000000D+00  KE=-9.289827063750D+03
 Leave Link  601 at Thu May  5 05:22:15 2022, MaxMem=  6710886400 cpu:               1.7 elap:               0.1
 (Enter /sw/apps/gaussian-16.0/g16/l9999.exe)
 1\1\GINC-BP1-COMPUTE135\SP\RZINDO CIS\STO-3G\C55H74Mg1N4O6\OF15641\05-
 May-2022\0\\#p ZINDO=(nstates=5)\\step_601_chromophore_11 ZINDO\\0,1\M
 g,0,52.702,25.095,45.216\C,0,49.717,26.771,44.079\C,0,51.206,22.158,44
 .029\C,0,55.537,23.583,45.708\C,0,53.754,27.992,46.672\N,0,50.712,24.6
 35,43.954\C,0,49.684,25.406,43.767\C,0,48.411,24.644,43.332\C,0,48.943
 ,23.167,43.49\C,0,50.398,23.335,43.863\C,0,48.058,22.393,44.531\C,0,47
 .864,24.952,41.878\C,0,48.931,25.416,40.963\C,0,48.503,25.569,39.471\O

 Normal termination of Gaussian 16 at Thu May  5 05:22:15 2022.
