 Gaussian 16, Revision A.03,
 Gaussian 16:  ES64L-G16RevA.03 25-Dec-2016

 ------------------------------
 #p blyp/Def2SVP td=(nstates=5)
 ------------------------------

 --------------------------------------------------
 step_1001_chromophore_7 TDDFT with blyp functional
 --------------------------------------------------
 Symbolic Z-matrix:
 Charge =  0 Multiplicity = 1

                         Standard orientation:
 ---------------------------------------------------------------------
 Center     Atomic      Atomic             Coordinates (Angstroms)
 Number     Number       Type             X           Y           Z
 ---------------------------------------------------------------------
      1         12           0        6.092613    0.594376    0.219244
      2          6           0        3.794880   -2.042149    0.096518
      3          6           0        3.671275    2.649117   -0.846374
      4          6           0        8.425571    2.914999    0.070604
      5          6           0        8.626068   -1.846298    0.898657
      6          7           0        4.003018    0.241782   -0.571250
      7          6           0        3.204206   -0.868042   -0.205822
      8          6           0        1.808899   -0.626061   -0.508460
      9          6           0        1.780908    0.903297   -0.895685
     10          6           0        3.216776    1.344520   -0.754352
     11          6           0        1.094802    1.271213   -2.300534
     12          6           0        0.738961   -1.246603    0.454883
     13          6           0       -0.715544   -0.825378    0.361359
     14          6           0       -1.669780   -1.716051   -0.421073
     15          8           0       -1.376767   -2.405113   -1.379694
     16          8           0       -2.964770   -1.386267   -0.039170
     17          7           0        6.032151    2.571316   -0.331584
     18          6           0        4.948303    3.219480   -0.758920
     19          6           0        5.298221    4.597452   -0.898879
     20          6           0        6.722693    4.737452   -0.787870
     21          6           0        7.197776    3.406107   -0.350286
     22          6           0        4.213405    5.652814   -1.242800
     23          6           0        7.666769    5.904252   -1.053108
     24          8           0        8.890059    5.912840   -0.996667
     25          6           0        6.985272    7.094818   -1.328892
     26          7           0        8.229653    0.525771    0.479713
     27          6           0        8.970764    1.687287    0.399963
     28          6           0       10.454677    1.498318    0.857518
     29          6           0       10.372785    0.010055    1.375812
     30          6           0        8.992372   -0.507055    0.907010
     31          6           0       11.532942    1.716663   -0.222297
     32          6           0       10.613125   -0.286804    2.814382
     33          6           0       11.110281   -1.662493    3.202921
     34          7           0        6.248567   -1.581164    0.457513
     35          6           0        7.346076   -2.387988    0.684261
     36          6           0        6.932165   -3.723106    0.770356
     37          6           0        5.550545   -3.622299    0.650145
     38          6           0        5.142172   -2.306437    0.412498
     39          6           0        7.774760   -4.888956    0.905635
     40          6           0        4.334079   -4.431468    0.591830
     41          8           0        4.196242   -5.650918    0.812668
     42          6           0        3.158826   -3.416587    0.294129
     43          6           0        2.398686   -3.955761   -0.844511
     44          8           0        2.740127   -3.729228   -2.037092
     45          8           0        1.290377   -4.724528   -0.477086
     46          6           0        0.482885   -5.264689   -1.535728
     47          6           0       -4.066812   -2.150708   -0.767407
     48          6           0       -5.409857   -1.470641   -0.576071
     49          6           0       -6.601955   -2.100556   -0.287542
     50          6           0       -6.797070   -3.568839   -0.293945
     51          6           0       -7.902761   -1.255592   -0.169846
     52          6           0       -8.704926   -1.131797   -1.467825
     53          6           0       -9.326321    0.302860   -1.664259
     54          6           0      -10.418244    0.458684   -2.745112
     55          6           0       -9.953391    1.329176   -3.915699
     56          6           0      -11.744819    1.077535   -2.209136
     57          6           0      -12.394779    0.124952   -1.156370
     58          6           0      -13.965021    0.160304   -1.037169
     59          6           0      -14.313385   -0.271566    0.448474
     60          6           0      -15.696635   -0.908060    0.542746
     61          6           0      -14.276973    0.914050    1.397112
     62          6           0      -13.228587    0.971542    2.581254
     63          6           0      -12.184285    2.149432    2.386592
     64          6           0      -11.821726    2.907516    3.719404
     65          6           0      -12.911218    3.956783    4.128620
     66          6           0      -10.452844    3.631309    3.646455
     67          1           0        2.874348    3.342404   -1.122542
     68          1           0        9.226584    3.656281    0.014541
     69          1           0        9.450842   -2.455359    1.275623
     70          1           0        1.609827   -1.194414   -1.416376
     71          1           0        1.241134    1.530033   -0.186075
     72          1           0        1.689726    2.031920   -2.805917
     73          1           0        0.080709    1.617888   -2.100622
     74          1           0        0.861115    0.409298   -2.925703
     75          1           0        0.980570   -1.234186    1.517573
     76          1           0        0.739178   -2.325502    0.296537
     77          1           0       -0.845216    0.199057    0.010744
     78          1           0       -1.053228   -0.697868    1.389875
     79          1           0        4.444726    6.529185   -0.636903
     80          1           0        3.247514    5.281153   -0.901502
     81          1           0        4.195409    6.009452   -2.272652
     82          1           0        7.742494    7.865971   -1.468472
     83          1           0        6.495799    7.485043   -0.436534
     84          1           0        6.324011    7.090992   -2.194820
     85          1           0       10.594198    2.174197    1.702197
     86          1           0       11.055862   -0.615923    0.801675
     87          1           0       11.044129    1.988399   -1.158303
     88          1           0       12.244004    0.895984   -0.314547
     89          1           0       12.112603    2.617313   -0.021960
     90          1           0        9.740953   -0.217522    3.464325
     91          1           0       11.302363    0.387416    3.324356
     92          1           0       12.009960   -1.452782    3.780155
     93          1           0       11.433880   -2.249147    2.342107
     94          1           0       10.386370   -2.284052    3.729197
     95          1           0        7.121875   -5.703563    0.594264
     96          1           0        8.315037   -5.094679    1.829992
     97          1           0        8.527338   -4.677271    0.145616
     98          1           0        2.560742   -3.462796    1.205115
     99          1           0        1.054647   -5.569662   -2.413264
    100          1           0       -0.135161   -4.436371   -1.883774
    101          1           0       -0.192379   -6.098271   -1.342517
    102          1           0       -4.137836   -3.217680   -0.553517
    103          1           0       -4.109634   -2.116018   -1.855852
    104          1           0       -5.390363   -0.400255   -0.779621
    105          1           0       -7.859362   -3.741598   -0.470305
    106          1           0       -6.532194   -4.146273    0.591512
    107          1           0       -6.187400   -3.979654   -1.098771
    108          1           0       -7.576430   -0.231996    0.014233
    109          1           0       -8.506648   -1.688133    0.627250
    110          1           0       -9.403882   -1.961548   -1.573823
    111          1           0       -8.027985   -1.465569   -2.253944
    112          1           0       -8.434234    0.881292   -1.904915
    113          1           0       -9.622121    0.619429   -0.663819
    114          1           0      -10.630741   -0.533880   -3.141758
    115          1           0       -8.957511    1.718467   -3.704303
    116          1           0      -10.707485    2.093643   -4.105495
    117          1           0       -9.988102    0.748096   -4.837046
    118          1           0      -12.423786    1.425655   -2.987764
    119          1           0      -11.299492    1.959383   -1.747702
    120          1           0      -11.988543    0.310970   -0.161808
    121          1           0      -12.270867   -0.912007   -1.468686
    122          1           0      -14.368349   -0.659823   -1.630560
    123          1           0      -14.351468    1.123469   -1.368490
    124          1           0      -13.562285   -0.989535    0.780038
    125          1           0      -16.235145   -1.024448   -0.397464
    126          1           0      -16.394383   -0.327631    1.147200
    127          1           0      -15.663159   -1.886417    1.021454
    128          1           0      -15.088334    0.999392    2.120437
    129          1           0      -14.280120    1.825652    0.800893
    130          1           0      -12.653244    0.048014    2.631505
    131          1           0      -13.697520    0.944507    3.564550
    132          1           0      -12.596001    2.877938    1.688774
    133          1           0      -11.216638    1.872684    1.966458
    134          1           0      -11.622090    2.141064    4.468084
    135          1           0      -12.421080    4.930381    4.134449
    136          1           0      -13.298323    3.639570    5.096696
    137          1           0      -13.710130    4.081881    3.397358
    138          1           0       -9.633068    3.003912    3.298132
    139          1           0      -10.160188    4.062534    4.604249
    140          1           0      -10.413029    4.401164    2.876637
 ---------------------------------------------------------------------

 SCF Done:  E(RB-LYP) =  -3007.34175277     A.U. after   21 cycles

 Excitation energies and oscillator strengths:

 Excited State   1:      Singlet-A      1.7440 eV  710.90 nm  f=0.0308  <S**2>=0.000
     244 -> 247        0.61026
     245 -> 247        0.26253
     246 -> 247       -0.23488
 This state for optimization and/or second-order correction.
 Total Energy, E(TD-HF/TD-DFT) =  -3007.27766044
 Copying the excited state density for this state as the 1-particle RhoCI density.

 Excited State   2:      Singlet-A      1.8171 eV  682.30 nm  f=0.3034  <S**2>=0.000
     244 -> 247        0.21867
     245 -> 248        0.15203
     246 -> 247        0.65293
     246 <- 247       -0.14775

 Excited State   3:      Singlet-A      1.9805 eV  626.03 nm  f=0.0622  <S**2>=0.000
     242 -> 247        0.10126
     243 -> 247       -0.24701
     244 -> 247       -0.25940
     245 -> 247        0.56018
     246 -> 248       -0.17394

 Excited State   4:      Singlet-A      2.0475 eV  605.54 nm  f=0.0106  <S**2>=0.000
     243 -> 247        0.66092
     245 -> 247        0.20494

 Excited State   5:      Singlet-A      2.2060 eV  562.02 nm  f=0.0002  <S**2>=0.000
     241 -> 247        0.70614

 The electronic state is 1-A.
 Alpha  occ. eigenvalues --  -46.27351 -18.83062 -18.81563 -18.78284 -18.75877
 Alpha  occ. eigenvalues --  -18.75730 -18.75248 -14.02843 -14.02638 -14.00769
 Alpha  occ. eigenvalues --  -13.99773 -10.05071 -10.03467  -9.99515  -9.99177
 Alpha  occ. eigenvalues --   -9.98656  -9.96417  -9.96329  -9.96042  -9.95955
 Alpha  occ. eigenvalues --   -9.95923  -9.95743  -9.95446  -9.94502  -9.94357
 Alpha  occ. eigenvalues --   -9.94249  -9.94229  -9.94146  -9.93795  -9.93735
 Alpha  occ. eigenvalues --   -9.93668  -9.93487  -9.93416  -9.93271  -9.93230
 Alpha  occ. eigenvalues --   -9.93173  -9.93050  -9.92717  -9.92672  -9.92511
 Alpha  occ. eigenvalues --   -9.92503  -9.92503  -9.92322  -9.92312  -9.92219
 Alpha  occ. eigenvalues --   -9.92195  -9.92125  -9.92093  -9.92056  -9.92044
 Alpha  occ. eigenvalues --   -9.92020  -9.91800  -9.91749  -9.91727  -9.91601
 Alpha  occ. eigenvalues --   -9.91584  -9.91495  -9.91413  -9.91345  -9.91169
 Alpha  occ. eigenvalues --   -9.90981  -9.90799  -9.90773  -9.90764  -9.90377
 Alpha  occ. eigenvalues --   -9.90156  -2.91810  -1.72239  -1.71699  -1.71513
 Alpha  occ. eigenvalues --   -0.97636  -0.95804  -0.91854  -0.90466  -0.89533
 Alpha  occ. eigenvalues --   -0.87679  -0.86450  -0.85415  -0.85274  -0.84462
 Alpha  occ. eigenvalues --   -0.75439  -0.73873  -0.73010  -0.72768  -0.72721
 Alpha  occ. eigenvalues --   -0.71985  -0.71714  -0.70891  -0.70662  -0.70625
 Alpha  occ. eigenvalues --   -0.70390  -0.69241  -0.68424  -0.67911  -0.67499
 Alpha  occ. eigenvalues --   -0.66714  -0.66550  -0.65747  -0.65313  -0.64800
 Alpha  occ. eigenvalues --   -0.64430  -0.62869  -0.62426  -0.61774  -0.60615
 Alpha  occ. eigenvalues --   -0.60227  -0.60059  -0.59819  -0.59377  -0.58939
 Alpha  occ. eigenvalues --   -0.58603  -0.58172  -0.57034  -0.56126  -0.54447
 Alpha  occ. eigenvalues --   -0.54018  -0.53661  -0.52874  -0.52526  -0.51618
 Alpha  occ. eigenvalues --   -0.51453  -0.51343  -0.51129  -0.50453  -0.49931
 Alpha  occ. eigenvalues --   -0.49569  -0.49445  -0.49145  -0.47966  -0.46658
 Alpha  occ. eigenvalues --   -0.46354  -0.45853  -0.45656  -0.45030  -0.44960
 Alpha  occ. eigenvalues --   -0.44276  -0.43932  -0.43357  -0.43069  -0.42569
 Alpha  occ. eigenvalues --   -0.42166  -0.41855  -0.41573  -0.41477  -0.41211
 Alpha  occ. eigenvalues --   -0.40862  -0.40742  -0.40610  -0.40362  -0.40351
 Alpha  occ. eigenvalues --   -0.39856  -0.39616  -0.39293  -0.39145  -0.39089
 Alpha  occ. eigenvalues --   -0.38971  -0.38760  -0.38748  -0.38367  -0.38343
 Alpha  occ. eigenvalues --   -0.38051  -0.37778  -0.37691  -0.37556  -0.37315
 Alpha  occ. eigenvalues --   -0.37174  -0.36982  -0.36606  -0.36435  -0.36262
 Alpha  occ. eigenvalues --   -0.36114  -0.35931  -0.35824  -0.35722  -0.35574
 Alpha  occ. eigenvalues --   -0.35359  -0.35223  -0.35063  -0.34849  -0.34807
 Alpha  occ. eigenvalues --   -0.34469  -0.34280  -0.33992  -0.33807  -0.33641
 Alpha  occ. eigenvalues --   -0.33631  -0.33415  -0.33328  -0.33198  -0.32908
 Alpha  occ. eigenvalues --   -0.32858  -0.32786  -0.32631  -0.32362  -0.32130
 Alpha  occ. eigenvalues --   -0.31951  -0.31832  -0.31569  -0.31430  -0.31274
 Alpha  occ. eigenvalues --   -0.31025  -0.30873  -0.30838  -0.30404  -0.30349
 Alpha  occ. eigenvalues --   -0.30187  -0.30059  -0.30024  -0.29837  -0.29745
 Alpha  occ. eigenvalues --   -0.29725  -0.29566  -0.29132  -0.28963  -0.28710
 Alpha  occ. eigenvalues --   -0.28598  -0.28273  -0.28265  -0.28084  -0.27748
 Alpha  occ. eigenvalues --   -0.27526  -0.27372  -0.27071  -0.26930  -0.26753
 Alpha  occ. eigenvalues --   -0.26531  -0.26464  -0.26370  -0.25552  -0.25480
 Alpha  occ. eigenvalues --   -0.24943  -0.24250  -0.23781  -0.23560  -0.23450
 Alpha  occ. eigenvalues --   -0.23240  -0.22647  -0.22110  -0.20683  -0.20642
 Alpha  occ. eigenvalues --   -0.19869  -0.19772  -0.19172  -0.18184  -0.17248
 Alpha  occ. eigenvalues --   -0.15975
 Alpha virt. eigenvalues --   -0.11762  -0.06917  -0.05759  -0.04422  -0.03937
 Alpha virt. eigenvalues --   -0.03169  -0.02735  -0.02545  -0.01606   0.00262
 Alpha virt. eigenvalues --    0.01519   0.02093   0.02306   0.02565   0.02772

 Mulliken charges:
               1
     1  Mg   0.655622
     2  C    0.108274
     3  C   -0.069555
     4  C   -0.011593
     5  C   -0.077279
     6  N   -0.247262
     7  C   -0.088134
     8  C    0.097155
     9  C    0.006732
    10  C    0.019057
    11  C    0.105342
    12  C    0.095975
    13  C    0.108130
    14  C    0.115512
    15  O   -0.172714
    16  O   -0.286456
    17  N   -0.329622
    18  C    0.176212
    19  C   -0.160815
    20  C    0.028060
    21  C    0.114398
    22  C    0.161829
    23  C   -0.069465
    24  O   -0.150602
    25  C    0.146426
    26  N   -0.214793
    27  C   -0.018900
    28  C    0.033339
    29  C    0.049624
    30  C   -0.018188
    31  C    0.134972
    32  C    0.104921
    33  C    0.053678
    34  N   -0.215132
    35  C    0.130023
    36  C   -0.161380
    37  C    0.103753
    38  C    0.029352
    39  C    0.174243
    40  C   -0.062675
    41  O   -0.154639
    42  C    0.047412
    43  C    0.139699
    44  O   -0.219004
    45  O   -0.269628
    46  C    0.221610
    47  C    0.309124
    48  C   -0.109099
    49  C   -0.169059
    50  C    0.142692
    51  C    0.139681
    52  C    0.040829
    53  C    0.097464
    54  C   -0.088968
    55  C    0.140961
    56  C    0.094237
    57  C    0.035694
    58  C    0.112249
    59  C   -0.069948
    60  C    0.120518
    61  C    0.090150
    62  C    0.062601
    63  C    0.074868
    64  C   -0.095982
    65  C    0.120878
    66  C    0.073815
    67  H   -0.069862
    68  H   -0.049617
    69  H   -0.076890
    70  H    0.007629
    71  H   -0.030039
    72  H    0.005994
    73  H   -0.017740
    74  H    0.003863
    75  H   -0.041363
    76  H   -0.010921
    77  H    0.002295
    78  H   -0.011363
    79  H   -0.015940
    80  H   -0.007369
    81  H    0.015799
    82  H   -0.027713
    83  H    0.012431
    84  H    0.013648
    85  H   -0.016952
    86  H   -0.035100
    87  H    0.000005
    88  H    0.000915
    89  H   -0.010131
    90  H   -0.032111
    91  H   -0.029888
    92  H   -0.013842
    93  H   -0.012290
    94  H    0.004019
    95  H    0.012455
    96  H    0.006836
    97  H   -0.007238
    98  H    0.000560
    99  H    0.001941
   100  H    0.007067
   101  H    0.007065
   102  H   -0.005282
   103  H    0.012125
   104  H   -0.034188
   105  H   -0.011725
   106  H    0.007616
   107  H   -0.000523
   108  H   -0.031981
   109  H   -0.018732
   110  H   -0.037622
   111  H   -0.041799
   112  H   -0.026212
   113  H   -0.014053
   114  H   -0.035266
   115  H   -0.014858
   116  H   -0.028059
   117  H   -0.021341
   118  H   -0.025335
   119  H   -0.032851
   120  H    0.000023
   121  H   -0.022805
   122  H   -0.037484
   123  H   -0.022135
   124  H   -0.034867
   125  H   -0.026848
   126  H   -0.027440
   127  H   -0.022268
   128  H   -0.025382
   129  H   -0.027754
   130  H   -0.038258
   131  H   -0.026705
   132  H   -0.033154
   133  H   -0.029951
   134  H   -0.030432
   135  H   -0.020505
   136  H   -0.002941
   137  H   -0.018230
   138  H   -0.029000
   139  H   -0.009657
   140  H   -0.026496
 Sum of Mulliken charges =  -0.00000

 Dipole moment (field-independent basis, Debye):
    X=             -4.2577    Y=              3.6455    Z=              2.5928  Tot=              6.1758
 Quadrupole moment (field-independent basis, Debye-Ang):
   XX=           -374.3740   YY=           -427.1432   ZZ=           -406.1059
   XY=              9.1549   XZ=             26.0444   YZ=             -1.6379

 Normal termination of Gaussian 16 at Tue Apr 26 23:35:28 2022.
