 Gaussian 16, Revision A.03,
 Gaussian 16:  ES64L-G16RevA.03 25-Dec-2016

 -----------------------------------
 #p cam-b3lyp/Def2SVP td=(nstates=5)
 -----------------------------------

 -------------------------------------------------------
 step_1001_chromophore_7 TDDFT with cam-b3lyp functional
 -------------------------------------------------------
 Symbolic Z-matrix:
 Charge =  0 Multiplicity = 1

                         Standard orientation:
 ---------------------------------------------------------------------
 Center     Atomic      Atomic             Coordinates (Angstroms)
 Number     Number       Type             X           Y           Z
 ---------------------------------------------------------------------
      1         12           0        6.092613    0.594376    0.219244
      2          6           0        3.794880   -2.042149    0.096518
      3          6           0        3.671275    2.649117   -0.846374
      4          6           0        8.425571    2.914999    0.070604
      5          6           0        8.626068   -1.846298    0.898657
      6          7           0        4.003018    0.241782   -0.571250
      7          6           0        3.204206   -0.868042   -0.205822
      8          6           0        1.808899   -0.626061   -0.508460
      9          6           0        1.780908    0.903297   -0.895685
     10          6           0        3.216776    1.344520   -0.754352
     11          6           0        1.094802    1.271213   -2.300534
     12          6           0        0.738961   -1.246603    0.454883
     13          6           0       -0.715544   -0.825378    0.361359
     14          6           0       -1.669780   -1.716051   -0.421073
     15          8           0       -1.376767   -2.405113   -1.379694
     16          8           0       -2.964770   -1.386267   -0.039170
     17          7           0        6.032151    2.571316   -0.331584
     18          6           0        4.948303    3.219480   -0.758920
     19          6           0        5.298221    4.597452   -0.898879
     20          6           0        6.722693    4.737452   -0.787870
     21          6           0        7.197776    3.406107   -0.350286
     22          6           0        4.213405    5.652814   -1.242800
     23          6           0        7.666769    5.904252   -1.053108
     24          8           0        8.890059    5.912840   -0.996667
     25          6           0        6.985272    7.094818   -1.328892
     26          7           0        8.229653    0.525771    0.479713
     27          6           0        8.970764    1.687287    0.399963
     28          6           0       10.454677    1.498318    0.857518
     29          6           0       10.372785    0.010055    1.375812
     30          6           0        8.992372   -0.507055    0.907010
     31          6           0       11.532942    1.716663   -0.222297
     32          6           0       10.613125   -0.286804    2.814382
     33          6           0       11.110281   -1.662493    3.202921
     34          7           0        6.248567   -1.581164    0.457513
     35          6           0        7.346076   -2.387988    0.684261
     36          6           0        6.932165   -3.723106    0.770356
     37          6           0        5.550545   -3.622299    0.650145
     38          6           0        5.142172   -2.306437    0.412498
     39          6           0        7.774760   -4.888956    0.905635
     40          6           0        4.334079   -4.431468    0.591830
     41          8           0        4.196242   -5.650918    0.812668
     42          6           0        3.158826   -3.416587    0.294129
     43          6           0        2.398686   -3.955761   -0.844511
     44          8           0        2.740127   -3.729228   -2.037092
     45          8           0        1.290377   -4.724528   -0.477086
     46          6           0        0.482885   -5.264689   -1.535728
     47          6           0       -4.066812   -2.150708   -0.767407
     48          6           0       -5.409857   -1.470641   -0.576071
     49          6           0       -6.601955   -2.100556   -0.287542
     50          6           0       -6.797070   -3.568839   -0.293945
     51          6           0       -7.902761   -1.255592   -0.169846
     52          6           0       -8.704926   -1.131797   -1.467825
     53          6           0       -9.326321    0.302860   -1.664259
     54          6           0      -10.418244    0.458684   -2.745112
     55          6           0       -9.953391    1.329176   -3.915699
     56          6           0      -11.744819    1.077535   -2.209136
     57          6           0      -12.394779    0.124952   -1.156370
     58          6           0      -13.965021    0.160304   -1.037169
     59          6           0      -14.313385   -0.271566    0.448474
     60          6           0      -15.696635   -0.908060    0.542746
     61          6           0      -14.276973    0.914050    1.397112
     62          6           0      -13.228587    0.971542    2.581254
     63          6           0      -12.184285    2.149432    2.386592
     64          6           0      -11.821726    2.907516    3.719404
     65          6           0      -12.911218    3.956783    4.128620
     66          6           0      -10.452844    3.631309    3.646455
     67          1           0        2.874348    3.342404   -1.122542
     68          1           0        9.226584    3.656281    0.014541
     69          1           0        9.450842   -2.455359    1.275623
     70          1           0        1.609827   -1.194414   -1.416376
     71          1           0        1.241134    1.530033   -0.186075
     72          1           0        1.689726    2.031920   -2.805917
     73          1           0        0.080709    1.617888   -2.100622
     74          1           0        0.861115    0.409298   -2.925703
     75          1           0        0.980570   -1.234186    1.517573
     76          1           0        0.739178   -2.325502    0.296537
     77          1           0       -0.845216    0.199057    0.010744
     78          1           0       -1.053228   -0.697868    1.389875
     79          1           0        4.444726    6.529185   -0.636903
     80          1           0        3.247514    5.281153   -0.901502
     81          1           0        4.195409    6.009452   -2.272652
     82          1           0        7.742494    7.865971   -1.468472
     83          1           0        6.495799    7.485043   -0.436534
     84          1           0        6.324011    7.090992   -2.194820
     85          1           0       10.594198    2.174197    1.702197
     86          1           0       11.055862   -0.615923    0.801675
     87          1           0       11.044129    1.988399   -1.158303
     88          1           0       12.244004    0.895984   -0.314547
     89          1           0       12.112603    2.617313   -0.021960
     90          1           0        9.740953   -0.217522    3.464325
     91          1           0       11.302363    0.387416    3.324356
     92          1           0       12.009960   -1.452782    3.780155
     93          1           0       11.433880   -2.249147    2.342107
     94          1           0       10.386370   -2.284052    3.729197
     95          1           0        7.121875   -5.703563    0.594264
     96          1           0        8.315037   -5.094679    1.829992
     97          1           0        8.527338   -4.677271    0.145616
     98          1           0        2.560742   -3.462796    1.205115
     99          1           0        1.054647   -5.569662   -2.413264
    100          1           0       -0.135161   -4.436371   -1.883774
    101          1           0       -0.192379   -6.098271   -1.342517
    102          1           0       -4.137836   -3.217680   -0.553517
    103          1           0       -4.109634   -2.116018   -1.855852
    104          1           0       -5.390363   -0.400255   -0.779621
    105          1           0       -7.859362   -3.741598   -0.470305
    106          1           0       -6.532194   -4.146273    0.591512
    107          1           0       -6.187400   -3.979654   -1.098771
    108          1           0       -7.576430   -0.231996    0.014233
    109          1           0       -8.506648   -1.688133    0.627250
    110          1           0       -9.403882   -1.961548   -1.573823
    111          1           0       -8.027985   -1.465569   -2.253944
    112          1           0       -8.434234    0.881292   -1.904915
    113          1           0       -9.622121    0.619429   -0.663819
    114          1           0      -10.630741   -0.533880   -3.141758
    115          1           0       -8.957511    1.718467   -3.704303
    116          1           0      -10.707485    2.093643   -4.105495
    117          1           0       -9.988102    0.748096   -4.837046
    118          1           0      -12.423786    1.425655   -2.987764
    119          1           0      -11.299492    1.959383   -1.747702
    120          1           0      -11.988543    0.310970   -0.161808
    121          1           0      -12.270867   -0.912007   -1.468686
    122          1           0      -14.368349   -0.659823   -1.630560
    123          1           0      -14.351468    1.123469   -1.368490
    124          1           0      -13.562285   -0.989535    0.780038
    125          1           0      -16.235145   -1.024448   -0.397464
    126          1           0      -16.394383   -0.327631    1.147200
    127          1           0      -15.663159   -1.886417    1.021454
    128          1           0      -15.088334    0.999392    2.120437
    129          1           0      -14.280120    1.825652    0.800893
    130          1           0      -12.653244    0.048014    2.631505
    131          1           0      -13.697520    0.944507    3.564550
    132          1           0      -12.596001    2.877938    1.688774
    133          1           0      -11.216638    1.872684    1.966458
    134          1           0      -11.622090    2.141064    4.468084
    135          1           0      -12.421080    4.930381    4.134449
    136          1           0      -13.298323    3.639570    5.096696
    137          1           0      -13.710130    4.081881    3.397358
    138          1           0       -9.633068    3.003912    3.298132
    139          1           0      -10.160188    4.062534    4.604249
    140          1           0      -10.413029    4.401164    2.876637
 ---------------------------------------------------------------------

 SCF Done:  E(RCAM-B3LYP) =  -3007.13250789     A.U. after   18 cycles

 Excitation energies and oscillator strengths:

 Excited State   1:      Singlet-A      1.6955 eV  731.27 nm  f=0.4029  <S**2>=0.000
     245 -> 248        0.16167
     246 -> 247        0.68847
 This state for optimization and/or second-order correction.
 Total Energy, E(TD-HF/TD-DFT) =  -3007.07020115
 Copying the excited state density for this state as the 1-particle RhoCI density.

 Excited State   2:      Singlet-A      2.1938 eV  565.15 nm  f=0.1313  <S**2>=0.000
     245 -> 247        0.65258
     246 -> 248       -0.24586

 Excited State   3:      Singlet-A      3.1559 eV  392.86 nm  f=0.0045  <S**2>=0.000
     241 -> 247       -0.14117
     244 -> 247        0.67690

 Excited State   4:      Singlet-A      3.3801 eV  366.80 nm  f=0.0085  <S**2>=0.000
     241 -> 247        0.16556
     242 -> 247        0.57500
     242 -> 249       -0.22845
     242 -> 251        0.21527
     246 -> 248        0.12917

 Excited State   5:      Singlet-A      3.4206 eV  362.46 nm  f=0.0164  <S**2>=0.000
     241 -> 247        0.58821
     242 -> 247       -0.18051
     244 -> 247        0.10905
     246 -> 248        0.28656

 The electronic state is 1-A.
 Alpha  occ. eigenvalues --  -46.88966 -19.25977 -19.24433 -19.21234 -19.19345
 Alpha  occ. eigenvalues --  -19.18806 -19.18178 -14.41925 -14.41330 -14.39348
 Alpha  occ. eigenvalues --  -14.37991 -10.40368 -10.39045 -10.34908 -10.34395
 Alpha  occ. eigenvalues --  -10.32835 -10.31051 -10.30925 -10.30690 -10.30266
 Alpha  occ. eigenvalues --  -10.30125 -10.30007 -10.29564 -10.29145 -10.28358
 Alpha  occ. eigenvalues --  -10.28340 -10.28271 -10.28085 -10.27989 -10.27936
 Alpha  occ. eigenvalues --  -10.27718 -10.27688 -10.27687 -10.27397 -10.27297
 Alpha  occ. eigenvalues --  -10.27165 -10.27044 -10.26679 -10.26552 -10.26475
 Alpha  occ. eigenvalues --  -10.26453 -10.26433 -10.26359 -10.26311 -10.26056
 Alpha  occ. eigenvalues --  -10.25953 -10.25832 -10.25804 -10.25798 -10.25736
 Alpha  occ. eigenvalues --  -10.25724 -10.25494 -10.25468 -10.25324 -10.25292
 Alpha  occ. eigenvalues --  -10.25255 -10.25195 -10.25111 -10.25090 -10.25072
 Alpha  occ. eigenvalues --  -10.24561 -10.24440 -10.24381 -10.24348 -10.23939
 Alpha  occ. eigenvalues --  -10.23905  -3.17320  -1.92228  -1.91773  -1.91609
 Alpha  occ. eigenvalues --   -1.16066  -1.14183  -1.10517  -1.08247  -1.07656
 Alpha  occ. eigenvalues --   -1.05558  -1.04021  -1.03099  -1.02946  -1.02041
 Alpha  occ. eigenvalues --   -0.92457  -0.90765  -0.89785  -0.89484  -0.89460
 Alpha  occ. eigenvalues --   -0.88663  -0.88451  -0.87570  -0.87255  -0.87209
 Alpha  occ. eigenvalues --   -0.87062  -0.85531  -0.84744  -0.84120  -0.83678
 Alpha  occ. eigenvalues --   -0.83108  -0.82601  -0.81755  -0.81166  -0.80562
 Alpha  occ. eigenvalues --   -0.80277  -0.78475  -0.78192  -0.77303  -0.75977
 Alpha  occ. eigenvalues --   -0.75540  -0.75358  -0.75136  -0.74640  -0.74177
 Alpha  occ. eigenvalues --   -0.73646  -0.73193  -0.71948  -0.70947  -0.69083
 Alpha  occ. eigenvalues --   -0.68651  -0.68187  -0.67390  -0.66879  -0.65748
 Alpha  occ. eigenvalues --   -0.65694  -0.65513  -0.65216  -0.64333  -0.63942
 Alpha  occ. eigenvalues --   -0.63422  -0.63238  -0.63082  -0.61511  -0.60211
 Alpha  occ. eigenvalues --   -0.60066  -0.59370  -0.59148  -0.58386  -0.58311
 Alpha  occ. eigenvalues --   -0.57706  -0.57378  -0.56530  -0.56251  -0.55765
 Alpha  occ. eigenvalues --   -0.55370  -0.54904  -0.54514  -0.54309  -0.54117
 Alpha  occ. eigenvalues --   -0.53757  -0.53600  -0.53581  -0.53283  -0.53078
 Alpha  occ. eigenvalues --   -0.52887  -0.52312  -0.51850  -0.51777  -0.51497
 Alpha  occ. eigenvalues --   -0.51445  -0.51182  -0.51130  -0.50811  -0.50673
 Alpha  occ. eigenvalues --   -0.50398  -0.50382  -0.50120  -0.49986  -0.49741
 Alpha  occ. eigenvalues --   -0.49560  -0.49220  -0.48977  -0.48877  -0.48611
 Alpha  occ. eigenvalues --   -0.48320  -0.48119  -0.48015  -0.47820  -0.47655
 Alpha  occ. eigenvalues --   -0.47563  -0.47388  -0.47276  -0.46817  -0.46695
 Alpha  occ. eigenvalues --   -0.46359  -0.46155  -0.45845  -0.45621  -0.45499
 Alpha  occ. eigenvalues --   -0.45312  -0.45107  -0.45048  -0.44933  -0.44569
 Alpha  occ. eigenvalues --   -0.44449  -0.44413  -0.44301  -0.44013  -0.43636
 Alpha  occ. eigenvalues --   -0.43547  -0.43482  -0.43187  -0.42857  -0.42799
 Alpha  occ. eigenvalues --   -0.42628  -0.42472  -0.42222  -0.41800  -0.41721
 Alpha  occ. eigenvalues --   -0.41702  -0.41638  -0.41335  -0.41125  -0.40908
 Alpha  occ. eigenvalues --   -0.40899  -0.40715  -0.40301  -0.40231  -0.40100
 Alpha  occ. eigenvalues --   -0.39733  -0.39588  -0.39327  -0.39199  -0.38600
 Alpha  occ. eigenvalues --   -0.38598  -0.38155  -0.38077  -0.37769  -0.37681
 Alpha  occ. eigenvalues --   -0.37502  -0.37104  -0.37056  -0.36763  -0.36207
 Alpha  occ. eigenvalues --   -0.36107  -0.35271  -0.34778  -0.34660  -0.33956
 Alpha  occ. eigenvalues --   -0.33519  -0.33287  -0.32995  -0.31826  -0.31448
 Alpha  occ. eigenvalues --   -0.30139  -0.29861  -0.29423  -0.28821  -0.24113
 Alpha  occ. eigenvalues --   -0.21311
 Alpha virt. eigenvalues --   -0.08977  -0.01562   0.00611   0.02225   0.02609
 Alpha virt. eigenvalues --    0.03977   0.04309   0.05027   0.05527   0.07448
 Alpha virt. eigenvalues --    0.08003   0.08106   0.08787   0.08957   0.09078

 Mulliken charges:
               1
     1  Mg   0.786578
     2  C    0.083219
     3  C   -0.094827
     4  C   -0.034765
     5  C   -0.075772
     6  N   -0.315106
     7  C   -0.041691
     8  C    0.038072
     9  C   -0.051674
    10  C    0.047587
    11  C    0.052567
    12  C    0.044507
    13  C    0.039394
    14  C    0.196080
    15  O   -0.215892
    16  O   -0.352392
    17  N   -0.418227
    18  C    0.192858
    19  C   -0.166064
    20  C   -0.040869
    21  C    0.139130
    22  C    0.108171
    23  C    0.023520
    24  O   -0.189814
    25  C    0.043887
    26  N   -0.283072
    27  C    0.003450
    28  C   -0.018964
    29  C   -0.011192
    30  C    0.001689
    31  C    0.075180
    32  C    0.047042
    33  C   -0.010758
    34  N   -0.304478
    35  C    0.128993
    36  C   -0.154438
    37  C    0.019279
    38  C    0.065527
    39  C    0.118812
    40  C    0.040709
    41  O   -0.195488
    42  C   -0.035916
    43  C    0.225822
    44  O   -0.253841
    45  O   -0.332995
    46  C    0.179707
    47  C    0.277216
    48  C   -0.125572
    49  C   -0.188044
    50  C    0.074749
    51  C    0.078355
    52  C   -0.003816
    53  C    0.041823
    54  C   -0.144440
    55  C    0.081655
    56  C    0.042668
    57  C   -0.010996
    58  C    0.062122
    59  C   -0.131812
    60  C    0.060278
    61  C    0.036436
    62  C    0.009663
    63  C    0.027253
    64  C   -0.151926
    65  C    0.056730
    66  C    0.015326
    67  H   -0.037962
    68  H   -0.010645
    69  H   -0.039630
    70  H    0.042883
    71  H    0.003945
    72  H    0.030037
    73  H    0.004991
    74  H    0.029786
    75  H   -0.007860
    76  H    0.016531
    77  H    0.032782
    78  H    0.025700
    79  H    0.010940
    80  H    0.020876
    81  H    0.042113
    82  H    0.012211
    83  H    0.043084
    84  H    0.043294
    85  H    0.018585
    86  H    0.000485
    87  H    0.025745
    88  H    0.025874
    89  H    0.014866
    90  H   -0.001079
    91  H   -0.000167
    92  H    0.012150
    93  H    0.009119
    94  H    0.027579
    95  H    0.039724
    96  H    0.032119
    97  H    0.017096
    98  H    0.043946
    99  H    0.028181
   100  H    0.029385
   101  H    0.030444
   102  H    0.022418
   103  H    0.039637
   104  H    0.000192
   105  H    0.013356
   106  H    0.034609
   107  H    0.021815
   108  H   -0.001789
   109  H    0.010366
   110  H   -0.011826
   111  H   -0.011899
   112  H    0.000675
   113  H    0.011415
   114  H   -0.003788
   115  H    0.008953
   116  H   -0.002369
   117  H    0.003898
   118  H    0.003272
   119  H   -0.005597
   120  H    0.019265
   121  H    0.003597
   122  H   -0.007831
   123  H    0.004656
   124  H   -0.001894
   125  H   -0.001658
   126  H   -0.001548
   127  H    0.002845
   128  H    0.004362
   129  H   -0.000747
   130  H   -0.010153
   131  H    0.001849
   132  H   -0.007802
   133  H   -0.005267
   134  H   -0.000494
   135  H    0.004947
   136  H    0.020034
   137  H    0.005708
   138  H   -0.004001
   139  H    0.015307
   140  H   -0.002861
 Sum of Mulliken charges =  -0.00000

 Dipole moment (field-independent basis, Debye):
    X=             -4.2097    Y=              4.6522    Z=              2.5656  Tot=              6.7784
 Quadrupole moment (field-independent basis, Debye-Ang):
   XX=           -371.6817   YY=           -422.4422   ZZ=           -406.2434
   XY=             15.0684   XZ=             26.7710   YZ=             -2.6549

 Normal termination of Gaussian 16 at Tue Apr 26 22:42:34 2022.
