 Gaussian 16, Revision A.03,
 Gaussian 16:  ES64L-G16RevA.03 25-Dec-2016

 ---------------------------------
 #p PBE1PBE/Def2SVP td=(nstates=5)
 ---------------------------------

 -----------------------------------------------------
 step_1001_chromophore_7 TDDFT with PBE1PBE functional
 -----------------------------------------------------
 Symbolic Z-matrix:
 Charge =  0 Multiplicity = 1

                         Standard orientation:
 ---------------------------------------------------------------------
 Center     Atomic      Atomic             Coordinates (Angstroms)
 Number     Number       Type             X           Y           Z
 ---------------------------------------------------------------------
      1         12           0        6.092613    0.594376    0.219244
      2          6           0        3.794880   -2.042149    0.096518
      3          6           0        3.671275    2.649117   -0.846374
      4          6           0        8.425571    2.914999    0.070604
      5          6           0        8.626068   -1.846298    0.898657
      6          7           0        4.003018    0.241782   -0.571250
      7          6           0        3.204206   -0.868042   -0.205822
      8          6           0        1.808899   -0.626061   -0.508460
      9          6           0        1.780908    0.903297   -0.895685
     10          6           0        3.216776    1.344520   -0.754352
     11          6           0        1.094802    1.271213   -2.300534
     12          6           0        0.738961   -1.246603    0.454883
     13          6           0       -0.715544   -0.825378    0.361359
     14          6           0       -1.669780   -1.716051   -0.421073
     15          8           0       -1.376767   -2.405113   -1.379694
     16          8           0       -2.964770   -1.386267   -0.039170
     17          7           0        6.032151    2.571316   -0.331584
     18          6           0        4.948303    3.219480   -0.758920
     19          6           0        5.298221    4.597452   -0.898879
     20          6           0        6.722693    4.737452   -0.787870
     21          6           0        7.197776    3.406107   -0.350286
     22          6           0        4.213405    5.652814   -1.242800
     23          6           0        7.666769    5.904252   -1.053108
     24          8           0        8.890059    5.912840   -0.996667
     25          6           0        6.985272    7.094818   -1.328892
     26          7           0        8.229653    0.525771    0.479713
     27          6           0        8.970764    1.687287    0.399963
     28          6           0       10.454677    1.498318    0.857518
     29          6           0       10.372785    0.010055    1.375812
     30          6           0        8.992372   -0.507055    0.907010
     31          6           0       11.532942    1.716663   -0.222297
     32          6           0       10.613125   -0.286804    2.814382
     33          6           0       11.110281   -1.662493    3.202921
     34          7           0        6.248567   -1.581164    0.457513
     35          6           0        7.346076   -2.387988    0.684261
     36          6           0        6.932165   -3.723106    0.770356
     37          6           0        5.550545   -3.622299    0.650145
     38          6           0        5.142172   -2.306437    0.412498
     39          6           0        7.774760   -4.888956    0.905635
     40          6           0        4.334079   -4.431468    0.591830
     41          8           0        4.196242   -5.650918    0.812668
     42          6           0        3.158826   -3.416587    0.294129
     43          6           0        2.398686   -3.955761   -0.844511
     44          8           0        2.740127   -3.729228   -2.037092
     45          8           0        1.290377   -4.724528   -0.477086
     46          6           0        0.482885   -5.264689   -1.535728
     47          6           0       -4.066812   -2.150708   -0.767407
     48          6           0       -5.409857   -1.470641   -0.576071
     49          6           0       -6.601955   -2.100556   -0.287542
     50          6           0       -6.797070   -3.568839   -0.293945
     51          6           0       -7.902761   -1.255592   -0.169846
     52          6           0       -8.704926   -1.131797   -1.467825
     53          6           0       -9.326321    0.302860   -1.664259
     54          6           0      -10.418244    0.458684   -2.745112
     55          6           0       -9.953391    1.329176   -3.915699
     56          6           0      -11.744819    1.077535   -2.209136
     57          6           0      -12.394779    0.124952   -1.156370
     58          6           0      -13.965021    0.160304   -1.037169
     59          6           0      -14.313385   -0.271566    0.448474
     60          6           0      -15.696635   -0.908060    0.542746
     61          6           0      -14.276973    0.914050    1.397112
     62          6           0      -13.228587    0.971542    2.581254
     63          6           0      -12.184285    2.149432    2.386592
     64          6           0      -11.821726    2.907516    3.719404
     65          6           0      -12.911218    3.956783    4.128620
     66          6           0      -10.452844    3.631309    3.646455
     67          1           0        2.874348    3.342404   -1.122542
     68          1           0        9.226584    3.656281    0.014541
     69          1           0        9.450842   -2.455359    1.275623
     70          1           0        1.609827   -1.194414   -1.416376
     71          1           0        1.241134    1.530033   -0.186075
     72          1           0        1.689726    2.031920   -2.805917
     73          1           0        0.080709    1.617888   -2.100622
     74          1           0        0.861115    0.409298   -2.925703
     75          1           0        0.980570   -1.234186    1.517573
     76          1           0        0.739178   -2.325502    0.296537
     77          1           0       -0.845216    0.199057    0.010744
     78          1           0       -1.053228   -0.697868    1.389875
     79          1           0        4.444726    6.529185   -0.636903
     80          1           0        3.247514    5.281153   -0.901502
     81          1           0        4.195409    6.009452   -2.272652
     82          1           0        7.742494    7.865971   -1.468472
     83          1           0        6.495799    7.485043   -0.436534
     84          1           0        6.324011    7.090992   -2.194820
     85          1           0       10.594198    2.174197    1.702197
     86          1           0       11.055862   -0.615923    0.801675
     87          1           0       11.044129    1.988399   -1.158303
     88          1           0       12.244004    0.895984   -0.314547
     89          1           0       12.112603    2.617313   -0.021960
     90          1           0        9.740953   -0.217522    3.464325
     91          1           0       11.302363    0.387416    3.324356
     92          1           0       12.009960   -1.452782    3.780155
     93          1           0       11.433880   -2.249147    2.342107
     94          1           0       10.386370   -2.284052    3.729197
     95          1           0        7.121875   -5.703563    0.594264
     96          1           0        8.315037   -5.094679    1.829992
     97          1           0        8.527338   -4.677271    0.145616
     98          1           0        2.560742   -3.462796    1.205115
     99          1           0        1.054647   -5.569662   -2.413264
    100          1           0       -0.135161   -4.436371   -1.883774
    101          1           0       -0.192379   -6.098271   -1.342517
    102          1           0       -4.137836   -3.217680   -0.553517
    103          1           0       -4.109634   -2.116018   -1.855852
    104          1           0       -5.390363   -0.400255   -0.779621
    105          1           0       -7.859362   -3.741598   -0.470305
    106          1           0       -6.532194   -4.146273    0.591512
    107          1           0       -6.187400   -3.979654   -1.098771
    108          1           0       -7.576430   -0.231996    0.014233
    109          1           0       -8.506648   -1.688133    0.627250
    110          1           0       -9.403882   -1.961548   -1.573823
    111          1           0       -8.027985   -1.465569   -2.253944
    112          1           0       -8.434234    0.881292   -1.904915
    113          1           0       -9.622121    0.619429   -0.663819
    114          1           0      -10.630741   -0.533880   -3.141758
    115          1           0       -8.957511    1.718467   -3.704303
    116          1           0      -10.707485    2.093643   -4.105495
    117          1           0       -9.988102    0.748096   -4.837046
    118          1           0      -12.423786    1.425655   -2.987764
    119          1           0      -11.299492    1.959383   -1.747702
    120          1           0      -11.988543    0.310970   -0.161808
    121          1           0      -12.270867   -0.912007   -1.468686
    122          1           0      -14.368349   -0.659823   -1.630560
    123          1           0      -14.351468    1.123469   -1.368490
    124          1           0      -13.562285   -0.989535    0.780038
    125          1           0      -16.235145   -1.024448   -0.397464
    126          1           0      -16.394383   -0.327631    1.147200
    127          1           0      -15.663159   -1.886417    1.021454
    128          1           0      -15.088334    0.999392    2.120437
    129          1           0      -14.280120    1.825652    0.800893
    130          1           0      -12.653244    0.048014    2.631505
    131          1           0      -13.697520    0.944507    3.564550
    132          1           0      -12.596001    2.877938    1.688774
    133          1           0      -11.216638    1.872684    1.966458
    134          1           0      -11.622090    2.141064    4.468084
    135          1           0      -12.421080    4.930381    4.134449
    136          1           0      -13.298323    3.639570    5.096696
    137          1           0      -13.710130    4.081881    3.397358
    138          1           0       -9.633068    3.003912    3.298132
    139          1           0      -10.160188    4.062534    4.604249
    140          1           0      -10.413029    4.401164    2.876637
 ---------------------------------------------------------------------

 SCF Done:  E(RPBE1PBE) =  -3005.32149583     A.U. after   15 cycles

 Excitation energies and oscillator strengths:

 Excited State   1:      Singlet-A      1.8498 eV  670.27 nm  f=0.3895  <S**2>=0.000
     245 -> 248        0.15180
     246 -> 247        0.69587
     246 <- 247       -0.11322
 This state for optimization and/or second-order correction.
 Total Energy, E(TD-HF/TD-DFT) =  -3005.25351772
 Copying the excited state density for this state as the 1-particle RhoCI density.

 Excited State   2:      Singlet-A      2.1883 eV  566.58 nm  f=0.1192  <S**2>=0.000
     245 -> 247        0.66009
     246 -> 248       -0.21684

 Excited State   3:      Singlet-A      2.7990 eV  442.96 nm  f=0.0031  <S**2>=0.000
     242 -> 247        0.52877
     242 -> 249        0.10618
     244 -> 247        0.43341

 Excited State   4:      Singlet-A      2.8326 eV  437.71 nm  f=0.0055  <S**2>=0.000
     242 -> 247       -0.43518
     244 -> 247        0.54014

 Excited State   5:      Singlet-A      3.1007 eV  399.86 nm  f=0.0034  <S**2>=0.000
     240 -> 247        0.11935
     241 -> 247        0.66500
     246 -> 248        0.17390

 The electronic state is 1-A.
 Alpha  occ. eigenvalues --  -46.92327 -19.26685 -19.25127 -19.21496 -19.19392
 Alpha  occ. eigenvalues --  -19.19096 -19.18585 -14.41304 -14.40983 -14.38943
 Alpha  occ. eigenvalues --  -14.37734 -10.37399 -10.36113 -10.31822 -10.31706
 Alpha  occ. eigenvalues --  -10.30263 -10.28688 -10.28514 -10.28283 -10.28061
 Alpha  occ. eigenvalues --  -10.27981 -10.27457 -10.26847 -10.26659 -10.26261
 Alpha  occ. eigenvalues --  -10.26169 -10.26044 -10.25717 -10.25610 -10.25531
 Alpha  occ. eigenvalues --  -10.25515 -10.25457 -10.25379 -10.25138 -10.24967
 Alpha  occ. eigenvalues --  -10.24821 -10.24735 -10.24246 -10.24219 -10.24168
 Alpha  occ. eigenvalues --  -10.24125 -10.23960 -10.23826 -10.23694 -10.23626
 Alpha  occ. eigenvalues --  -10.23625 -10.23446 -10.23436 -10.23420 -10.23404
 Alpha  occ. eigenvalues --  -10.23272 -10.23055 -10.23030 -10.22833 -10.22790
 Alpha  occ. eigenvalues --  -10.22788 -10.22659 -10.22638 -10.22615 -10.22448
 Alpha  occ. eigenvalues --  -10.22030 -10.21938 -10.21833 -10.21774 -10.21762
 Alpha  occ. eigenvalues --  -10.21340  -3.14267  -1.87115  -1.86639  -1.86477
 Alpha  occ. eigenvalues --   -1.10859  -1.08985  -1.05081  -1.03131  -1.02522
 Alpha  occ. eigenvalues --   -1.00389  -0.98782  -0.97709  -0.97525  -0.96657
 Alpha  occ. eigenvalues --   -0.86905  -0.84892  -0.83930  -0.83749  -0.83670
 Alpha  occ. eigenvalues --   -0.82786  -0.82735  -0.81845  -0.81517  -0.81397
 Alpha  occ. eigenvalues --   -0.81290  -0.79793  -0.78976  -0.78366  -0.78013
 Alpha  occ. eigenvalues --   -0.77264  -0.76761  -0.76050  -0.75421  -0.74951
 Alpha  occ. eigenvalues --   -0.74402  -0.72850  -0.72430  -0.71600  -0.70175
 Alpha  occ. eigenvalues --   -0.69897  -0.69706  -0.69210  -0.68799  -0.68335
 Alpha  occ. eigenvalues --   -0.68046  -0.67618  -0.66361  -0.65283  -0.63426
 Alpha  occ. eigenvalues --   -0.63080  -0.62419  -0.61820  -0.61160  -0.60147
 Alpha  occ. eigenvalues --   -0.60038  -0.59897  -0.59761  -0.58946  -0.58064
 Alpha  occ. eigenvalues --   -0.57802  -0.57574  -0.57267  -0.56151  -0.54614
 Alpha  occ. eigenvalues --   -0.54489  -0.53936  -0.53734  -0.52973  -0.52825
 Alpha  occ. eigenvalues --   -0.52309  -0.51906  -0.51119  -0.50665  -0.50281
 Alpha  occ. eigenvalues --   -0.49877  -0.49447  -0.49020  -0.48840  -0.48613
 Alpha  occ. eigenvalues --   -0.48171  -0.48105  -0.47903  -0.47759  -0.47663
 Alpha  occ. eigenvalues --   -0.47422  -0.46859  -0.46466  -0.46297  -0.46038
 Alpha  occ. eigenvalues --   -0.45952  -0.45777  -0.45625  -0.45466  -0.45154
 Alpha  occ. eigenvalues --   -0.44976  -0.44953  -0.44674  -0.44523  -0.44290
 Alpha  occ. eigenvalues --   -0.44176  -0.43825  -0.43640  -0.43522  -0.43182
 Alpha  occ. eigenvalues --   -0.42926  -0.42750  -0.42668  -0.42429  -0.42346
 Alpha  occ. eigenvalues --   -0.42240  -0.42049  -0.41815  -0.41511  -0.41395
 Alpha  occ. eigenvalues --   -0.41128  -0.40728  -0.40657  -0.40385  -0.40283
 Alpha  occ. eigenvalues --   -0.39953  -0.39870  -0.39817  -0.39631  -0.39384
 Alpha  occ. eigenvalues --   -0.39220  -0.39079  -0.39050  -0.38841  -0.38474
 Alpha  occ. eigenvalues --   -0.38324  -0.38282  -0.37932  -0.37622  -0.37478
 Alpha  occ. eigenvalues --   -0.37405  -0.37283  -0.36941  -0.36665  -0.36566
 Alpha  occ. eigenvalues --   -0.36445  -0.36412  -0.36200  -0.35935  -0.35724
 Alpha  occ. eigenvalues --   -0.35681  -0.35634  -0.35187  -0.35068  -0.34995
 Alpha  occ. eigenvalues --   -0.34657  -0.34369  -0.34280  -0.33984  -0.33504
 Alpha  occ. eigenvalues --   -0.33397  -0.33038  -0.32908  -0.32672  -0.32492
 Alpha  occ. eigenvalues --   -0.32282  -0.32184  -0.31880  -0.31733  -0.31113
 Alpha  occ. eigenvalues --   -0.31022  -0.30084  -0.29756  -0.29641  -0.28907
 Alpha  occ. eigenvalues --   -0.28847  -0.28718  -0.27865  -0.27106  -0.26367
 Alpha  occ. eigenvalues --   -0.25646  -0.24896  -0.24764  -0.24609  -0.21010
 Alpha  occ. eigenvalues --   -0.18938
 Alpha virt. eigenvalues --   -0.11414  -0.05150  -0.03547  -0.01836  -0.00669
 Alpha virt. eigenvalues --   -0.00427  -0.00208   0.00389   0.01178   0.03300
 Alpha virt. eigenvalues --    0.04655   0.04848   0.04930   0.05560   0.05682

 Mulliken charges:
               1
     1  Mg   0.928591
     2  C    0.076318
     3  C   -0.091533
     4  C   -0.045816
     5  C   -0.067334
     6  N   -0.406454
     7  C    0.022054
     8  C   -0.025211
     9  C   -0.130876
    10  C    0.083721
    11  C   -0.003657
    12  C   -0.016097
    13  C   -0.027966
    14  C    0.257398
    15  O   -0.250221
    16  O   -0.380709
    17  N   -0.530412
    18  C    0.223249
    19  C   -0.191418
    20  C   -0.093865
    21  C    0.174635
    22  C    0.048079
    23  C    0.079757
    24  O   -0.231763
    25  C   -0.032390
    26  N   -0.387693
    27  C    0.040729
    28  C   -0.095598
    29  C   -0.094272
    30  C    0.049900
    31  C    0.018939
    32  C   -0.010541
    33  C   -0.081500
    34  N   -0.433627
    35  C    0.154435
    36  C   -0.178521
    37  C   -0.036095
    38  C    0.123510
    39  C    0.063979
    40  C    0.141459
    41  O   -0.239194
    42  C   -0.144244
    43  C    0.308173
    44  O   -0.286618
    45  O   -0.365619
    46  C    0.122586
    47  C    0.233218
    48  C   -0.137348
    49  C   -0.226813
    50  C    0.010297
    51  C    0.006662
    52  C   -0.055742
    53  C   -0.016318
    54  C   -0.230773
    55  C    0.023554
    56  C   -0.016924
    57  C   -0.075700
    58  C    0.007915
    59  C   -0.225960
    60  C    0.004019
    61  C   -0.009802
    62  C   -0.049417
    63  C   -0.028461
    64  C   -0.242799
    65  C   -0.003632
    66  C   -0.048025
    67  H   -0.005107
    68  H    0.021335
    69  H   -0.004744
    70  H    0.083134
    71  H    0.042017
    72  H    0.056853
    73  H    0.031889
    74  H    0.055710
    75  H    0.025716
    76  H    0.057611
    77  H    0.065660
    78  H    0.057446
    79  H    0.039763
    80  H    0.046997
    81  H    0.068377
    82  H    0.040245
    83  H    0.069791
    84  H    0.069601
    85  H    0.055311
    86  H    0.039259
    87  H    0.053452
    88  H    0.051809
    89  H    0.042341
    90  H    0.032775
    91  H    0.033237
    92  H    0.040745
    93  H    0.035048
    94  H    0.054330
    95  H    0.068426
    96  H    0.059302
    97  H    0.045950
    98  H    0.080602
    99  H    0.050370
   100  H    0.056336
   101  H    0.053118
   102  H    0.048856
   103  H    0.066640
   104  H    0.029689
   105  H    0.041523
   106  H    0.061834
   107  H    0.048722
   108  H    0.031402
   109  H    0.043792
   110  H    0.019410
   111  H    0.022174
   112  H    0.033434
   113  H    0.044223
   114  H    0.034500
   115  H    0.035665
   116  H    0.025174
   117  H    0.031984
   118  H    0.034572
   119  H    0.029609
   120  H    0.056578
   121  H    0.036560
   122  H    0.026439
   123  H    0.035231
   124  H    0.035253
   125  H    0.025015
   126  H    0.025415
   127  H    0.030598
   128  H    0.036067
   129  H    0.030420
   130  H    0.022128
   131  H    0.032262
   132  H    0.024693
   133  H    0.026653
   134  H    0.037379
   135  H    0.032370
   136  H    0.046819
   137  H    0.032747
   138  H    0.024028
   139  H    0.043620
   140  H    0.025603
 Sum of Mulliken charges =  -0.00000

 Dipole moment (field-independent basis, Debye):
    X=             -4.2488    Y=              4.2785    Z=              2.6286  Tot=              6.5777
 Quadrupole moment (field-independent basis, Debye-Ang):
   XX=           -366.5184   YY=           -419.8083   ZZ=           -403.7317
   XY=             12.4555   XZ=             28.4097   YZ=             -2.6282

 Normal termination of Gaussian 16 at Tue Apr 26 23:00:17 2022.
