 Gaussian 16, Revision A.03,
 Gaussian 16:  ES64L-G16RevA.03 25-Dec-2016

 --------------------------------
 #p wB97XD/Def2SVP td=(nstates=5)
 --------------------------------

 ----------------------------------------------------
 step_1001_chromophore_7 TDDFT with wB97XD functional
 ----------------------------------------------------
 Symbolic Z-matrix:
 Charge =  0 Multiplicity = 1

                         Standard orientation:
 ---------------------------------------------------------------------
 Center     Atomic      Atomic             Coordinates (Angstroms)
 Number     Number       Type             X           Y           Z
 ---------------------------------------------------------------------
      1         12           0        6.092613    0.594376    0.219244
      2          6           0        3.794880   -2.042149    0.096518
      3          6           0        3.671275    2.649117   -0.846374
      4          6           0        8.425571    2.914999    0.070604
      5          6           0        8.626068   -1.846298    0.898657
      6          7           0        4.003018    0.241782   -0.571250
      7          6           0        3.204206   -0.868042   -0.205822
      8          6           0        1.808899   -0.626061   -0.508460
      9          6           0        1.780908    0.903297   -0.895685
     10          6           0        3.216776    1.344520   -0.754352
     11          6           0        1.094802    1.271213   -2.300534
     12          6           0        0.738961   -1.246603    0.454883
     13          6           0       -0.715544   -0.825378    0.361359
     14          6           0       -1.669780   -1.716051   -0.421073
     15          8           0       -1.376767   -2.405113   -1.379694
     16          8           0       -2.964770   -1.386267   -0.039170
     17          7           0        6.032151    2.571316   -0.331584
     18          6           0        4.948303    3.219480   -0.758920
     19          6           0        5.298221    4.597452   -0.898879
     20          6           0        6.722693    4.737452   -0.787870
     21          6           0        7.197776    3.406107   -0.350286
     22          6           0        4.213405    5.652814   -1.242800
     23          6           0        7.666769    5.904252   -1.053108
     24          8           0        8.890059    5.912840   -0.996667
     25          6           0        6.985272    7.094818   -1.328892
     26          7           0        8.229653    0.525771    0.479713
     27          6           0        8.970764    1.687287    0.399963
     28          6           0       10.454677    1.498318    0.857518
     29          6           0       10.372785    0.010055    1.375812
     30          6           0        8.992372   -0.507055    0.907010
     31          6           0       11.532942    1.716663   -0.222297
     32          6           0       10.613125   -0.286804    2.814382
     33          6           0       11.110281   -1.662493    3.202921
     34          7           0        6.248567   -1.581164    0.457513
     35          6           0        7.346076   -2.387988    0.684261
     36          6           0        6.932165   -3.723106    0.770356
     37          6           0        5.550545   -3.622299    0.650145
     38          6           0        5.142172   -2.306437    0.412498
     39          6           0        7.774760   -4.888956    0.905635
     40          6           0        4.334079   -4.431468    0.591830
     41          8           0        4.196242   -5.650918    0.812668
     42          6           0        3.158826   -3.416587    0.294129
     43          6           0        2.398686   -3.955761   -0.844511
     44          8           0        2.740127   -3.729228   -2.037092
     45          8           0        1.290377   -4.724528   -0.477086
     46          6           0        0.482885   -5.264689   -1.535728
     47          6           0       -4.066812   -2.150708   -0.767407
     48          6           0       -5.409857   -1.470641   -0.576071
     49          6           0       -6.601955   -2.100556   -0.287542
     50          6           0       -6.797070   -3.568839   -0.293945
     51          6           0       -7.902761   -1.255592   -0.169846
     52          6           0       -8.704926   -1.131797   -1.467825
     53          6           0       -9.326321    0.302860   -1.664259
     54          6           0      -10.418244    0.458684   -2.745112
     55          6           0       -9.953391    1.329176   -3.915699
     56          6           0      -11.744819    1.077535   -2.209136
     57          6           0      -12.394779    0.124952   -1.156370
     58          6           0      -13.965021    0.160304   -1.037169
     59          6           0      -14.313385   -0.271566    0.448474
     60          6           0      -15.696635   -0.908060    0.542746
     61          6           0      -14.276973    0.914050    1.397112
     62          6           0      -13.228587    0.971542    2.581254
     63          6           0      -12.184285    2.149432    2.386592
     64          6           0      -11.821726    2.907516    3.719404
     65          6           0      -12.911218    3.956783    4.128620
     66          6           0      -10.452844    3.631309    3.646455
     67          1           0        2.874348    3.342404   -1.122542
     68          1           0        9.226584    3.656281    0.014541
     69          1           0        9.450842   -2.455359    1.275623
     70          1           0        1.609827   -1.194414   -1.416376
     71          1           0        1.241134    1.530033   -0.186075
     72          1           0        1.689726    2.031920   -2.805917
     73          1           0        0.080709    1.617888   -2.100622
     74          1           0        0.861115    0.409298   -2.925703
     75          1           0        0.980570   -1.234186    1.517573
     76          1           0        0.739178   -2.325502    0.296537
     77          1           0       -0.845216    0.199057    0.010744
     78          1           0       -1.053228   -0.697868    1.389875
     79          1           0        4.444726    6.529185   -0.636903
     80          1           0        3.247514    5.281153   -0.901502
     81          1           0        4.195409    6.009452   -2.272652
     82          1           0        7.742494    7.865971   -1.468472
     83          1           0        6.495799    7.485043   -0.436534
     84          1           0        6.324011    7.090992   -2.194820
     85          1           0       10.594198    2.174197    1.702197
     86          1           0       11.055862   -0.615923    0.801675
     87          1           0       11.044129    1.988399   -1.158303
     88          1           0       12.244004    0.895984   -0.314547
     89          1           0       12.112603    2.617313   -0.021960
     90          1           0        9.740953   -0.217522    3.464325
     91          1           0       11.302363    0.387416    3.324356
     92          1           0       12.009960   -1.452782    3.780155
     93          1           0       11.433880   -2.249147    2.342107
     94          1           0       10.386370   -2.284052    3.729197
     95          1           0        7.121875   -5.703563    0.594264
     96          1           0        8.315037   -5.094679    1.829992
     97          1           0        8.527338   -4.677271    0.145616
     98          1           0        2.560742   -3.462796    1.205115
     99          1           0        1.054647   -5.569662   -2.413264
    100          1           0       -0.135161   -4.436371   -1.883774
    101          1           0       -0.192379   -6.098271   -1.342517
    102          1           0       -4.137836   -3.217680   -0.553517
    103          1           0       -4.109634   -2.116018   -1.855852
    104          1           0       -5.390363   -0.400255   -0.779621
    105          1           0       -7.859362   -3.741598   -0.470305
    106          1           0       -6.532194   -4.146273    0.591512
    107          1           0       -6.187400   -3.979654   -1.098771
    108          1           0       -7.576430   -0.231996    0.014233
    109          1           0       -8.506648   -1.688133    0.627250
    110          1           0       -9.403882   -1.961548   -1.573823
    111          1           0       -8.027985   -1.465569   -2.253944
    112          1           0       -8.434234    0.881292   -1.904915
    113          1           0       -9.622121    0.619429   -0.663819
    114          1           0      -10.630741   -0.533880   -3.141758
    115          1           0       -8.957511    1.718467   -3.704303
    116          1           0      -10.707485    2.093643   -4.105495
    117          1           0       -9.988102    0.748096   -4.837046
    118          1           0      -12.423786    1.425655   -2.987764
    119          1           0      -11.299492    1.959383   -1.747702
    120          1           0      -11.988543    0.310970   -0.161808
    121          1           0      -12.270867   -0.912007   -1.468686
    122          1           0      -14.368349   -0.659823   -1.630560
    123          1           0      -14.351468    1.123469   -1.368490
    124          1           0      -13.562285   -0.989535    0.780038
    125          1           0      -16.235145   -1.024448   -0.397464
    126          1           0      -16.394383   -0.327631    1.147200
    127          1           0      -15.663159   -1.886417    1.021454
    128          1           0      -15.088334    0.999392    2.120437
    129          1           0      -14.280120    1.825652    0.800893
    130          1           0      -12.653244    0.048014    2.631505
    131          1           0      -13.697520    0.944507    3.564550
    132          1           0      -12.596001    2.877938    1.688774
    133          1           0      -11.216638    1.872684    1.966458
    134          1           0      -11.622090    2.141064    4.468084
    135          1           0      -12.421080    4.930381    4.134449
    136          1           0      -13.298323    3.639570    5.096696
    137          1           0      -13.710130    4.081881    3.397358
    138          1           0       -9.633068    3.003912    3.298132
    139          1           0      -10.160188    4.062534    4.604249
    140          1           0      -10.413029    4.401164    2.876637
 ---------------------------------------------------------------------

 SCF Done:  E(RwB97XD) =  -3007.82870491     A.U. after   17 cycles

 Excitation energies and oscillator strengths:

 Excited State   1:      Singlet-A      1.6409 eV  755.58 nm  f=0.4019  <S**2>=0.000
     245 -> 248        0.16734
     246 -> 247        0.68619
     245 <- 248        0.10849
 This state for optimization and/or second-order correction.
 Total Energy, E(TD-HF/TD-DFT) =  -3007.76840205
 Copying the excited state density for this state as the 1-particle RhoCI density.

 Excited State   2:      Singlet-A      2.1412 eV  579.04 nm  f=0.1285  <S**2>=0.000
     245 -> 247        0.65072
     246 -> 248       -0.24774

 Excited State   3:      Singlet-A      3.1877 eV  388.95 nm  f=0.0038  <S**2>=0.000
     241 -> 247       -0.17467
     244 -> 247        0.66389

 Excited State   4:      Singlet-A      3.4187 eV  362.67 nm  f=0.0202  <S**2>=0.000
     241 -> 247        0.33555
     242 -> 247        0.47120
     242 -> 249       -0.20713
     242 -> 250        0.18794
     246 -> 248        0.22307

 Excited State   5:      Singlet-A      3.4477 eV  359.62 nm  f=0.0125  <S**2>=0.000
     241 -> 247        0.48781
     242 -> 247       -0.34404
     242 -> 249        0.14912
     242 -> 250       -0.13963
     244 -> 247        0.13071
     246 -> 248        0.24529

 The electronic state is 1-A.
 Alpha  occ. eigenvalues --  -46.95311 -19.31224 -19.29638 -19.26136 -19.24399
 Alpha  occ. eigenvalues --  -19.23740 -19.23205 -14.46566 -14.45912 -14.43984
 Alpha  occ. eigenvalues --  -14.42552 -10.44154 -10.42893 -10.38868 -10.38402
 Alpha  occ. eigenvalues --  -10.36753 -10.35107 -10.34964 -10.34792 -10.34250
 Alpha  occ. eigenvalues --  -10.34096 -10.34064 -10.33353 -10.33291 -10.32416
 Alpha  occ. eigenvalues --  -10.32331 -10.32292 -10.32089 -10.32010 -10.31998
 Alpha  occ. eigenvalues --  -10.31735 -10.31703 -10.31664 -10.31385 -10.31337
 Alpha  occ. eigenvalues --  -10.31167 -10.31099 -10.30726 -10.30502 -10.30493
 Alpha  occ. eigenvalues --  -10.30479 -10.30443 -10.30348 -10.30137 -10.29992
 Alpha  occ. eigenvalues --  -10.29896 -10.29764 -10.29720 -10.29706 -10.29702
 Alpha  occ. eigenvalues --  -10.29691 -10.29423 -10.29386 -10.29194 -10.29164
 Alpha  occ. eigenvalues --  -10.29159 -10.29145 -10.29051 -10.28993 -10.28930
 Alpha  occ. eigenvalues --  -10.28373 -10.28359 -10.28199 -10.28175 -10.27901
 Alpha  occ. eigenvalues --  -10.27763  -3.21124  -1.94717  -1.94242  -1.94078
 Alpha  occ. eigenvalues --   -1.18214  -1.16333  -1.12755  -1.10443  -1.09850
 Alpha  occ. eigenvalues --   -1.07719  -1.06023  -1.05144  -1.04950  -1.04083
 Alpha  occ. eigenvalues --   -0.94401  -0.92564  -0.91574  -0.91346  -0.91294
 Alpha  occ. eigenvalues --   -0.90445  -0.90390  -0.89526  -0.89198  -0.88993
 Alpha  occ. eigenvalues --   -0.88953  -0.87405  -0.86639  -0.85992  -0.85599
 Alpha  occ. eigenvalues --   -0.85074  -0.84422  -0.83680  -0.83050  -0.82518
 Alpha  occ. eigenvalues --   -0.82080  -0.80403  -0.80145  -0.79214  -0.77831
 Alpha  occ. eigenvalues --   -0.77479  -0.77287  -0.76910  -0.76472  -0.75997
 Alpha  occ. eigenvalues --   -0.75590  -0.75152  -0.73908  -0.72878  -0.71025
 Alpha  occ. eigenvalues --   -0.70614  -0.70048  -0.69403  -0.68771  -0.67657
 Alpha  occ. eigenvalues --   -0.67573  -0.67488  -0.67190  -0.66333  -0.65750
 Alpha  occ. eigenvalues --   -0.65270  -0.65182  -0.64902  -0.63489  -0.62186
 Alpha  occ. eigenvalues --   -0.62001  -0.61323  -0.61143  -0.60302  -0.60277
 Alpha  occ. eigenvalues --   -0.59670  -0.59337  -0.58512  -0.58162  -0.57708
 Alpha  occ. eigenvalues --   -0.57276  -0.56826  -0.56420  -0.56204  -0.56029
 Alpha  occ. eigenvalues --   -0.55673  -0.55528  -0.55469  -0.55194  -0.55000
 Alpha  occ. eigenvalues --   -0.54781  -0.54231  -0.53735  -0.53665  -0.53354
 Alpha  occ. eigenvalues --   -0.53333  -0.53113  -0.53002  -0.52742  -0.52532
 Alpha  occ. eigenvalues --   -0.52372  -0.52319  -0.52056  -0.51941  -0.51612
 Alpha  occ. eigenvalues --   -0.51459  -0.51107  -0.50918  -0.50818  -0.50549
 Alpha  occ. eigenvalues --   -0.50240  -0.50007  -0.49935  -0.49709  -0.49549
 Alpha  occ. eigenvalues --   -0.49461  -0.49306  -0.49245  -0.48730  -0.48582
 Alpha  occ. eigenvalues --   -0.48285  -0.47975  -0.47777  -0.47558  -0.47428
 Alpha  occ. eigenvalues --   -0.47163  -0.47069  -0.46978  -0.46811  -0.46477
 Alpha  occ. eigenvalues --   -0.46351  -0.46283  -0.46213  -0.45926  -0.45548
 Alpha  occ. eigenvalues --   -0.45429  -0.45386  -0.45128  -0.44750  -0.44645
 Alpha  occ. eigenvalues --   -0.44586  -0.44398  -0.44081  -0.43741  -0.43722
 Alpha  occ. eigenvalues --   -0.43643  -0.43514  -0.43268  -0.43022  -0.42773
 Alpha  occ. eigenvalues --   -0.42756  -0.42663  -0.42179  -0.42145  -0.42067
 Alpha  occ. eigenvalues --   -0.41646  -0.41431  -0.41208  -0.41045  -0.40487
 Alpha  occ. eigenvalues --   -0.40433  -0.40085  -0.39982  -0.39625  -0.39532
 Alpha  occ. eigenvalues --   -0.39332  -0.39251  -0.38905  -0.38679  -0.38038
 Alpha  occ. eigenvalues --   -0.38035  -0.37162  -0.36748  -0.36505  -0.35792
 Alpha  occ. eigenvalues --   -0.35519  -0.35465  -0.34956  -0.33826  -0.33615
 Alpha  occ. eigenvalues --   -0.32349  -0.31798  -0.31460  -0.30958  -0.26045
 Alpha  occ. eigenvalues --   -0.23119
 Alpha virt. eigenvalues --   -0.07329   0.00373   0.02658   0.04688   0.05331
 Alpha virt. eigenvalues --    0.06246   0.06532   0.07225   0.07902   0.09990
 Alpha virt. eigenvalues --    0.10914   0.11564   0.11611   0.12330   0.12419

 Mulliken charges:
               1
     1  Mg   0.922120
     2  C    0.071244
     3  C   -0.110899
     4  C   -0.052264
     5  C   -0.077046
     6  N   -0.380707
     7  C   -0.006096
     8  C   -0.001593
     9  C   -0.107821
    10  C    0.077258
    11  C    0.008482
    12  C    0.005753
    13  C   -0.015739
    14  C    0.249083
    15  O   -0.247124
    16  O   -0.380758
    17  N   -0.501241
    18  C    0.214997
    19  C   -0.183364
    20  C   -0.084774
    21  C    0.164644
    22  C    0.061983
    23  C    0.077532
    24  O   -0.223179
    25  C   -0.024221
    26  N   -0.353382
    27  C    0.025721
    28  C   -0.071836
    29  C   -0.058637
    30  C    0.028549
    31  C    0.027733
    32  C    0.000264
    33  C   -0.068319
    34  N   -0.393018
    35  C    0.140445
    36  C   -0.168394
    37  C   -0.031176
    38  C    0.104474
    39  C    0.073617
    40  C    0.117666
    41  O   -0.230429
    42  C   -0.103328
    43  C    0.285559
    44  O   -0.280489
    45  O   -0.363725
    46  C    0.140383
    47  C    0.248038
    48  C   -0.146753
    49  C   -0.212764
    50  C    0.020335
    51  C    0.029539
    52  C   -0.043295
    53  C    0.002746
    54  C   -0.202112
    55  C    0.035351
    56  C    0.002541
    57  C   -0.049901
    58  C    0.020016
    59  C   -0.191966
    60  C    0.015013
    61  C    0.002547
    62  C   -0.036135
    63  C   -0.010350
    64  C   -0.214130
    65  C    0.006615
    66  C   -0.034076
    67  H   -0.015131
    68  H    0.015915
    69  H   -0.015157
    70  H    0.069143
    71  H    0.030888
    72  H    0.050687
    73  H    0.025681
    74  H    0.051627
    75  H    0.018868
    76  H    0.036185
    77  H    0.057425
    78  H    0.053181
    79  H    0.032988
    80  H    0.043806
    81  H    0.065145
    82  H    0.039329
    83  H    0.065348
    84  H    0.065110
    85  H    0.046472
    86  H    0.024498
    87  H    0.047286
    88  H    0.047421
    89  H    0.037118
    90  H    0.024134
    91  H    0.025272
    92  H    0.036258
    93  H    0.028033
    94  H    0.049475
    95  H    0.064047
    96  H    0.055194
    97  H    0.038699
    98  H    0.073561
    99  H    0.045912
   100  H    0.048322
   101  H    0.049720
   102  H    0.043800
   103  H    0.061068
   104  H    0.027454
   105  H    0.035956
   106  H    0.058110
   107  H    0.042519
   108  H    0.020793
   109  H    0.036881
   110  H    0.010187
   111  H    0.011794
   112  H    0.022277
   113  H    0.032519
   114  H    0.021501
   115  H    0.029790
   116  H    0.018408
   117  H    0.026813
   118  H    0.027010
   119  H    0.017569
   120  H    0.036439
   121  H    0.026082
   122  H    0.017493
   123  H    0.027887
   124  H    0.022394
   125  H    0.019322
   126  H    0.018765
   127  H    0.025566
   128  H    0.026961
   129  H    0.019684
   130  H    0.013497
   131  H    0.025315
   132  H    0.012440
   133  H    0.017167
   134  H    0.026393
   135  H    0.026233
   136  H    0.041832
   137  H    0.026635
   138  H    0.017761
   139  H    0.037980
   140  H    0.018034
 Sum of Mulliken charges =  -0.00000

 Dipole moment (field-independent basis, Debye):
    X=             -4.2185    Y=              4.8201    Z=              2.5643  Tot=              6.8996
 Quadrupole moment (field-independent basis, Debye-Ang):
   XX=           -366.1815   YY=           -417.6857   ZZ=           -403.3943
   XY=             15.9557   XZ=             27.7362   YZ=             -3.0526

 Normal termination of Gaussian 16 at Tue Apr 26 23:23:29 2022.
