 Gaussian 16, Revision A.03,
 Gaussian 16:  ES64L-G16RevA.03 25-Dec-2016

 --------------------
 #p ZINDO=(nstates=5)
 --------------------

 -----------------------------
 step_1001_chromophore_7 ZINDO
 -----------------------------
 Symbolic Z-matrix:
 Charge =  0 Multiplicity = 1

                         Standard orientation:
 ---------------------------------------------------------------------
 Center     Atomic      Atomic             Coordinates (Angstroms)
 Number     Number       Type             X           Y           Z
 ---------------------------------------------------------------------
      1         12           0        6.092613    0.594376    0.219244
      2          6           0        3.794880   -2.042149    0.096518
      3          6           0        3.671275    2.649117   -0.846374
      4          6           0        8.425571    2.914999    0.070604
      5          6           0        8.626068   -1.846298    0.898657
      6          7           0        4.003018    0.241782   -0.571250
      7          6           0        3.204206   -0.868042   -0.205822
      8          6           0        1.808899   -0.626061   -0.508460
      9          6           0        1.780908    0.903297   -0.895685
     10          6           0        3.216776    1.344520   -0.754352
     11          6           0        1.094802    1.271213   -2.300534
     12          6           0        0.738961   -1.246603    0.454883
     13          6           0       -0.715544   -0.825378    0.361359
     14          6           0       -1.669780   -1.716051   -0.421073
     15          8           0       -1.376767   -2.405113   -1.379694
     16          8           0       -2.964770   -1.386267   -0.039170
     17          7           0        6.032151    2.571316   -0.331584
     18          6           0        4.948303    3.219480   -0.758920
     19          6           0        5.298221    4.597452   -0.898879
     20          6           0        6.722693    4.737452   -0.787870
     21          6           0        7.197776    3.406107   -0.350286
     22          6           0        4.213405    5.652814   -1.242800
     23          6           0        7.666769    5.904252   -1.053108
     24          8           0        8.890059    5.912840   -0.996667
     25          6           0        6.985272    7.094818   -1.328892
     26          7           0        8.229653    0.525771    0.479713
     27          6           0        8.970764    1.687287    0.399963
     28          6           0       10.454677    1.498318    0.857518
     29          6           0       10.372785    0.010055    1.375812
     30          6           0        8.992372   -0.507055    0.907010
     31          6           0       11.532942    1.716663   -0.222297
     32          6           0       10.613125   -0.286804    2.814382
     33          6           0       11.110281   -1.662493    3.202921
     34          7           0        6.248567   -1.581164    0.457513
     35          6           0        7.346076   -2.387988    0.684261
     36          6           0        6.932165   -3.723106    0.770356
     37          6           0        5.550545   -3.622299    0.650145
     38          6           0        5.142172   -2.306437    0.412498
     39          6           0        7.774760   -4.888956    0.905635
     40          6           0        4.334079   -4.431468    0.591830
     41          8           0        4.196242   -5.650918    0.812668
     42          6           0        3.158826   -3.416587    0.294129
     43          6           0        2.398686   -3.955761   -0.844511
     44          8           0        2.740127   -3.729228   -2.037092
     45          8           0        1.290377   -4.724528   -0.477086
     46          6           0        0.482885   -5.264689   -1.535728
     47          6           0       -4.066812   -2.150708   -0.767407
     48          6           0       -5.409857   -1.470641   -0.576071
     49          6           0       -6.601955   -2.100556   -0.287542
     50          6           0       -6.797070   -3.568839   -0.293945
     51          6           0       -7.902761   -1.255592   -0.169846
     52          6           0       -8.704926   -1.131797   -1.467825
     53          6           0       -9.326321    0.302860   -1.664259
     54          6           0      -10.418244    0.458684   -2.745112
     55          6           0       -9.953391    1.329176   -3.915699
     56          6           0      -11.744819    1.077535   -2.209136
     57          6           0      -12.394779    0.124952   -1.156370
     58          6           0      -13.965021    0.160304   -1.037169
     59          6           0      -14.313385   -0.271566    0.448474
     60          6           0      -15.696635   -0.908060    0.542746
     61          6           0      -14.276973    0.914050    1.397112
     62          6           0      -13.228587    0.971542    2.581254
     63          6           0      -12.184285    2.149432    2.386592
     64          6           0      -11.821726    2.907516    3.719404
     65          6           0      -12.911218    3.956783    4.128620
     66          6           0      -10.452844    3.631309    3.646455
     67          1           0        2.874348    3.342404   -1.122542
     68          1           0        9.226584    3.656281    0.014541
     69          1           0        9.450842   -2.455359    1.275623
     70          1           0        1.609827   -1.194414   -1.416376
     71          1           0        1.241134    1.530033   -0.186075
     72          1           0        1.689726    2.031920   -2.805917
     73          1           0        0.080709    1.617888   -2.100622
     74          1           0        0.861115    0.409298   -2.925703
     75          1           0        0.980570   -1.234186    1.517573
     76          1           0        0.739178   -2.325502    0.296537
     77          1           0       -0.845216    0.199057    0.010744
     78          1           0       -1.053228   -0.697868    1.389875
     79          1           0        4.444726    6.529185   -0.636903
     80          1           0        3.247514    5.281153   -0.901502
     81          1           0        4.195409    6.009452   -2.272652
     82          1           0        7.742494    7.865971   -1.468472
     83          1           0        6.495799    7.485043   -0.436534
     84          1           0        6.324011    7.090992   -2.194820
     85          1           0       10.594198    2.174197    1.702197
     86          1           0       11.055862   -0.615923    0.801675
     87          1           0       11.044129    1.988399   -1.158303
     88          1           0       12.244004    0.895984   -0.314547
     89          1           0       12.112603    2.617313   -0.021960
     90          1           0        9.740953   -0.217522    3.464325
     91          1           0       11.302363    0.387416    3.324356
     92          1           0       12.009960   -1.452782    3.780155
     93          1           0       11.433880   -2.249147    2.342107
     94          1           0       10.386370   -2.284052    3.729197
     95          1           0        7.121875   -5.703563    0.594264
     96          1           0        8.315037   -5.094679    1.829992
     97          1           0        8.527338   -4.677271    0.145616
     98          1           0        2.560742   -3.462796    1.205115
     99          1           0        1.054647   -5.569662   -2.413264
    100          1           0       -0.135161   -4.436371   -1.883774
    101          1           0       -0.192379   -6.098271   -1.342517
    102          1           0       -4.137836   -3.217680   -0.553517
    103          1           0       -4.109634   -2.116018   -1.855852
    104          1           0       -5.390363   -0.400255   -0.779621
    105          1           0       -7.859362   -3.741598   -0.470305
    106          1           0       -6.532194   -4.146273    0.591512
    107          1           0       -6.187400   -3.979654   -1.098771
    108          1           0       -7.576430   -0.231996    0.014233
    109          1           0       -8.506648   -1.688133    0.627250
    110          1           0       -9.403882   -1.961548   -1.573823
    111          1           0       -8.027985   -1.465569   -2.253944
    112          1           0       -8.434234    0.881292   -1.904915
    113          1           0       -9.622121    0.619429   -0.663819
    114          1           0      -10.630741   -0.533880   -3.141758
    115          1           0       -8.957511    1.718467   -3.704303
    116          1           0      -10.707485    2.093643   -4.105495
    117          1           0       -9.988102    0.748096   -4.837046
    118          1           0      -12.423786    1.425655   -2.987764
    119          1           0      -11.299492    1.959383   -1.747702
    120          1           0      -11.988543    0.310970   -0.161808
    121          1           0      -12.270867   -0.912007   -1.468686
    122          1           0      -14.368349   -0.659823   -1.630560
    123          1           0      -14.351468    1.123469   -1.368490
    124          1           0      -13.562285   -0.989535    0.780038
    125          1           0      -16.235145   -1.024448   -0.397464
    126          1           0      -16.394383   -0.327631    1.147200
    127          1           0      -15.663159   -1.886417    1.021454
    128          1           0      -15.088334    0.999392    2.120437
    129          1           0      -14.280120    1.825652    0.800893
    130          1           0      -12.653244    0.048014    2.631505
    131          1           0      -13.697520    0.944507    3.564550
    132          1           0      -12.596001    2.877938    1.688774
    133          1           0      -11.216638    1.872684    1.966458
    134          1           0      -11.622090    2.141064    4.468084
    135          1           0      -12.421080    4.930381    4.134449
    136          1           0      -13.298323    3.639570    5.096696
    137          1           0      -13.710130    4.081881    3.397358
    138          1           0       -9.633068    3.003912    3.298132
    139          1           0      -10.160188    4.062534    4.604249
    140          1           0      -10.413029    4.401164    2.876637
 ---------------------------------------------------------------------

 SCF Done:  E(RZINDO/S) =  -474.325680823     A.U. after   20 cycles

 Excitation energies and oscillator strengths:

 Excited State   1:      Singlet-A      1.2360 eV 1003.12 nm  f=0.6295  <S**2>=0.000
     175 ->178         0.17223
     176 ->177         0.66608
 This state for optimization and/or second-order correction.
 Total Energy, E(CIS/TDA) =  -474.280259197
 Copying the excited state density for this state as the 1-particle RhoCI density.

 Excited State   2:      Singlet-A      1.9663 eV  630.56 nm  f=0.0697  <S**2>=0.000
     175 ->177         0.57191
     176 ->178        -0.38047

 Excited State   3:      Singlet-A      2.9839 eV  415.51 nm  f=0.2609  <S**2>=0.000
     167 ->181         0.12550
     168 ->177        -0.12815
     168 ->178         0.10054
     168 ->179         0.18817
     168 ->186         0.12372
     170 ->177         0.24071
     170 ->179         0.23897
     170 ->181        -0.20781
     170 ->186         0.10274
     170 ->187         0.11181
     175 ->177         0.18137
     176 ->178         0.31105

 Excited State   4:      Singlet-A      3.0001 eV  413.27 nm  f=0.0088  <S**2>=0.000
     167 ->177         0.12025
     167 ->178        -0.11666
     167 ->179        -0.19308
     167 ->181        -0.10708
     167 ->186        -0.13737
     168 ->177         0.24544
     168 ->178        -0.19605
     168 ->179        -0.20972
     168 ->181        -0.24331
     168 ->186        -0.15679
     170 ->177         0.13125
     170 ->179         0.21280
     170 ->181        -0.13285
     170 ->186         0.10191

 Excited State   5:      Singlet-A      3.0265 eV  409.66 nm  f=0.5466  <S**2>=0.000
     170 ->177        -0.16120
     170 ->179        -0.16560
     170 ->181         0.15821
     171 ->177         0.12513
     175 ->177         0.25900
     176 ->178         0.44671
     176 ->179         0.23353

 The electronic state is 1-A.
 Alpha  occ. eigenvalues --   -1.85457  -1.80666  -1.79707  -1.71872  -1.70161
 Alpha  occ. eigenvalues --   -1.69158  -1.64544  -1.61512  -1.59933  -1.57223
 Alpha  occ. eigenvalues --   -1.54523  -1.52353  -1.49673  -1.48571  -1.47861
 Alpha  occ. eigenvalues --   -1.43669  -1.41894  -1.40255  -1.39424  -1.37098
 Alpha  occ. eigenvalues --   -1.35926  -1.34969  -1.34075  -1.32862  -1.29341
 Alpha  occ. eigenvalues --   -1.28950  -1.25470  -1.24135  -1.22124  -1.18776
 Alpha  occ. eigenvalues --   -1.17746  -1.14718  -1.14541  -1.13628  -1.13069
 Alpha  occ. eigenvalues --   -1.12467  -1.10927  -1.10699  -1.05061  -1.03509
 Alpha  occ. eigenvalues --   -1.02670  -1.01876  -0.98976  -0.97554  -0.97177
 Alpha  occ. eigenvalues --   -0.96768  -0.94803  -0.92902  -0.92830  -0.92238
 Alpha  occ. eigenvalues --   -0.91179  -0.90812  -0.89539  -0.88347  -0.87488
 Alpha  occ. eigenvalues --   -0.86309  -0.84135  -0.82868  -0.81589  -0.79969
 Alpha  occ. eigenvalues --   -0.79913  -0.78770  -0.77849  -0.76771  -0.76556
 Alpha  occ. eigenvalues --   -0.75449  -0.75161  -0.74567  -0.73919  -0.73357
 Alpha  occ. eigenvalues --   -0.73207  -0.72956  -0.72763  -0.71524  -0.70791
 Alpha  occ. eigenvalues --   -0.69764  -0.69194  -0.69062  -0.68628  -0.67610
 Alpha  occ. eigenvalues --   -0.67546  -0.67429  -0.66612  -0.66268  -0.66125
 Alpha  occ. eigenvalues --   -0.65612  -0.64902  -0.64049  -0.63870  -0.63509
 Alpha  occ. eigenvalues --   -0.63191  -0.62548  -0.62118  -0.61954  -0.61454
 Alpha  occ. eigenvalues --   -0.61024  -0.60352  -0.60077  -0.59744  -0.59593
 Alpha  occ. eigenvalues --   -0.59521  -0.58995  -0.58800  -0.58272  -0.58134
 Alpha  occ. eigenvalues --   -0.57794  -0.57048  -0.56871  -0.56343  -0.56113
 Alpha  occ. eigenvalues --   -0.55687  -0.55241  -0.55164  -0.54564  -0.54361
 Alpha  occ. eigenvalues --   -0.54340  -0.54078  -0.53294  -0.53013  -0.52605
 Alpha  occ. eigenvalues --   -0.52435  -0.52227  -0.52054  -0.51431  -0.51399
 Alpha  occ. eigenvalues --   -0.50839  -0.50808  -0.50737  -0.50200  -0.49907
 Alpha  occ. eigenvalues --   -0.49402  -0.49040  -0.48877  -0.48812  -0.48314
 Alpha  occ. eigenvalues --   -0.48258  -0.48129  -0.47981  -0.47816  -0.47318
 Alpha  occ. eigenvalues --   -0.46979  -0.46954  -0.46407  -0.46286  -0.46086
 Alpha  occ. eigenvalues --   -0.45936  -0.45871  -0.45536  -0.45337  -0.45136
 Alpha  occ. eigenvalues --   -0.45125  -0.45019  -0.44612  -0.44479  -0.44261
 Alpha  occ. eigenvalues --   -0.44106  -0.43776  -0.42925  -0.42628  -0.41969
 Alpha  occ. eigenvalues --   -0.41331  -0.41266  -0.40095  -0.39652  -0.39149
 Alpha  occ. eigenvalues --   -0.37533  -0.36336  -0.35623  -0.35051  -0.33967
 Alpha  occ. eigenvalues --   -0.33294  -0.32787  -0.31905  -0.31303  -0.26867
 Alpha  occ. eigenvalues --   -0.21895
 Alpha virt. eigenvalues --   -0.08763  -0.01874  -0.00333   0.01215   0.01338
 Alpha virt. eigenvalues --    0.02046   0.02958   0.03223   0.04184   0.05054
 Alpha virt. eigenvalues --    0.06578   0.06750   0.07459   0.07827   0.08506

 Mulliken charges:
               1
     1  Mg   0.427834
     2  C   -0.036409
     3  C   -0.100970
     4  C   -0.035010
     5  C   -0.050903
     6  N   -0.320826
     7  C    0.132629
     8  C    0.014432
     9  C    0.004638
    10  C    0.166394
    11  C   -0.054864
    12  C   -0.027652
    13  C    0.007687
    14  C    0.468858
    15  O   -0.497784
    16  O   -0.271652
    17  N   -0.333921
    18  C    0.153387
    19  C    0.004443
    20  C   -0.037442
    21  C    0.109781
    22  C   -0.050853
    23  C    0.351227
    24  O   -0.519681
    25  C   -0.027713
    26  N   -0.259682
    27  C    0.131647
    28  C    0.008554
    29  C    0.010295
    30  C    0.105420
    31  C   -0.048507
    32  C   -0.021584
    33  C   -0.058123
    34  N   -0.331743
    35  C    0.079692
    36  C    0.050648
    37  C   -0.061963
    38  C    0.125008
    39  C   -0.039462
    40  C    0.320105
    41  O   -0.537871
    42  C    0.061289
    43  C    0.491016
    44  O   -0.539901
    45  O   -0.259050
    46  C    0.072901
    47  C    0.092351
    48  C   -0.092199
    49  C   -0.019697
    50  C   -0.039092
    51  C   -0.025216
    52  C   -0.039119
    53  C   -0.030511
    54  C   -0.009579
    55  C   -0.062676
    56  C   -0.039123
    57  C   -0.047977
    58  C   -0.043172
    59  C   -0.001301
    60  C   -0.058723
    61  C   -0.044244
    62  C   -0.041206
    63  C   -0.038830
    64  C   -0.016457
    65  C   -0.057305
    66  C   -0.059297
    67  H    0.013593
    68  H    0.028319
    69  H    0.027561
    70  H    0.050881
    71  H    0.022654
    72  H    0.031526
    73  H    0.013726
    74  H    0.033917
    75  H    0.017264
    76  H    0.029232
    77  H    0.044852
    78  H    0.030299
    79  H    0.018861
    80  H    0.028522
    81  H    0.038229
    82  H    0.022879
    83  H    0.042371
    84  H    0.042146
    85  H    0.034787
    86  H    0.024573
    87  H    0.027948
    88  H    0.029123
    89  H    0.017760
    90  H    0.016407
    91  H    0.012926
    92  H    0.016979
    93  H    0.013894
    94  H    0.025191
    95  H    0.038069
    96  H    0.039855
    97  H    0.025833
    98  H    0.050187
    99  H    0.042528
   100  H    0.038837
   101  H    0.038784
   102  H    0.052050
   103  H    0.056773
   104  H    0.034341
   105  H    0.020656
   106  H    0.032597
   107  H    0.023543
   108  H    0.019897
   109  H    0.027481
   110  H    0.014350
   111  H    0.016440
   112  H    0.018864
   113  H    0.021953
   114  H    0.017395
   115  H    0.027065
   116  H    0.018245
   117  H    0.014527
   118  H    0.028683
   119  H    0.016780
   120  H    0.028452
   121  H    0.020865
   122  H    0.016774
   123  H    0.031010
   124  H    0.025922
   125  H    0.015768
   126  H    0.014135
   127  H    0.013988
   128  H    0.018297
   129  H    0.021639
   130  H    0.011116
   131  H    0.026160
   132  H    0.017628
   133  H    0.019682
   134  H    0.020799
   135  H    0.020933
   136  H    0.023498
   137  H    0.021413
   138  H    0.007652
   139  H    0.018097
   140  H    0.013071
 Sum of Mulliken charges =  -0.00000

 Dipole moment (field-independent basis, Debye):
    X=             -5.0938    Y=              7.4458    Z=              4.1051  Tot=              9.9115
 N-N= 4.216079870469D+03 E-N= 0.000000000000D+00  KE=-9.106849804243D+03
 Leave Link  601 at Tue Apr 26 23:35:38 2022, MaxMem=  6710886400 cpu:               0.8 elap:               0.1
 (Enter /sw/apps/gaussian-16.0/g16/l9999.exe)
 1\1\GINC-BP1-COMPUTE161\SP\RZINDO CIS\STO-3G\C55H74Mg1N4O6\OF15641\26-
 Apr-2022\0\\#p ZINDO=(nstates=5)\\step_1001_chromophore_7 ZINDO\\0,1\M
 g,0,26.249,-0.093,29.403\C,0,28.129,-0.615,32.308\C,0,23.515,0.187,31.
 318\C,0,24.554,0.064,26.583\C,0,29.201,-0.884,27.533\N,0,25.853,-0.474
 ,31.597\C,0,26.84,-0.351,32.604\C,0,26.234,-0.234,33.914\C,0,24.701,-0
 .048,33.59\C,0,24.637,-0.083,32.083\C,0,23.688,-1.048,34.334\C,0,26.96
 2,0.664,34.973\C,0,26.265,1.047,36.265\C,0,26.576,0.235,37.514\O,0,26.

 Normal termination of Gaussian 16 at Tue Apr 26 23:35:38 2022.
