 Gaussian 16, Revision A.03,
 Gaussian 16:  ES64L-G16RevA.03 25-Dec-2016

 ------------------------------
 #p blyp/Def2SVP td=(nstates=5)
 ------------------------------

 --------------------------------------------------
 step_1301_chromophore_2 TDDFT with blyp functional
 --------------------------------------------------
 Symbolic Z-matrix:
 Charge =  0 Multiplicity = 1

                         Standard orientation:
 ---------------------------------------------------------------------
 Center     Atomic      Atomic             Coordinates (Angstroms)
 Number     Number       Type             X           Y           Z
 ---------------------------------------------------------------------
      1         12           0       -4.419107    1.318307    0.548777
      2          6           0       -4.826330   -2.067296    0.586669
      3          6           0       -1.715759    0.933809    2.833470
      4          6           0       -3.371789    4.553894   -0.220392
      5          6           0       -6.942516    1.637764   -1.669307
      6          7           0       -3.386221   -0.352932    1.545310
      7          6           0       -3.686260   -1.685825    1.388871
      8          6           0       -2.754380   -2.646451    2.228201
      9          6           0       -1.937806   -1.583779    3.010025
     10          6           0       -2.340299   -0.222120    2.428820
     11          6           0       -2.188068   -1.634331    4.514340
     12          6           0       -1.995541   -3.674105    1.402522
     13          6           0       -1.519900   -3.360703   -0.020264
     14          6           0       -0.612735   -4.326753   -0.748176
     15          8           0        0.316545   -4.926666   -0.229647
     16          8           0       -0.974593   -4.365782   -2.090308
     17          7           0       -2.763022    2.634126    1.246143
     18          6           0       -1.898799    2.284602    2.311688
     19          6           0       -1.171170    3.464177    2.656844
     20          6           0       -1.671973    4.571759    1.802374
     21          6           0       -2.651601    3.932000    0.836901
     22          6           0       -0.131098    3.489922    3.730584
     23          6           0       -1.041294    5.950528    1.869512
     24          8           0       -0.217072    6.195947    2.753377
     25          6           0       -1.285329    7.100622    0.925019
     26          7           0       -4.851162    2.797671   -0.969590
     27          6           0       -4.450286    4.055172   -0.987111
     28          6           0       -5.047793    4.874157   -2.133598
     29          6           0       -6.228293    3.915110   -2.534954
     30          6           0       -6.007467    2.702739   -1.633461
     31          6           0       -5.544335    6.248713   -1.735466
     32          6           0       -6.195136    3.596102   -4.067369
     33          6           0       -7.606857    3.674676   -4.663451
     34          7           0       -5.640156    0.052598   -0.364186
     35          6           0       -6.666012    0.340937   -1.248456
     36          6           0       -7.382585   -0.857835   -1.444289
     37          6           0       -6.677748   -1.884936   -0.799090
     38          6           0       -5.633961   -1.222691   -0.139904
     39          6           0       -8.690814   -0.991584   -2.166916
     40          6           0       -6.580700   -3.346695   -0.521648
     41          8           0       -7.261599   -4.255531   -0.990411
     42          6           0       -5.417873   -3.526969    0.451532
     43          6           0       -6.048829   -3.943100    1.810489
     44          8           0       -6.697162   -4.967161    1.973955
     45          8           0       -5.875810   -3.016676    2.789238
     46          6           0       -6.246559   -3.373686    4.171703
     47          6           0        0.175589   -4.848704   -2.892491
     48          6           0        1.210811   -3.764930   -3.050846
     49          6           0        2.432089   -3.751576   -2.513643
     50          6           0        3.122000   -4.728743   -1.668101
     51          6           0        3.209937   -2.483606   -2.855310
     52          6           0        3.844007   -1.614496   -1.702692
     53          6           0        5.437759   -1.496442   -1.542913
     54          6           0        5.918206   -0.252494   -0.695848
     55          6           0        5.921189    1.032380   -1.518615
     56          6           0        7.243617   -0.511618    0.042772
     57          6           0        8.611510   -0.314463   -0.752980
     58          6           0        9.659642    0.520169    0.056358
     59          6           0       10.923486   -0.215464    0.683096
     60          6           0       10.499752   -0.833348    2.049326
     61          6           0       12.158429    0.764224    0.657660
     62          6           0       13.119558    0.480791   -0.558301
     63          6           0       14.591900    0.048891   -0.245062
     64          6           0       15.636888    1.193392   -0.627243
     65          6           0       16.976635    0.555807   -1.071775
     66          6           0       16.009683    2.100012    0.593286
     67          1           0       -0.859286    0.803026    3.497634
     68          1           0       -3.125699    5.613918   -0.310664
     69          1           0       -7.847239    1.759243   -2.267581
     70          1           0       -3.432206   -3.316696    2.757533
     71          1           0       -0.884421   -1.595429    2.730113
     72          1           0       -2.468261   -2.634700    4.842367
     73          1           0       -2.819653   -0.820354    4.867682
     74          1           0       -1.178234   -1.468461    4.889742
     75          1           0       -2.717812   -4.490468    1.414627
     76          1           0       -1.130390   -4.008131    1.974285
     77          1           0       -0.977269   -2.415559   -0.024801
     78          1           0       -2.466067   -3.244331   -0.548166
     79          1           0        0.800627    3.480237    3.166353
     80          1           0       -0.164875    2.627669    4.396759
     81          1           0       -0.172373    4.364981    4.379972
     82          1           0       -2.215951    7.658028    1.035054
     83          1           0       -1.315847    6.736697   -0.102371
     84          1           0       -0.388337    7.708791    1.046944
     85          1           0       -4.331399    5.016162   -2.942638
     86          1           0       -7.133461    4.460185   -2.266847
     87          1           0       -5.675657    6.143506   -0.658589
     88          1           0       -6.474477    6.625031   -2.162051
     89          1           0       -4.798731    7.015304   -1.946104
     90          1           0       -5.944690    2.538122   -4.146462
     91          1           0       -5.410675    4.158482   -4.574156
     92          1           0       -7.782949    2.832833   -5.332551
     93          1           0       -7.668292    4.526514   -5.339989
     94          1           0       -8.339423    3.614522   -3.857853
     95          1           0       -9.180562   -1.943598   -1.960926
     96          1           0       -8.664207   -1.075314   -3.253753
     97          1           0       -9.334575   -0.126446   -2.008074
     98          1           0       -4.740360   -4.244959   -0.010522
     99          1           0       -5.802750   -2.727453    4.928968
    100          1           0       -5.997548   -4.378669    4.511884
    101          1           0       -7.317197   -3.236925    4.322756
    102          1           0       -0.234293   -5.014234   -3.888470
    103          1           0        0.524354   -5.834048   -2.581573
    104          1           0        0.927424   -2.898657   -3.648931
    105          1           0        4.137493   -4.873220   -2.036981
    106          1           0        2.600976   -5.680509   -1.770032
    107          1           0        3.103433   -4.352949   -0.644686
    108          1           0        2.615690   -1.777819   -3.435850
    109          1           0        4.018236   -2.787089   -3.521116
    110          1           0        3.563410   -2.240687   -0.855618
    111          1           0        3.335482   -0.653446   -1.626543
    112          1           0        5.832369   -1.476644   -2.558462
    113          1           0        5.797380   -2.442329   -1.137278
    114          1           0        5.186759   -0.094104    0.096657
    115          1           0        5.831708    0.821555   -2.584655
    116          1           0        6.775440    1.669059   -1.290680
    117          1           0        4.964776    1.507206   -1.297922
    118          1           0        7.141032   -1.553111    0.347167
    119          1           0        7.245955    0.184461    0.881857
    120          1           0        8.537260    0.137192   -1.742186
    121          1           0        8.990866   -1.331260   -0.856159
    122          1           0        9.239706    1.186129    0.810595
    123          1           0       10.040016    1.200265   -0.704850
    124          1           0       11.179123   -1.127698    0.145120
    125          1           0       10.893253   -0.186630    2.832533
    126          1           0       10.775905   -1.881052    2.168777
    127          1           0        9.454079   -0.847080    2.356465
    128          1           0       12.797847    0.691414    1.537253
    129          1           0       11.915042    1.826177    0.617911
    130          1           0       13.135460    1.456581   -1.044844
    131          1           0       12.689050   -0.273138   -1.217982
    132          1           0       14.549235   -0.776421   -0.955935
    133          1           0       14.824235   -0.258499    0.774251
    134          1           0       15.294092    1.744384   -1.502576
    135          1           0       17.796841    1.269280   -1.147380
    136          1           0       16.915732   -0.137792   -1.910840
    137          1           0       17.374647   -0.164184   -0.356744
    138          1           0       15.722270    3.089414    0.236747
    139          1           0       17.033878    1.850029    0.872161
    140          1           0       15.416058    1.875078    1.479211
 ---------------------------------------------------------------------

 SCF Done:  E(RB-LYP) =  -3007.35004513     A.U. after   21 cycles

 Excitation energies and oscillator strengths:

 Excited State   1:      Singlet-A      1.5533 eV  798.18 nm  f=0.0001  <S**2>=0.000
     244 -> 247       -0.18903
     245 -> 247        0.68074
 This state for optimization and/or second-order correction.
 Total Energy, E(TD-HF/TD-DFT) =  -3007.29296124
 Copying the excited state density for this state as the 1-particle RhoCI density.

 Excited State   2:      Singlet-A      1.8139 eV  683.52 nm  f=0.3090  <S**2>=0.000
     244 -> 248        0.17788
     246 -> 247        0.68748
     246 <- 247       -0.15066

 Excited State   3:      Singlet-A      1.9511 eV  635.46 nm  f=0.0340  <S**2>=0.000
     242 -> 247        0.49347
     243 -> 247        0.11488
     244 -> 247        0.44900
     245 -> 247        0.11992
     246 -> 248       -0.13433

 Excited State   4:      Singlet-A      2.0429 eV  606.92 nm  f=0.0243  <S**2>=0.000
     242 -> 247        0.29136
     243 -> 247        0.49356
     244 -> 247       -0.35774
     246 -> 248        0.16305

 Excited State   5:      Singlet-A      2.1254 eV  583.35 nm  f=0.0291  <S**2>=0.000
     242 -> 247       -0.40419
     243 -> 247        0.48284
     244 -> 247        0.25416
     246 -> 248       -0.11460

 The electronic state is 1-A.
 Alpha  occ. eigenvalues --  -46.27698 -18.83747 -18.82121 -18.77472 -18.77021
 Alpha  occ. eigenvalues --  -18.76220 -18.74262 -14.03991 -14.03790 -14.00933
 Alpha  occ. eigenvalues --  -14.00926 -10.05195 -10.04358 -10.00349  -9.99180
 Alpha  occ. eigenvalues --   -9.99010  -9.97562  -9.97429  -9.97155  -9.96744
 Alpha  occ. eigenvalues --   -9.96473  -9.96316  -9.95735  -9.95693  -9.95662
 Alpha  occ. eigenvalues --   -9.94498  -9.94407  -9.94135  -9.94110  -9.93846
 Alpha  occ. eigenvalues --   -9.93729  -9.93659  -9.93487  -9.93470  -9.93428
 Alpha  occ. eigenvalues --   -9.93399  -9.93150  -9.93130  -9.92947  -9.92831
 Alpha  occ. eigenvalues --   -9.92777  -9.92693  -9.92461  -9.92350  -9.92289
 Alpha  occ. eigenvalues --   -9.92289  -9.92262  -9.91826  -9.91783  -9.91756
 Alpha  occ. eigenvalues --   -9.91691  -9.91653  -9.91505  -9.91420  -9.91372
 Alpha  occ. eigenvalues --   -9.91368  -9.91227  -9.91207  -9.91089  -9.91022
 Alpha  occ. eigenvalues --   -9.91012  -9.90997  -9.90982  -9.90569  -9.90373
 Alpha  occ. eigenvalues --   -9.90358  -2.92345  -1.72755  -1.72232  -1.72063
 Alpha  occ. eigenvalues --   -0.98958  -0.97412  -0.91492  -0.90262  -0.90180
 Alpha  occ. eigenvalues --   -0.90151  -0.88644  -0.87915  -0.85728  -0.83284
 Alpha  occ. eigenvalues --   -0.75998  -0.73721  -0.73370  -0.73024  -0.72276
 Alpha  occ. eigenvalues --   -0.72030  -0.71552  -0.71391  -0.70701  -0.70036
 Alpha  occ. eigenvalues --   -0.69529  -0.68397  -0.68182  -0.67402  -0.67059
 Alpha  occ. eigenvalues --   -0.66383  -0.66004  -0.65189  -0.64907  -0.64111
 Alpha  occ. eigenvalues --   -0.63726  -0.63139  -0.62874  -0.61826  -0.61028
 Alpha  occ. eigenvalues --   -0.60712  -0.59937  -0.59675  -0.59481  -0.59018
 Alpha  occ. eigenvalues --   -0.58374  -0.57833  -0.57398  -0.56264  -0.54790
 Alpha  occ. eigenvalues --   -0.54101  -0.53824  -0.52533  -0.52380  -0.51884
 Alpha  occ. eigenvalues --   -0.51459  -0.51153  -0.50975  -0.50407  -0.50187
 Alpha  occ. eigenvalues --   -0.49657  -0.48964  -0.48489  -0.47269  -0.46709
 Alpha  occ. eigenvalues --   -0.46489  -0.46155  -0.45484  -0.45367  -0.45156
 Alpha  occ. eigenvalues --   -0.44391  -0.44278  -0.43603  -0.43015  -0.42779
 Alpha  occ. eigenvalues --   -0.42348  -0.42129  -0.41772  -0.41413  -0.41112
 Alpha  occ. eigenvalues --   -0.41012  -0.40789  -0.40475  -0.40236  -0.40192
 Alpha  occ. eigenvalues --   -0.39995  -0.39907  -0.39756  -0.39494  -0.39445
 Alpha  occ. eigenvalues --   -0.39224  -0.38802  -0.38709  -0.38547  -0.38192
 Alpha  occ. eigenvalues --   -0.38154  -0.38071  -0.37787  -0.37522  -0.37457
 Alpha  occ. eigenvalues --   -0.37024  -0.36814  -0.36729  -0.36598  -0.36510
 Alpha  occ. eigenvalues --   -0.36362  -0.36109  -0.36020  -0.35779  -0.35526
 Alpha  occ. eigenvalues --   -0.35461  -0.35307  -0.35109  -0.35004  -0.34895
 Alpha  occ. eigenvalues --   -0.34460  -0.34246  -0.34074  -0.33937  -0.33831
 Alpha  occ. eigenvalues --   -0.33697  -0.33656  -0.33518  -0.33226  -0.33209
 Alpha  occ. eigenvalues --   -0.33073  -0.32952  -0.32667  -0.32547  -0.32312
 Alpha  occ. eigenvalues --   -0.32234  -0.32039  -0.31992  -0.31897  -0.31679
 Alpha  occ. eigenvalues --   -0.31345  -0.31287  -0.31247  -0.30991  -0.30654
 Alpha  occ. eigenvalues --   -0.30380  -0.30265  -0.30128  -0.29951  -0.29923
 Alpha  occ. eigenvalues --   -0.29476  -0.29321  -0.29207  -0.28916  -0.28743
 Alpha  occ. eigenvalues --   -0.28724  -0.28344  -0.27779  -0.27774  -0.27436
 Alpha  occ. eigenvalues --   -0.27423  -0.27225  -0.27148  -0.26644  -0.26248
 Alpha  occ. eigenvalues --   -0.26062  -0.25929  -0.25772  -0.25713  -0.25389
 Alpha  occ. eigenvalues --   -0.25208  -0.24795  -0.24634  -0.24427  -0.23668
 Alpha  occ. eigenvalues --   -0.23124  -0.22892  -0.22603  -0.21814  -0.21077
 Alpha  occ. eigenvalues --   -0.20806  -0.19185  -0.19130  -0.17680  -0.17593
 Alpha  occ. eigenvalues --   -0.16229
 Alpha virt. eigenvalues --   -0.11960  -0.07201  -0.06527  -0.04841  -0.03595
 Alpha virt. eigenvalues --   -0.03267  -0.03058  -0.01895  -0.01795  -0.00266
 Alpha virt. eigenvalues --    0.00679   0.01294   0.02354   0.02731   0.02764

 Mulliken charges:
               1
     1  Mg   0.692546
     2  C   -0.078331
     3  C   -0.061664
     4  C   -0.021220
     5  C   -0.091561
     6  N   -0.219058
     7  C   -0.094396
     8  C    0.083313
     9  C    0.025288
    10  C    0.020409
    11  C    0.144889
    12  C    0.058710
    13  C    0.127738
    14  C    0.106045
    15  O   -0.187106
    16  O   -0.273762
    17  N   -0.280160
    18  C    0.116875
    19  C   -0.145022
    20  C    0.024768
    21  C    0.093247
    22  C    0.193289
    23  C   -0.084931
    24  O   -0.194629
    25  C    0.122104
    26  N   -0.172725
    27  C    0.005812
    28  C   -0.012376
    29  C    0.018751
    30  C    0.042437
    31  C    0.108958
    32  C    0.104263
    33  C    0.065670
    34  N   -0.265079
    35  C    0.132796
    36  C   -0.169753
    37  C    0.076886
    38  C    0.126528
    39  C    0.153847
    40  C   -0.053721
    41  O   -0.116704
    42  C    0.035385
    43  C    0.133398
    44  O   -0.162487
    45  O   -0.254645
    46  C    0.218434
    47  C    0.342683
    48  C   -0.132793
    49  C   -0.153577
    50  C    0.218390
    51  C    0.125804
    52  C    0.031934
    53  C    0.079201
    54  C   -0.059176
    55  C    0.123072
    56  C    0.078240
    57  C    0.086749
    58  C    0.069450
    59  C   -0.035280
    60  C    0.081120
    61  C    0.112944
    62  C    0.030884
    63  C    0.100350
    64  C   -0.097367
    65  C    0.086207
    66  C    0.122930
    67  H   -0.054346
    68  H   -0.084952
    69  H   -0.061821
    70  H   -0.035815
    71  H   -0.019834
    72  H   -0.004217
    73  H    0.007849
    74  H   -0.012150
    75  H   -0.020337
    76  H   -0.015726
    77  H    0.010621
    78  H   -0.006105
    79  H    0.002754
    80  H   -0.024915
    81  H    0.012965
    82  H    0.016406
    83  H   -0.007003
    84  H   -0.000485
    85  H   -0.009333
    86  H   -0.029983
    87  H   -0.010880
    88  H   -0.003274
    89  H   -0.006458
    90  H   -0.018354
    91  H   -0.017210
    92  H   -0.017341
    93  H   -0.006143
    94  H    0.005797
    95  H    0.000734
    96  H   -0.009317
    97  H   -0.007127
    98  H    0.030405
    99  H    0.011345
   100  H    0.019517
   101  H    0.017868
   102  H   -0.025681
   103  H   -0.004711
   104  H   -0.039656
   105  H   -0.012920
   106  H   -0.016189
   107  H    0.024254
   108  H   -0.040043
   109  H   -0.029744
   110  H   -0.034276
   111  H   -0.018389
   112  H   -0.030250
   113  H   -0.038598
   114  H   -0.039977
   115  H   -0.024173
   116  H   -0.003979
   117  H   -0.021400
   118  H   -0.030776
   119  H   -0.023672
   120  H   -0.017177
   121  H   -0.032963
   122  H   -0.026840
   123  H   -0.047417
   124  H   -0.037060
   125  H   -0.025635
   126  H   -0.015450
   127  H   -0.022598
   128  H   -0.044790
   129  H   -0.033486
   130  H   -0.030797
   131  H   -0.021772
   132  H   -0.032250
   133  H   -0.020904
   134  H   -0.026282
   135  H   -0.014477
   136  H   -0.028097
   137  H   -0.036304
   138  H   -0.000505
   139  H   -0.010446
   140  H   -0.022523
 Sum of Mulliken charges =  -0.00000

 Dipole moment (field-independent basis, Debye):
    X=             -0.4245    Y=              3.0236    Z=             -0.8413  Tot=              3.1670
 Quadrupole moment (field-independent basis, Debye-Ang):
   XX=           -409.5753   YY=           -440.2566   ZZ=           -386.1315
   XY=            -53.4273   XZ=             -7.7205   YZ=            -27.4366

 Normal termination of Gaussian 16 at Wed May  4 03:39:05 2022.
