 Gaussian 16, Revision A.03,
 Gaussian 16:  ES64L-G16RevA.03 25-Dec-2016

 -----------------------------------
 #p cam-b3lyp/Def2SVP td=(nstates=5)
 -----------------------------------

 -------------------------------------------------------
 step_1301_chromophore_2 TDDFT with cam-b3lyp functional
 -------------------------------------------------------
 Symbolic Z-matrix:
 Charge =  0 Multiplicity = 1

                         Standard orientation:
 ---------------------------------------------------------------------
 Center     Atomic      Atomic             Coordinates (Angstroms)
 Number     Number       Type             X           Y           Z
 ---------------------------------------------------------------------
      1         12           0       -4.419107    1.318307    0.548777
      2          6           0       -4.826330   -2.067296    0.586669
      3          6           0       -1.715759    0.933809    2.833470
      4          6           0       -3.371789    4.553894   -0.220392
      5          6           0       -6.942516    1.637764   -1.669307
      6          7           0       -3.386221   -0.352932    1.545310
      7          6           0       -3.686260   -1.685825    1.388871
      8          6           0       -2.754380   -2.646451    2.228201
      9          6           0       -1.937806   -1.583779    3.010025
     10          6           0       -2.340299   -0.222120    2.428820
     11          6           0       -2.188068   -1.634331    4.514340
     12          6           0       -1.995541   -3.674105    1.402522
     13          6           0       -1.519900   -3.360703   -0.020264
     14          6           0       -0.612735   -4.326753   -0.748176
     15          8           0        0.316545   -4.926666   -0.229647
     16          8           0       -0.974593   -4.365782   -2.090308
     17          7           0       -2.763022    2.634126    1.246143
     18          6           0       -1.898799    2.284602    2.311688
     19          6           0       -1.171170    3.464177    2.656844
     20          6           0       -1.671973    4.571759    1.802374
     21          6           0       -2.651601    3.932000    0.836901
     22          6           0       -0.131098    3.489922    3.730584
     23          6           0       -1.041294    5.950528    1.869512
     24          8           0       -0.217072    6.195947    2.753377
     25          6           0       -1.285329    7.100622    0.925019
     26          7           0       -4.851162    2.797671   -0.969590
     27          6           0       -4.450286    4.055172   -0.987111
     28          6           0       -5.047793    4.874157   -2.133598
     29          6           0       -6.228293    3.915110   -2.534954
     30          6           0       -6.007467    2.702739   -1.633461
     31          6           0       -5.544335    6.248713   -1.735466
     32          6           0       -6.195136    3.596102   -4.067369
     33          6           0       -7.606857    3.674676   -4.663451
     34          7           0       -5.640156    0.052598   -0.364186
     35          6           0       -6.666012    0.340937   -1.248456
     36          6           0       -7.382585   -0.857835   -1.444289
     37          6           0       -6.677748   -1.884936   -0.799090
     38          6           0       -5.633961   -1.222691   -0.139904
     39          6           0       -8.690814   -0.991584   -2.166916
     40          6           0       -6.580700   -3.346695   -0.521648
     41          8           0       -7.261599   -4.255531   -0.990411
     42          6           0       -5.417873   -3.526969    0.451532
     43          6           0       -6.048829   -3.943100    1.810489
     44          8           0       -6.697162   -4.967161    1.973955
     45          8           0       -5.875810   -3.016676    2.789238
     46          6           0       -6.246559   -3.373686    4.171703
     47          6           0        0.175589   -4.848704   -2.892491
     48          6           0        1.210811   -3.764930   -3.050846
     49          6           0        2.432089   -3.751576   -2.513643
     50          6           0        3.122000   -4.728743   -1.668101
     51          6           0        3.209937   -2.483606   -2.855310
     52          6           0        3.844007   -1.614496   -1.702692
     53          6           0        5.437759   -1.496442   -1.542913
     54          6           0        5.918206   -0.252494   -0.695848
     55          6           0        5.921189    1.032380   -1.518615
     56          6           0        7.243617   -0.511618    0.042772
     57          6           0        8.611510   -0.314463   -0.752980
     58          6           0        9.659642    0.520169    0.056358
     59          6           0       10.923486   -0.215464    0.683096
     60          6           0       10.499752   -0.833348    2.049326
     61          6           0       12.158429    0.764224    0.657660
     62          6           0       13.119558    0.480791   -0.558301
     63          6           0       14.591900    0.048891   -0.245062
     64          6           0       15.636888    1.193392   -0.627243
     65          6           0       16.976635    0.555807   -1.071775
     66          6           0       16.009683    2.100012    0.593286
     67          1           0       -0.859286    0.803026    3.497634
     68          1           0       -3.125699    5.613918   -0.310664
     69          1           0       -7.847239    1.759243   -2.267581
     70          1           0       -3.432206   -3.316696    2.757533
     71          1           0       -0.884421   -1.595429    2.730113
     72          1           0       -2.468261   -2.634700    4.842367
     73          1           0       -2.819653   -0.820354    4.867682
     74          1           0       -1.178234   -1.468461    4.889742
     75          1           0       -2.717812   -4.490468    1.414627
     76          1           0       -1.130390   -4.008131    1.974285
     77          1           0       -0.977269   -2.415559   -0.024801
     78          1           0       -2.466067   -3.244331   -0.548166
     79          1           0        0.800627    3.480237    3.166353
     80          1           0       -0.164875    2.627669    4.396759
     81          1           0       -0.172373    4.364981    4.379972
     82          1           0       -2.215951    7.658028    1.035054
     83          1           0       -1.315847    6.736697   -0.102371
     84          1           0       -0.388337    7.708791    1.046944
     85          1           0       -4.331399    5.016162   -2.942638
     86          1           0       -7.133461    4.460185   -2.266847
     87          1           0       -5.675657    6.143506   -0.658589
     88          1           0       -6.474477    6.625031   -2.162051
     89          1           0       -4.798731    7.015304   -1.946104
     90          1           0       -5.944690    2.538122   -4.146462
     91          1           0       -5.410675    4.158482   -4.574156
     92          1           0       -7.782949    2.832833   -5.332551
     93          1           0       -7.668292    4.526514   -5.339989
     94          1           0       -8.339423    3.614522   -3.857853
     95          1           0       -9.180562   -1.943598   -1.960926
     96          1           0       -8.664207   -1.075314   -3.253753
     97          1           0       -9.334575   -0.126446   -2.008074
     98          1           0       -4.740360   -4.244959   -0.010522
     99          1           0       -5.802750   -2.727453    4.928968
    100          1           0       -5.997548   -4.378669    4.511884
    101          1           0       -7.317197   -3.236925    4.322756
    102          1           0       -0.234293   -5.014234   -3.888470
    103          1           0        0.524354   -5.834048   -2.581573
    104          1           0        0.927424   -2.898657   -3.648931
    105          1           0        4.137493   -4.873220   -2.036981
    106          1           0        2.600976   -5.680509   -1.770032
    107          1           0        3.103433   -4.352949   -0.644686
    108          1           0        2.615690   -1.777819   -3.435850
    109          1           0        4.018236   -2.787089   -3.521116
    110          1           0        3.563410   -2.240687   -0.855618
    111          1           0        3.335482   -0.653446   -1.626543
    112          1           0        5.832369   -1.476644   -2.558462
    113          1           0        5.797380   -2.442329   -1.137278
    114          1           0        5.186759   -0.094104    0.096657
    115          1           0        5.831708    0.821555   -2.584655
    116          1           0        6.775440    1.669059   -1.290680
    117          1           0        4.964776    1.507206   -1.297922
    118          1           0        7.141032   -1.553111    0.347167
    119          1           0        7.245955    0.184461    0.881857
    120          1           0        8.537260    0.137192   -1.742186
    121          1           0        8.990866   -1.331260   -0.856159
    122          1           0        9.239706    1.186129    0.810595
    123          1           0       10.040016    1.200265   -0.704850
    124          1           0       11.179123   -1.127698    0.145120
    125          1           0       10.893253   -0.186630    2.832533
    126          1           0       10.775905   -1.881052    2.168777
    127          1           0        9.454079   -0.847080    2.356465
    128          1           0       12.797847    0.691414    1.537253
    129          1           0       11.915042    1.826177    0.617911
    130          1           0       13.135460    1.456581   -1.044844
    131          1           0       12.689050   -0.273138   -1.217982
    132          1           0       14.549235   -0.776421   -0.955935
    133          1           0       14.824235   -0.258499    0.774251
    134          1           0       15.294092    1.744384   -1.502576
    135          1           0       17.796841    1.269280   -1.147380
    136          1           0       16.915732   -0.137792   -1.910840
    137          1           0       17.374647   -0.164184   -0.356744
    138          1           0       15.722270    3.089414    0.236747
    139          1           0       17.033878    1.850029    0.872161
    140          1           0       15.416058    1.875078    1.479211
 ---------------------------------------------------------------------

 SCF Done:  E(RCAM-B3LYP) =  -3007.13882428     A.U. after   19 cycles

 Excitation energies and oscillator strengths:

 Excited State   1:      Singlet-A      1.6957 eV  731.18 nm  f=0.3840  <S**2>=0.000
     245 -> 248        0.17642
     246 -> 247        0.68647
     245 <- 248        0.10826
 This state for optimization and/or second-order correction.
 Total Energy, E(TD-HF/TD-DFT) =  -3007.07650949
 Copying the excited state density for this state as the 1-particle RhoCI density.

 Excited State   2:      Singlet-A      2.2400 eV  553.49 nm  f=0.1118  <S**2>=0.000
     245 -> 247        0.63617
     246 -> 248       -0.28974

 Excited State   3:      Singlet-A      2.9532 eV  419.83 nm  f=0.0112  <S**2>=0.000
     244 -> 247        0.68801

 Excited State   4:      Singlet-A      3.4010 eV  364.55 nm  f=0.0000  <S**2>=0.000
     243 -> 247        0.57429
     243 -> 248       -0.14300
     243 -> 249       -0.17897
     243 -> 251       -0.25932

 Excited State   5:      Singlet-A      3.4448 eV  359.91 nm  f=0.0384  <S**2>=0.000
     239 -> 247       -0.36221
     239 -> 249       -0.25298
     240 -> 247        0.16541
     240 -> 249        0.11954
     241 -> 247        0.39299
     246 -> 248       -0.22429

 The electronic state is 1-A.
 Alpha  occ. eigenvalues --  -46.89328 -19.26771 -19.24996 -19.20467 -19.20223
 Alpha  occ. eigenvalues --  -19.19690 -19.17239 -14.42976 -14.42666 -14.39410
 Alpha  occ. eigenvalues --  -14.39272 -10.40747 -10.39684 -10.35889 -10.33998
 Alpha  occ. eigenvalues --  -10.33240 -10.32395 -10.31789 -10.31527 -10.31106
 Alpha  occ. eigenvalues --  -10.30740 -10.30598 -10.30295 -10.30178 -10.29761
 Alpha  occ. eigenvalues --  -10.28874 -10.28681 -10.28553 -10.28387 -10.28055
 Alpha  occ. eigenvalues --  -10.27788 -10.27737 -10.27666 -10.27608 -10.27566
 Alpha  occ. eigenvalues --  -10.27434 -10.27183 -10.27129 -10.26888 -10.26765
 Alpha  occ. eigenvalues --  -10.26720 -10.26477 -10.26223 -10.26166 -10.26057
 Alpha  occ. eigenvalues --  -10.26018 -10.25938 -10.25856 -10.25550 -10.25452
 Alpha  occ. eigenvalues --  -10.25430 -10.25406 -10.25396 -10.25360 -10.25226
 Alpha  occ. eigenvalues --  -10.25060 -10.24889 -10.24781 -10.24776 -10.24702
 Alpha  occ. eigenvalues --  -10.24682 -10.24666 -10.24594 -10.24105 -10.23954
 Alpha  occ. eigenvalues --  -10.23946  -3.17875  -1.92760  -1.92326  -1.92181
 Alpha  occ. eigenvalues --   -1.17547  -1.15861  -1.10099  -1.08434  -1.08216
 Alpha  occ. eigenvalues --   -1.08018  -1.06530  -1.05739  -1.03417  -1.00537
 Alpha  occ. eigenvalues --   -0.93323  -0.90611  -0.90210  -0.89768  -0.88999
 Alpha  occ. eigenvalues --   -0.88761  -0.88175  -0.88045  -0.87386  -0.86557
 Alpha  occ. eigenvalues --   -0.85920  -0.84681  -0.84454  -0.83574  -0.83171
 Alpha  occ. eigenvalues --   -0.82362  -0.81944  -0.81086  -0.80865  -0.79985
 Alpha  occ. eigenvalues --   -0.79493  -0.78860  -0.78560  -0.77447  -0.76469
 Alpha  occ. eigenvalues --   -0.76082  -0.75270  -0.74982  -0.74759  -0.74245
 Alpha  occ. eigenvalues --   -0.73463  -0.72850  -0.72322  -0.71102  -0.69438
 Alpha  occ. eigenvalues --   -0.68728  -0.68407  -0.66859  -0.66525  -0.66121
 Alpha  occ. eigenvalues --   -0.65473  -0.65361  -0.65060  -0.64442  -0.64129
 Alpha  occ. eigenvalues --   -0.63637  -0.62884  -0.62236  -0.60988  -0.60393
 Alpha  occ. eigenvalues --   -0.60172  -0.59698  -0.59102  -0.58801  -0.58609
 Alpha  occ. eigenvalues --   -0.57821  -0.57740  -0.56895  -0.56202  -0.56098
 Alpha  occ. eigenvalues --   -0.55384  -0.55219  -0.54739  -0.54616  -0.54113
 Alpha  occ. eigenvalues --   -0.53905  -0.53486  -0.53253  -0.53248  -0.52833
 Alpha  occ. eigenvalues --   -0.52668  -0.52518  -0.52422  -0.52215  -0.51898
 Alpha  occ. eigenvalues --   -0.51756  -0.51560  -0.51211  -0.50929  -0.50633
 Alpha  occ. eigenvalues --   -0.50438  -0.50403  -0.50281  -0.49943  -0.49620
 Alpha  occ. eigenvalues --   -0.49510  -0.49294  -0.49021  -0.48811  -0.48604
 Alpha  occ. eigenvalues --   -0.48575  -0.48294  -0.47988  -0.47870  -0.47734
 Alpha  occ. eigenvalues --   -0.47460  -0.47401  -0.47263  -0.47055  -0.46711
 Alpha  occ. eigenvalues --   -0.46510  -0.46252  -0.46146  -0.45876  -0.45797
 Alpha  occ. eigenvalues --   -0.45504  -0.45358  -0.45318  -0.45212  -0.44883
 Alpha  occ. eigenvalues --   -0.44805  -0.44562  -0.44503  -0.44313  -0.43970
 Alpha  occ. eigenvalues --   -0.43816  -0.43692  -0.43506  -0.43373  -0.43191
 Alpha  occ. eigenvalues --   -0.42891  -0.42693  -0.42647  -0.42415  -0.42141
 Alpha  occ. eigenvalues --   -0.42031  -0.41593  -0.41534  -0.41477  -0.41409
 Alpha  occ. eigenvalues --   -0.40722  -0.40669  -0.40384  -0.40127  -0.39854
 Alpha  occ. eigenvalues --   -0.39739  -0.39348  -0.38844  -0.38639  -0.38588
 Alpha  occ. eigenvalues --   -0.38251  -0.38092  -0.38033  -0.37524  -0.37427
 Alpha  occ. eigenvalues --   -0.37165  -0.36970  -0.36764  -0.36595  -0.35990
 Alpha  occ. eigenvalues --   -0.35884  -0.35586  -0.35176  -0.34952  -0.34638
 Alpha  occ. eigenvalues --   -0.33980  -0.33966  -0.33708  -0.31588  -0.31305
 Alpha  occ. eigenvalues --   -0.30687  -0.30472  -0.29784  -0.28061  -0.24493
 Alpha  occ. eigenvalues --   -0.21523
 Alpha virt. eigenvalues --   -0.09146  -0.02084  -0.00055   0.01363   0.02288
 Alpha virt. eigenvalues --    0.04405   0.04552   0.05132   0.05784   0.06831
 Alpha virt. eigenvalues --    0.07328   0.08076   0.08688   0.08875   0.09073

 Mulliken charges:
               1
     1  Mg   0.824580
     2  C   -0.103266
     3  C   -0.069349
     4  C   -0.033191
     5  C   -0.100044
     6  N   -0.287973
     7  C   -0.051408
     8  C    0.039511
     9  C   -0.034858
    10  C    0.036734
    11  C    0.083868
    12  C    0.013508
    13  C    0.057810
    14  C    0.190638
    15  O   -0.227757
    16  O   -0.338591
    17  N   -0.362491
    18  C    0.119737
    19  C   -0.150790
    20  C   -0.044207
    21  C    0.121369
    22  C    0.132772
    23  C   -0.013001
    24  O   -0.236773
    25  C    0.043991
    26  N   -0.244302
    27  C    0.021567
    28  C   -0.060237
    29  C   -0.042158
    30  C    0.063045
    31  C    0.048562
    32  C    0.048614
    33  C    0.003369
    34  N   -0.363467
    35  C    0.142009
    36  C   -0.169244
    37  C    0.002530
    38  C    0.166386
    39  C    0.101524
    40  C    0.046208
    41  O   -0.151979
    42  C   -0.034228
    43  C    0.218582
    44  O   -0.200117
    45  O   -0.318809
    46  C    0.179239
    47  C    0.301829
    48  C   -0.163515
    49  C   -0.165486
    50  C    0.151480
    51  C    0.067994
    52  C   -0.023164
    53  C    0.032425
    54  C   -0.113198
    55  C    0.060118
    56  C    0.030290
    57  C    0.029092
    58  C    0.018470
    59  C   -0.092335
    60  C    0.025289
    61  C    0.058446
    62  C   -0.017552
    63  C    0.043494
    64  C   -0.154619
    65  C    0.024503
    66  C    0.060054
    67  H   -0.019437
    68  H   -0.051291
    69  H   -0.026808
    70  H    0.001003
    71  H    0.015134
    72  H    0.019046
    73  H    0.033794
    74  H    0.012496
    75  H    0.005375
    76  H    0.018090
    77  H    0.040388
    78  H    0.024202
    79  H    0.029128
    80  H   -0.000056
    81  H    0.042085
    82  H    0.043064
    83  H    0.018800
    84  H    0.034043
    85  H    0.024146
    86  H    0.005731
    87  H    0.015170
    88  H    0.022167
    89  H    0.017255
    90  H    0.012677
    91  H    0.011921
    92  H    0.007952
    93  H    0.018525
    94  H    0.024786
    95  H    0.029718
    96  H    0.018928
    97  H    0.017046
    98  H    0.068669
    99  H    0.033816
   100  H    0.043049
   101  H    0.041492
   102  H    0.006225
   103  H    0.027468
   104  H   -0.003823
   105  H    0.012397
   106  H    0.009704
   107  H    0.048047
   108  H   -0.007954
   109  H   -0.000715
   110  H   -0.007711
   111  H    0.008903
   112  H   -0.004609
   113  H   -0.011876
   114  H   -0.006522
   115  H    0.000631
   116  H    0.018962
   117  H    0.003332
   118  H   -0.003201
   119  H    0.002980
   120  H    0.010683
   121  H   -0.004330
   122  H    0.000023
   123  H   -0.018018
   124  H   -0.005793
   125  H   -0.001660
   126  H    0.008531
   127  H    0.001369
   128  H   -0.016509
   129  H   -0.004197
   130  H   -0.002974
   131  H    0.004718
   132  H   -0.002650
   133  H    0.005832
   134  H    0.004436
   135  H    0.010837
   136  H   -0.002242
   137  H   -0.012035
   138  H    0.022781
   139  H    0.014700
   140  H    0.000629
 Sum of Mulliken charges =  -0.00000

 Dipole moment (field-independent basis, Debye):
    X=             -0.7219    Y=              3.0471    Z=             -1.0038  Tot=              3.2884
 Quadrupole moment (field-independent basis, Debye-Ang):
   XX=           -406.8020   YY=           -438.3815   ZZ=           -384.6553
   XY=            -54.9478   XZ=             -6.7310   YZ=            -29.5467

 Normal termination of Gaussian 16 at Wed May  4 02:43:27 2022.
