 Gaussian 16, Revision A.03,
 Gaussian 16:  ES64L-G16RevA.03 25-Dec-2016

 ---------------------------------
 #p PBE1PBE/Def2SVP td=(nstates=5)
 ---------------------------------

 -----------------------------------------------------
 step_1301_chromophore_2 TDDFT with PBE1PBE functional
 -----------------------------------------------------
 Symbolic Z-matrix:
 Charge =  0 Multiplicity = 1

                         Standard orientation:
 ---------------------------------------------------------------------
 Center     Atomic      Atomic             Coordinates (Angstroms)
 Number     Number       Type             X           Y           Z
 ---------------------------------------------------------------------
      1         12           0       -4.419107    1.318307    0.548777
      2          6           0       -4.826330   -2.067296    0.586669
      3          6           0       -1.715759    0.933809    2.833470
      4          6           0       -3.371789    4.553894   -0.220392
      5          6           0       -6.942516    1.637764   -1.669307
      6          7           0       -3.386221   -0.352932    1.545310
      7          6           0       -3.686260   -1.685825    1.388871
      8          6           0       -2.754380   -2.646451    2.228201
      9          6           0       -1.937806   -1.583779    3.010025
     10          6           0       -2.340299   -0.222120    2.428820
     11          6           0       -2.188068   -1.634331    4.514340
     12          6           0       -1.995541   -3.674105    1.402522
     13          6           0       -1.519900   -3.360703   -0.020264
     14          6           0       -0.612735   -4.326753   -0.748176
     15          8           0        0.316545   -4.926666   -0.229647
     16          8           0       -0.974593   -4.365782   -2.090308
     17          7           0       -2.763022    2.634126    1.246143
     18          6           0       -1.898799    2.284602    2.311688
     19          6           0       -1.171170    3.464177    2.656844
     20          6           0       -1.671973    4.571759    1.802374
     21          6           0       -2.651601    3.932000    0.836901
     22          6           0       -0.131098    3.489922    3.730584
     23          6           0       -1.041294    5.950528    1.869512
     24          8           0       -0.217072    6.195947    2.753377
     25          6           0       -1.285329    7.100622    0.925019
     26          7           0       -4.851162    2.797671   -0.969590
     27          6           0       -4.450286    4.055172   -0.987111
     28          6           0       -5.047793    4.874157   -2.133598
     29          6           0       -6.228293    3.915110   -2.534954
     30          6           0       -6.007467    2.702739   -1.633461
     31          6           0       -5.544335    6.248713   -1.735466
     32          6           0       -6.195136    3.596102   -4.067369
     33          6           0       -7.606857    3.674676   -4.663451
     34          7           0       -5.640156    0.052598   -0.364186
     35          6           0       -6.666012    0.340937   -1.248456
     36          6           0       -7.382585   -0.857835   -1.444289
     37          6           0       -6.677748   -1.884936   -0.799090
     38          6           0       -5.633961   -1.222691   -0.139904
     39          6           0       -8.690814   -0.991584   -2.166916
     40          6           0       -6.580700   -3.346695   -0.521648
     41          8           0       -7.261599   -4.255531   -0.990411
     42          6           0       -5.417873   -3.526969    0.451532
     43          6           0       -6.048829   -3.943100    1.810489
     44          8           0       -6.697162   -4.967161    1.973955
     45          8           0       -5.875810   -3.016676    2.789238
     46          6           0       -6.246559   -3.373686    4.171703
     47          6           0        0.175589   -4.848704   -2.892491
     48          6           0        1.210811   -3.764930   -3.050846
     49          6           0        2.432089   -3.751576   -2.513643
     50          6           0        3.122000   -4.728743   -1.668101
     51          6           0        3.209937   -2.483606   -2.855310
     52          6           0        3.844007   -1.614496   -1.702692
     53          6           0        5.437759   -1.496442   -1.542913
     54          6           0        5.918206   -0.252494   -0.695848
     55          6           0        5.921189    1.032380   -1.518615
     56          6           0        7.243617   -0.511618    0.042772
     57          6           0        8.611510   -0.314463   -0.752980
     58          6           0        9.659642    0.520169    0.056358
     59          6           0       10.923486   -0.215464    0.683096
     60          6           0       10.499752   -0.833348    2.049326
     61          6           0       12.158429    0.764224    0.657660
     62          6           0       13.119558    0.480791   -0.558301
     63          6           0       14.591900    0.048891   -0.245062
     64          6           0       15.636888    1.193392   -0.627243
     65          6           0       16.976635    0.555807   -1.071775
     66          6           0       16.009683    2.100012    0.593286
     67          1           0       -0.859286    0.803026    3.497634
     68          1           0       -3.125699    5.613918   -0.310664
     69          1           0       -7.847239    1.759243   -2.267581
     70          1           0       -3.432206   -3.316696    2.757533
     71          1           0       -0.884421   -1.595429    2.730113
     72          1           0       -2.468261   -2.634700    4.842367
     73          1           0       -2.819653   -0.820354    4.867682
     74          1           0       -1.178234   -1.468461    4.889742
     75          1           0       -2.717812   -4.490468    1.414627
     76          1           0       -1.130390   -4.008131    1.974285
     77          1           0       -0.977269   -2.415559   -0.024801
     78          1           0       -2.466067   -3.244331   -0.548166
     79          1           0        0.800627    3.480237    3.166353
     80          1           0       -0.164875    2.627669    4.396759
     81          1           0       -0.172373    4.364981    4.379972
     82          1           0       -2.215951    7.658028    1.035054
     83          1           0       -1.315847    6.736697   -0.102371
     84          1           0       -0.388337    7.708791    1.046944
     85          1           0       -4.331399    5.016162   -2.942638
     86          1           0       -7.133461    4.460185   -2.266847
     87          1           0       -5.675657    6.143506   -0.658589
     88          1           0       -6.474477    6.625031   -2.162051
     89          1           0       -4.798731    7.015304   -1.946104
     90          1           0       -5.944690    2.538122   -4.146462
     91          1           0       -5.410675    4.158482   -4.574156
     92          1           0       -7.782949    2.832833   -5.332551
     93          1           0       -7.668292    4.526514   -5.339989
     94          1           0       -8.339423    3.614522   -3.857853
     95          1           0       -9.180562   -1.943598   -1.960926
     96          1           0       -8.664207   -1.075314   -3.253753
     97          1           0       -9.334575   -0.126446   -2.008074
     98          1           0       -4.740360   -4.244959   -0.010522
     99          1           0       -5.802750   -2.727453    4.928968
    100          1           0       -5.997548   -4.378669    4.511884
    101          1           0       -7.317197   -3.236925    4.322756
    102          1           0       -0.234293   -5.014234   -3.888470
    103          1           0        0.524354   -5.834048   -2.581573
    104          1           0        0.927424   -2.898657   -3.648931
    105          1           0        4.137493   -4.873220   -2.036981
    106          1           0        2.600976   -5.680509   -1.770032
    107          1           0        3.103433   -4.352949   -0.644686
    108          1           0        2.615690   -1.777819   -3.435850
    109          1           0        4.018236   -2.787089   -3.521116
    110          1           0        3.563410   -2.240687   -0.855618
    111          1           0        3.335482   -0.653446   -1.626543
    112          1           0        5.832369   -1.476644   -2.558462
    113          1           0        5.797380   -2.442329   -1.137278
    114          1           0        5.186759   -0.094104    0.096657
    115          1           0        5.831708    0.821555   -2.584655
    116          1           0        6.775440    1.669059   -1.290680
    117          1           0        4.964776    1.507206   -1.297922
    118          1           0        7.141032   -1.553111    0.347167
    119          1           0        7.245955    0.184461    0.881857
    120          1           0        8.537260    0.137192   -1.742186
    121          1           0        8.990866   -1.331260   -0.856159
    122          1           0        9.239706    1.186129    0.810595
    123          1           0       10.040016    1.200265   -0.704850
    124          1           0       11.179123   -1.127698    0.145120
    125          1           0       10.893253   -0.186630    2.832533
    126          1           0       10.775905   -1.881052    2.168777
    127          1           0        9.454079   -0.847080    2.356465
    128          1           0       12.797847    0.691414    1.537253
    129          1           0       11.915042    1.826177    0.617911
    130          1           0       13.135460    1.456581   -1.044844
    131          1           0       12.689050   -0.273138   -1.217982
    132          1           0       14.549235   -0.776421   -0.955935
    133          1           0       14.824235   -0.258499    0.774251
    134          1           0       15.294092    1.744384   -1.502576
    135          1           0       17.796841    1.269280   -1.147380
    136          1           0       16.915732   -0.137792   -1.910840
    137          1           0       17.374647   -0.164184   -0.356744
    138          1           0       15.722270    3.089414    0.236747
    139          1           0       17.033878    1.850029    0.872161
    140          1           0       15.416058    1.875078    1.479211
 ---------------------------------------------------------------------

 SCF Done:  E(RPBE1PBE) =  -3005.32828290     A.U. after   15 cycles

 Excitation energies and oscillator strengths:

 Excited State   1:      Singlet-A      1.8571 eV  667.62 nm  f=0.3756  <S**2>=0.000
     245 -> 248        0.17060
     246 -> 247        0.69358
     246 <- 247       -0.10940
 This state for optimization and/or second-order correction.
 Total Energy, E(TD-HF/TD-DFT) =  -3005.26003587
 Copying the excited state density for this state as the 1-particle RhoCI density.

 Excited State   2:      Singlet-A      2.2471 eV  551.76 nm  f=0.1026  <S**2>=0.000
     244 -> 247       -0.11435
     245 -> 247        0.64293
     246 -> 248       -0.26143

 Excited State   3:      Singlet-A      2.5745 eV  481.58 nm  f=0.0120  <S**2>=0.000
     244 -> 247        0.68945

 Excited State   4:      Singlet-A      2.7730 eV  447.11 nm  f=0.0013  <S**2>=0.000
     243 -> 247        0.68066
     243 -> 250        0.10316

 Excited State   5:      Singlet-A      3.0092 eV  412.01 nm  f=0.0001  <S**2>=0.000
     240 -> 247        0.33701
     240 -> 249        0.12588
     241 -> 247        0.57262
     241 -> 249        0.14639

 The electronic state is 1-A.
 Alpha  occ. eigenvalues --  -46.92696 -19.27360 -19.25661 -19.20683 -19.20392
 Alpha  occ. eigenvalues --  -19.19771 -19.17606 -14.42456 -14.42126 -14.39024
 Alpha  occ. eigenvalues --  -14.38976 -10.37726 -10.36663 -10.32928 -10.31265
 Alpha  occ. eigenvalues --  -10.30421 -10.30080 -10.29402 -10.28892 -10.28876
 Alpha  occ. eigenvalues --  -10.28568 -10.28418 -10.27850 -10.27704 -10.27690
 Alpha  occ. eigenvalues --  -10.26445 -10.26369 -10.26310 -10.25890 -10.25863
 Alpha  occ. eigenvalues --  -10.25610 -10.25601 -10.25488 -10.25260 -10.25188
 Alpha  occ. eigenvalues --  -10.24887 -10.24842 -10.24761 -10.24679 -10.24489
 Alpha  occ. eigenvalues --  -10.24324 -10.23979 -10.23781 -10.23723 -10.23656
 Alpha  occ. eigenvalues --  -10.23549 -10.23409 -10.23347 -10.23143 -10.23120
 Alpha  occ. eigenvalues --  -10.22978 -10.22963 -10.22805 -10.22781 -10.22727
 Alpha  occ. eigenvalues --  -10.22612 -10.22479 -10.22360 -10.22347 -10.22285
 Alpha  occ. eigenvalues --  -10.22261 -10.22235 -10.21999 -10.21483 -10.21358
 Alpha  occ. eigenvalues --  -10.21345  -3.14823  -1.87647  -1.87192  -1.87051
 Alpha  occ. eigenvalues --   -1.12248  -1.10603  -1.04704  -1.03289  -1.02972
 Alpha  occ. eigenvalues --   -1.02840  -1.01133  -1.00357  -0.97984  -0.95317
 Alpha  occ. eigenvalues --   -0.87561  -0.84757  -0.84400  -0.84029  -0.83319
 Alpha  occ. eigenvalues --   -0.82833  -0.82476  -0.82134  -0.81656  -0.80649
 Alpha  occ. eigenvalues --   -0.80203  -0.78964  -0.78743  -0.77862  -0.77375
 Alpha  occ. eigenvalues --   -0.76556  -0.76143  -0.75362  -0.75064  -0.74250
 Alpha  occ. eigenvalues --   -0.73655  -0.73094  -0.72822  -0.71727  -0.70813
 Alpha  occ. eigenvalues --   -0.70252  -0.69642  -0.69090  -0.68860  -0.68415
 Alpha  occ. eigenvalues --   -0.67841  -0.67211  -0.66744  -0.65445  -0.63750
 Alpha  occ. eigenvalues --   -0.63149  -0.62637  -0.61334  -0.60894  -0.60495
 Alpha  occ. eigenvalues --   -0.59923  -0.59658  -0.59433  -0.59009  -0.58681
 Alpha  occ. eigenvalues --   -0.57812  -0.57027  -0.56724  -0.55227  -0.54892
 Alpha  occ. eigenvalues --   -0.54715  -0.54029  -0.53448  -0.53376  -0.53177
 Alpha  occ. eigenvalues --   -0.52371  -0.52125  -0.51327  -0.50782  -0.50538
 Alpha  occ. eigenvalues --   -0.49911  -0.49793  -0.49356  -0.49052  -0.48666
 Alpha  occ. eigenvalues --   -0.48424  -0.47977  -0.47867  -0.47721  -0.47395
 Alpha  occ. eigenvalues --   -0.47134  -0.47033  -0.46893  -0.46733  -0.46394
 Alpha  occ. eigenvalues --   -0.46268  -0.46127  -0.45682  -0.45420  -0.45163
 Alpha  occ. eigenvalues --   -0.44995  -0.44901  -0.44810  -0.44559  -0.44143
 Alpha  occ. eigenvalues --   -0.44052  -0.43943  -0.43650  -0.43451  -0.43256
 Alpha  occ. eigenvalues --   -0.43126  -0.42941  -0.42643  -0.42547  -0.42429
 Alpha  occ. eigenvalues --   -0.42092  -0.42012  -0.41994  -0.41684  -0.41473
 Alpha  occ. eigenvalues --   -0.41206  -0.40928  -0.40805  -0.40543  -0.40413
 Alpha  occ. eigenvalues --   -0.40217  -0.40087  -0.39984  -0.39912  -0.39613
 Alpha  occ. eigenvalues --   -0.39478  -0.39217  -0.39159  -0.38983  -0.38729
 Alpha  occ. eigenvalues --   -0.38543  -0.38415  -0.38343  -0.38018  -0.37991
 Alpha  occ. eigenvalues --   -0.37723  -0.37564  -0.37375  -0.37287  -0.37067
 Alpha  occ. eigenvalues --   -0.36863  -0.36383  -0.36332  -0.36237  -0.36162
 Alpha  occ. eigenvalues --   -0.35592  -0.35499  -0.35197  -0.34955  -0.34710
 Alpha  occ. eigenvalues --   -0.34523  -0.34146  -0.33758  -0.33564  -0.33392
 Alpha  occ. eigenvalues --   -0.33045  -0.33020  -0.32889  -0.32387  -0.32377
 Alpha  occ. eigenvalues --   -0.32037  -0.31898  -0.31659  -0.31589  -0.30852
 Alpha  occ. eigenvalues --   -0.30753  -0.30511  -0.30046  -0.29889  -0.29392
 Alpha  occ. eigenvalues --   -0.29219  -0.29165  -0.28981  -0.27038  -0.26360
 Alpha  occ. eigenvalues --   -0.26055  -0.25773  -0.24671  -0.23811  -0.21424
 Alpha  occ. eigenvalues --   -0.19173
 Alpha virt. eigenvalues --   -0.11587  -0.05571  -0.04230  -0.02309  -0.01222
 Alpha virt. eigenvalues --   -0.00060   0.00028   0.00912   0.01298   0.02746
 Alpha virt. eigenvalues --    0.03672   0.04055   0.05172   0.05633   0.05753

 Mulliken charges:
               1
     1  Mg   0.966075
     2  C   -0.104462
     3  C   -0.061021
     4  C   -0.026326
     5  C   -0.087890
     6  N   -0.393736
     7  C    0.026171
     8  C   -0.025692
     9  C   -0.119208
    10  C    0.073635
    11  C    0.025800
    12  C   -0.033440
    13  C   -0.029033
    14  C    0.262869
    15  O   -0.259828
    16  O   -0.367240
    17  N   -0.472125
    18  C    0.154587
    19  C   -0.184461
    20  C   -0.087603
    21  C    0.157717
    22  C    0.071703
    23  C    0.030609
    24  O   -0.268174
    25  C   -0.027689
    26  N   -0.347551
    27  C    0.054248
    28  C   -0.134359
    29  C   -0.118357
    30  C    0.090994
    31  C   -0.008158
    32  C   -0.007242
    33  C   -0.069768
    34  N   -0.503364
    35  C    0.162282
    36  C   -0.195428
    37  C   -0.040967
    38  C    0.213527
    39  C    0.054483
    40  C    0.143646
    41  O   -0.198189
    42  C   -0.144729
    43  C    0.307087
    44  O   -0.234917
    45  O   -0.349804
    46  C    0.124027
    47  C    0.250834
    48  C   -0.181517
    49  C   -0.200759
    50  C    0.086907
    51  C    0.011094
    52  C   -0.090313
    53  C   -0.021590
    54  C   -0.195833
    55  C   -0.000040
    56  C   -0.027614
    57  C   -0.031299
    58  C   -0.037072
    59  C   -0.178939
    60  C   -0.029609
    61  C    0.004089
    62  C   -0.075342
    63  C   -0.010860
    64  C   -0.247171
    65  C   -0.039183
    66  C    0.000094
    67  H    0.011092
    68  H   -0.014557
    69  H    0.006470
    70  H    0.043685
    71  H    0.051643
    72  H    0.047275
    73  H    0.060873
    74  H    0.040261
    75  H    0.038611
    76  H    0.050008
    77  H    0.073567
    78  H    0.061234
    79  H    0.059073
    80  H    0.027668
    81  H    0.069651
    82  H    0.069048
    83  H    0.044660
    84  H    0.061622
    85  H    0.059964
    86  H    0.043007
    87  H    0.044089
    88  H    0.049858
    89  H    0.044431
    90  H    0.047268
    91  H    0.042349
    92  H    0.036122
    93  H    0.046802
    94  H    0.050155
    95  H    0.056805
    96  H    0.045962
    97  H    0.042621
    98  H    0.101751
    99  H    0.055179
   100  H    0.063530
   101  H    0.063669
   102  H    0.034716
   103  H    0.053538
   104  H    0.025554
   105  H    0.040267
   106  H    0.038710
   107  H    0.073825
   108  H    0.023528
   109  H    0.033462
   110  H    0.029755
   111  H    0.040372
   112  H    0.027607
   113  H    0.019509
   114  H    0.032004
   115  H    0.028330
   116  H    0.047046
   117  H    0.031147
   118  H    0.029644
   119  H    0.034695
   120  H    0.041096
   121  H    0.029196
   122  H    0.031289
   123  H    0.016482
   124  H    0.031228
   125  H    0.025722
   126  H    0.035130
   127  H    0.028815
   128  H    0.016798
   129  H    0.027165
   130  H    0.029256
   131  H    0.035174
   132  H    0.029954
   133  H    0.036157
   134  H    0.040650
   135  H    0.039341
   136  H    0.026348
   137  H    0.016822
   138  H    0.049853
   139  H    0.041375
   140  H    0.028417
 Sum of Mulliken charges =  -0.00000

 Dipole moment (field-independent basis, Debye):
    X=             -0.5010    Y=              3.2969    Z=             -0.8956  Tot=              3.4529
 Quadrupole moment (field-independent basis, Debye-Ang):
   XX=           -404.3406   YY=           -434.8422   ZZ=           -380.9310
   XY=            -56.3228   XZ=             -5.7929   YZ=            -30.0941

 Normal termination of Gaussian 16 at Wed May  4 02:59:10 2022.
