 Gaussian 16, Revision A.03,
 Gaussian 16:  ES64L-G16RevA.03 25-Dec-2016

 --------------------------------
 #p wB97XD/Def2SVP td=(nstates=5)
 --------------------------------

 ----------------------------------------------------
 step_1301_chromophore_2 TDDFT with wB97XD functional
 ----------------------------------------------------
 Symbolic Z-matrix:
 Charge =  0 Multiplicity = 1

                         Standard orientation:
 ---------------------------------------------------------------------
 Center     Atomic      Atomic             Coordinates (Angstroms)
 Number     Number       Type             X           Y           Z
 ---------------------------------------------------------------------
      1         12           0       -4.419107    1.318307    0.548777
      2          6           0       -4.826330   -2.067296    0.586669
      3          6           0       -1.715759    0.933809    2.833470
      4          6           0       -3.371789    4.553894   -0.220392
      5          6           0       -6.942516    1.637764   -1.669307
      6          7           0       -3.386221   -0.352932    1.545310
      7          6           0       -3.686260   -1.685825    1.388871
      8          6           0       -2.754380   -2.646451    2.228201
      9          6           0       -1.937806   -1.583779    3.010025
     10          6           0       -2.340299   -0.222120    2.428820
     11          6           0       -2.188068   -1.634331    4.514340
     12          6           0       -1.995541   -3.674105    1.402522
     13          6           0       -1.519900   -3.360703   -0.020264
     14          6           0       -0.612735   -4.326753   -0.748176
     15          8           0        0.316545   -4.926666   -0.229647
     16          8           0       -0.974593   -4.365782   -2.090308
     17          7           0       -2.763022    2.634126    1.246143
     18          6           0       -1.898799    2.284602    2.311688
     19          6           0       -1.171170    3.464177    2.656844
     20          6           0       -1.671973    4.571759    1.802374
     21          6           0       -2.651601    3.932000    0.836901
     22          6           0       -0.131098    3.489922    3.730584
     23          6           0       -1.041294    5.950528    1.869512
     24          8           0       -0.217072    6.195947    2.753377
     25          6           0       -1.285329    7.100622    0.925019
     26          7           0       -4.851162    2.797671   -0.969590
     27          6           0       -4.450286    4.055172   -0.987111
     28          6           0       -5.047793    4.874157   -2.133598
     29          6           0       -6.228293    3.915110   -2.534954
     30          6           0       -6.007467    2.702739   -1.633461
     31          6           0       -5.544335    6.248713   -1.735466
     32          6           0       -6.195136    3.596102   -4.067369
     33          6           0       -7.606857    3.674676   -4.663451
     34          7           0       -5.640156    0.052598   -0.364186
     35          6           0       -6.666012    0.340937   -1.248456
     36          6           0       -7.382585   -0.857835   -1.444289
     37          6           0       -6.677748   -1.884936   -0.799090
     38          6           0       -5.633961   -1.222691   -0.139904
     39          6           0       -8.690814   -0.991584   -2.166916
     40          6           0       -6.580700   -3.346695   -0.521648
     41          8           0       -7.261599   -4.255531   -0.990411
     42          6           0       -5.417873   -3.526969    0.451532
     43          6           0       -6.048829   -3.943100    1.810489
     44          8           0       -6.697162   -4.967161    1.973955
     45          8           0       -5.875810   -3.016676    2.789238
     46          6           0       -6.246559   -3.373686    4.171703
     47          6           0        0.175589   -4.848704   -2.892491
     48          6           0        1.210811   -3.764930   -3.050846
     49          6           0        2.432089   -3.751576   -2.513643
     50          6           0        3.122000   -4.728743   -1.668101
     51          6           0        3.209937   -2.483606   -2.855310
     52          6           0        3.844007   -1.614496   -1.702692
     53          6           0        5.437759   -1.496442   -1.542913
     54          6           0        5.918206   -0.252494   -0.695848
     55          6           0        5.921189    1.032380   -1.518615
     56          6           0        7.243617   -0.511618    0.042772
     57          6           0        8.611510   -0.314463   -0.752980
     58          6           0        9.659642    0.520169    0.056358
     59          6           0       10.923486   -0.215464    0.683096
     60          6           0       10.499752   -0.833348    2.049326
     61          6           0       12.158429    0.764224    0.657660
     62          6           0       13.119558    0.480791   -0.558301
     63          6           0       14.591900    0.048891   -0.245062
     64          6           0       15.636888    1.193392   -0.627243
     65          6           0       16.976635    0.555807   -1.071775
     66          6           0       16.009683    2.100012    0.593286
     67          1           0       -0.859286    0.803026    3.497634
     68          1           0       -3.125699    5.613918   -0.310664
     69          1           0       -7.847239    1.759243   -2.267581
     70          1           0       -3.432206   -3.316696    2.757533
     71          1           0       -0.884421   -1.595429    2.730113
     72          1           0       -2.468261   -2.634700    4.842367
     73          1           0       -2.819653   -0.820354    4.867682
     74          1           0       -1.178234   -1.468461    4.889742
     75          1           0       -2.717812   -4.490468    1.414627
     76          1           0       -1.130390   -4.008131    1.974285
     77          1           0       -0.977269   -2.415559   -0.024801
     78          1           0       -2.466067   -3.244331   -0.548166
     79          1           0        0.800627    3.480237    3.166353
     80          1           0       -0.164875    2.627669    4.396759
     81          1           0       -0.172373    4.364981    4.379972
     82          1           0       -2.215951    7.658028    1.035054
     83          1           0       -1.315847    6.736697   -0.102371
     84          1           0       -0.388337    7.708791    1.046944
     85          1           0       -4.331399    5.016162   -2.942638
     86          1           0       -7.133461    4.460185   -2.266847
     87          1           0       -5.675657    6.143506   -0.658589
     88          1           0       -6.474477    6.625031   -2.162051
     89          1           0       -4.798731    7.015304   -1.946104
     90          1           0       -5.944690    2.538122   -4.146462
     91          1           0       -5.410675    4.158482   -4.574156
     92          1           0       -7.782949    2.832833   -5.332551
     93          1           0       -7.668292    4.526514   -5.339989
     94          1           0       -8.339423    3.614522   -3.857853
     95          1           0       -9.180562   -1.943598   -1.960926
     96          1           0       -8.664207   -1.075314   -3.253753
     97          1           0       -9.334575   -0.126446   -2.008074
     98          1           0       -4.740360   -4.244959   -0.010522
     99          1           0       -5.802750   -2.727453    4.928968
    100          1           0       -5.997548   -4.378669    4.511884
    101          1           0       -7.317197   -3.236925    4.322756
    102          1           0       -0.234293   -5.014234   -3.888470
    103          1           0        0.524354   -5.834048   -2.581573
    104          1           0        0.927424   -2.898657   -3.648931
    105          1           0        4.137493   -4.873220   -2.036981
    106          1           0        2.600976   -5.680509   -1.770032
    107          1           0        3.103433   -4.352949   -0.644686
    108          1           0        2.615690   -1.777819   -3.435850
    109          1           0        4.018236   -2.787089   -3.521116
    110          1           0        3.563410   -2.240687   -0.855618
    111          1           0        3.335482   -0.653446   -1.626543
    112          1           0        5.832369   -1.476644   -2.558462
    113          1           0        5.797380   -2.442329   -1.137278
    114          1           0        5.186759   -0.094104    0.096657
    115          1           0        5.831708    0.821555   -2.584655
    116          1           0        6.775440    1.669059   -1.290680
    117          1           0        4.964776    1.507206   -1.297922
    118          1           0        7.141032   -1.553111    0.347167
    119          1           0        7.245955    0.184461    0.881857
    120          1           0        8.537260    0.137192   -1.742186
    121          1           0        8.990866   -1.331260   -0.856159
    122          1           0        9.239706    1.186129    0.810595
    123          1           0       10.040016    1.200265   -0.704850
    124          1           0       11.179123   -1.127698    0.145120
    125          1           0       10.893253   -0.186630    2.832533
    126          1           0       10.775905   -1.881052    2.168777
    127          1           0        9.454079   -0.847080    2.356465
    128          1           0       12.797847    0.691414    1.537253
    129          1           0       11.915042    1.826177    0.617911
    130          1           0       13.135460    1.456581   -1.044844
    131          1           0       12.689050   -0.273138   -1.217982
    132          1           0       14.549235   -0.776421   -0.955935
    133          1           0       14.824235   -0.258499    0.774251
    134          1           0       15.294092    1.744384   -1.502576
    135          1           0       17.796841    1.269280   -1.147380
    136          1           0       16.915732   -0.137792   -1.910840
    137          1           0       17.374647   -0.164184   -0.356744
    138          1           0       15.722270    3.089414    0.236747
    139          1           0       17.033878    1.850029    0.872161
    140          1           0       15.416058    1.875078    1.479211
 ---------------------------------------------------------------------

 SCF Done:  E(RwB97XD) =  -3007.83756271     A.U. after   19 cycles

 Excitation energies and oscillator strengths:

 Excited State   1:      Singlet-A      1.6390 eV  756.47 nm  f=0.3842  <S**2>=0.000
     245 -> 248        0.18217
     246 -> 247        0.68432
     245 <- 248        0.11785
 This state for optimization and/or second-order correction.
 Total Energy, E(TD-HF/TD-DFT) =  -3007.77733127
 Copying the excited state density for this state as the 1-particle RhoCI density.

 Excited State   2:      Singlet-A      2.1844 eV  567.59 nm  f=0.1088  <S**2>=0.000
     245 -> 247        0.63403
     246 -> 248       -0.29257

 Excited State   3:      Singlet-A      3.0055 eV  412.53 nm  f=0.0108  <S**2>=0.000
     244 -> 247        0.67933
     244 -> 249       -0.10342

 Excited State   4:      Singlet-A      3.4312 eV  361.34 nm  f=0.0015  <S**2>=0.000
     241 -> 247        0.18106
     243 -> 247        0.52982
     243 -> 248       -0.13919
     243 -> 249       -0.18626
     243 -> 250        0.23366
     243 -> 251       -0.15023

 Excited State   5:      Singlet-A      3.4614 eV  358.20 nm  f=0.0542  <S**2>=0.000
     239 -> 247       -0.22247
     239 -> 249       -0.18019
     240 -> 247        0.22192
     240 -> 249        0.19157
     241 -> 247        0.41517
     241 -> 249        0.11221
     243 -> 247       -0.16826
     246 -> 248       -0.25514

 The electronic state is 1-A.
 Alpha  occ. eigenvalues --  -46.95672 -19.32004 -19.30236 -19.25386 -19.25205
 Alpha  occ. eigenvalues --  -19.24794 -19.22218 -14.47594 -14.47229 -14.44021
 Alpha  occ. eigenvalues --  -14.43856 -10.44642 -10.43488 -10.39963 -10.37924
 Alpha  occ. eigenvalues --  -10.37006 -10.36481 -10.35816 -10.35398 -10.35085
 Alpha  occ. eigenvalues --  -10.34735 -10.34604 -10.34405 -10.34242 -10.33771
 Alpha  occ. eigenvalues --  -10.32879 -10.32766 -10.32719 -10.32555 -10.32082
 Alpha  occ. eigenvalues --  -10.31836 -10.31811 -10.31720 -10.31654 -10.31620
 Alpha  occ. eigenvalues --  -10.31328 -10.31225 -10.31105 -10.30850 -10.30845
 Alpha  occ. eigenvalues --  -10.30651 -10.30343 -10.30137 -10.30053 -10.30020
 Alpha  occ. eigenvalues --  -10.29976 -10.29958 -10.29766 -10.29477 -10.29417
 Alpha  occ. eigenvalues --  -10.29338 -10.29324 -10.29263 -10.29185 -10.29138
 Alpha  occ. eigenvalues --  -10.28985 -10.28815 -10.28703 -10.28671 -10.28640
 Alpha  occ. eigenvalues --  -10.28617 -10.28575 -10.28404 -10.27909 -10.27774
 Alpha  occ. eigenvalues --  -10.27767  -3.21664  -1.95238  -1.94781  -1.94635
 Alpha  occ. eigenvalues --   -1.19746  -1.18012  -1.12379  -1.10598  -1.10447
 Alpha  occ. eigenvalues --   -1.10209  -1.08558  -1.07795  -1.05421  -1.02533
 Alpha  occ. eigenvalues --   -0.95336  -0.92427  -0.92053  -0.91617  -0.90929
 Alpha  occ. eigenvalues --   -0.90506  -0.90088  -0.89798  -0.89355  -0.88316
 Alpha  occ. eigenvalues --   -0.87814  -0.86578  -0.86375  -0.85454  -0.85025
 Alpha  occ. eigenvalues --   -0.84234  -0.83821  -0.83001  -0.82719  -0.81915
 Alpha  occ. eigenvalues --   -0.81321  -0.80787  -0.80499  -0.79393  -0.78380
 Alpha  occ. eigenvalues --   -0.77917  -0.77210  -0.76774  -0.76546  -0.76070
 Alpha  occ. eigenvalues --   -0.75411  -0.74798  -0.74281  -0.73032  -0.71364
 Alpha  occ. eigenvalues --   -0.70733  -0.70271  -0.68827  -0.68437  -0.68050
 Alpha  occ. eigenvalues --   -0.67437  -0.67252  -0.67004  -0.66426  -0.66137
 Alpha  occ. eigenvalues --   -0.65451  -0.64687  -0.64212  -0.62839  -0.62373
 Alpha  occ. eigenvalues --   -0.62189  -0.61574  -0.61024  -0.60787  -0.60574
 Alpha  occ. eigenvalues --   -0.59766  -0.59662  -0.58820  -0.58166  -0.58014
 Alpha  occ. eigenvalues --   -0.57309  -0.57166  -0.56750  -0.56511  -0.56043
 Alpha  occ. eigenvalues --   -0.55840  -0.55368  -0.55199  -0.55137  -0.54761
 Alpha  occ. eigenvalues --   -0.54529  -0.54459  -0.54291  -0.54152  -0.53762
 Alpha  occ. eigenvalues --   -0.53630  -0.53529  -0.53068  -0.52805  -0.52552
 Alpha  occ. eigenvalues --   -0.52386  -0.52306  -0.52174  -0.51855  -0.51481
 Alpha  occ. eigenvalues --   -0.51442  -0.51221  -0.50932  -0.50739  -0.50510
 Alpha  occ. eigenvalues --   -0.50438  -0.50205  -0.49871  -0.49767  -0.49645
 Alpha  occ. eigenvalues --   -0.49381  -0.49281  -0.49182  -0.48937  -0.48658
 Alpha  occ. eigenvalues --   -0.48419  -0.48121  -0.48083  -0.47784  -0.47715
 Alpha  occ. eigenvalues --   -0.47406  -0.47296  -0.47241  -0.47084  -0.46795
 Alpha  occ. eigenvalues --   -0.46684  -0.46494  -0.46389  -0.46173  -0.45925
 Alpha  occ. eigenvalues --   -0.45739  -0.45571  -0.45430  -0.45215  -0.45176
 Alpha  occ. eigenvalues --   -0.44808  -0.44578  -0.44513  -0.44370  -0.44083
 Alpha  occ. eigenvalues --   -0.43944  -0.43491  -0.43408  -0.43338  -0.43296
 Alpha  occ. eigenvalues --   -0.42690  -0.42571  -0.42259  -0.42013  -0.41730
 Alpha  occ. eigenvalues --   -0.41590  -0.41196  -0.40770  -0.40492  -0.40452
 Alpha  occ. eigenvalues --   -0.40152  -0.40087  -0.39931  -0.39514  -0.39415
 Alpha  occ. eigenvalues --   -0.39033  -0.38879  -0.38635  -0.38507  -0.37835
 Alpha  occ. eigenvalues --   -0.37731  -0.37434  -0.37007  -0.36972  -0.36527
 Alpha  occ. eigenvalues --   -0.35980  -0.35922  -0.35796  -0.33701  -0.33458
 Alpha  occ. eigenvalues --   -0.32868  -0.32479  -0.31659  -0.30209  -0.26411
 Alpha  occ. eigenvalues --   -0.23324
 Alpha virt. eigenvalues --   -0.07500  -0.00163   0.02013   0.04127   0.04825
 Alpha virt. eigenvalues --    0.06702   0.06783   0.07590   0.08018   0.09368
 Alpha virt. eigenvalues --    0.10210   0.10865   0.11771   0.12339   0.12525

 Mulliken charges:
               1
     1  Mg   0.959151
     2  C   -0.105599
     3  C   -0.077672
     4  C   -0.038711
     5  C   -0.106436
     6  N   -0.358688
     7  C   -0.006827
     8  C   -0.001495
     9  C   -0.090837
    10  C    0.059701
    11  C    0.035385
    12  C   -0.023524
    13  C   -0.002341
    14  C    0.249566
    15  O   -0.256661
    16  O   -0.369189
    17  N   -0.438527
    18  C    0.138741
    19  C   -0.170375
    20  C   -0.085633
    21  C    0.147335
    22  C    0.082873
    23  C    0.028641
    24  O   -0.265512
    25  C   -0.016583
    26  N   -0.314585
    27  C    0.042557
    28  C   -0.109827
    29  C   -0.092532
    30  C    0.084298
    31  C    0.001419
    32  C    0.004949
    33  C   -0.053304
    34  N   -0.462443
    35  C    0.156978
    36  C   -0.187975
    37  C   -0.038323
    38  C    0.196479
    39  C    0.060413
    40  C    0.124933
    41  O   -0.186803
    42  C   -0.109630
    43  C    0.285839
    44  O   -0.230281
    45  O   -0.347955
    46  C    0.137520
    47  C    0.271227
    48  C   -0.188715
    49  C   -0.189435
    50  C    0.095981
    51  C    0.024523
    52  C   -0.069650
    53  C   -0.005991
    54  C   -0.168816
    55  C    0.009837
    56  C   -0.008071
    57  C   -0.018973
    58  C   -0.020326
    59  C   -0.149143
    60  C   -0.019729
    61  C    0.017996
    62  C   -0.058650
    63  C   -0.000075
    64  C   -0.217260
    65  C   -0.024710
    66  C    0.010268
    67  H    0.004741
    68  H   -0.028828
    69  H   -0.001026
    70  H    0.026319
    71  H    0.041784
    72  H    0.041439
    73  H    0.055137
    74  H    0.034580
    75  H    0.028988
    76  H    0.044134
    77  H    0.066577
    78  H    0.047982
    79  H    0.053414
    80  H    0.021673
    81  H    0.065648
    82  H    0.065509
    83  H    0.038727
    84  H    0.059681
    85  H    0.050192
    86  H    0.030017
    87  H    0.036234
    88  H    0.044557
    89  H    0.039452
    90  H    0.036969
    91  H    0.036471
    92  H    0.030676
    93  H    0.041674
    94  H    0.042771
    95  H    0.054160
    96  H    0.042180
    97  H    0.038077
    98  H    0.097652
    99  H    0.052432
   100  H    0.060341
   101  H    0.060065
   102  H    0.030783
   103  H    0.048360
   104  H    0.022884
   105  H    0.035545
   106  H    0.032680
   107  H    0.070040
   108  H    0.016998
   109  H    0.024010
   110  H    0.014930
   111  H    0.033665
   112  H    0.016865
   113  H    0.010712
   114  H    0.021168
   115  H    0.021832
   116  H    0.040111
   117  H    0.025898
   118  H    0.020170
   119  H    0.024709
   120  H    0.033880
   121  H    0.020659
   122  H    0.021778
   123  H    0.006343
   124  H    0.018378
   125  H    0.019207
   126  H    0.030666
   127  H    0.021636
   128  H    0.006091
   129  H    0.019704
   130  H    0.019770
   131  H    0.026770
   132  H    0.022133
   133  H    0.028039
   134  H    0.030304
   135  H    0.033032
   136  H    0.020504
   137  H    0.008346
   138  H    0.044917
   139  H    0.035377
   140  H    0.021909
 Sum of Mulliken charges =  -0.00000

 Dipole moment (field-independent basis, Debye):
    X=             -0.7715    Y=              3.0676    Z=             -0.9854  Tot=              3.3131
 Quadrupole moment (field-independent basis, Debye-Ang):
   XX=           -401.9675   YY=           -434.7788   ZZ=           -380.7702
   XY=            -55.2711   XZ=             -5.8505   YZ=            -30.1882

 Normal termination of Gaussian 16 at Wed May  4 03:26:12 2022.
