 Gaussian 16, Revision A.03,
 Gaussian 16:  ES64L-G16RevA.03 25-Dec-2016

 --------------------
 #p ZINDO=(nstates=5)
 --------------------

 -----------------------------
 step_1301_chromophore_2 ZINDO
 -----------------------------
 Symbolic Z-matrix:
 Charge =  0 Multiplicity = 1

                         Standard orientation:
 ---------------------------------------------------------------------
 Center     Atomic      Atomic             Coordinates (Angstroms)
 Number     Number       Type             X           Y           Z
 ---------------------------------------------------------------------
      1         12           0       -4.419107    1.318307    0.548777
      2          6           0       -4.826330   -2.067296    0.586669
      3          6           0       -1.715759    0.933809    2.833470
      4          6           0       -3.371789    4.553894   -0.220392
      5          6           0       -6.942516    1.637764   -1.669307
      6          7           0       -3.386221   -0.352932    1.545310
      7          6           0       -3.686260   -1.685825    1.388871
      8          6           0       -2.754380   -2.646451    2.228201
      9          6           0       -1.937806   -1.583779    3.010025
     10          6           0       -2.340299   -0.222120    2.428820
     11          6           0       -2.188068   -1.634331    4.514340
     12          6           0       -1.995541   -3.674105    1.402522
     13          6           0       -1.519900   -3.360703   -0.020264
     14          6           0       -0.612735   -4.326753   -0.748176
     15          8           0        0.316545   -4.926666   -0.229647
     16          8           0       -0.974593   -4.365782   -2.090308
     17          7           0       -2.763022    2.634126    1.246143
     18          6           0       -1.898799    2.284602    2.311688
     19          6           0       -1.171170    3.464177    2.656844
     20          6           0       -1.671973    4.571759    1.802374
     21          6           0       -2.651601    3.932000    0.836901
     22          6           0       -0.131098    3.489922    3.730584
     23          6           0       -1.041294    5.950528    1.869512
     24          8           0       -0.217072    6.195947    2.753377
     25          6           0       -1.285329    7.100622    0.925019
     26          7           0       -4.851162    2.797671   -0.969590
     27          6           0       -4.450286    4.055172   -0.987111
     28          6           0       -5.047793    4.874157   -2.133598
     29          6           0       -6.228293    3.915110   -2.534954
     30          6           0       -6.007467    2.702739   -1.633461
     31          6           0       -5.544335    6.248713   -1.735466
     32          6           0       -6.195136    3.596102   -4.067369
     33          6           0       -7.606857    3.674676   -4.663451
     34          7           0       -5.640156    0.052598   -0.364186
     35          6           0       -6.666012    0.340937   -1.248456
     36          6           0       -7.382585   -0.857835   -1.444289
     37          6           0       -6.677748   -1.884936   -0.799090
     38          6           0       -5.633961   -1.222691   -0.139904
     39          6           0       -8.690814   -0.991584   -2.166916
     40          6           0       -6.580700   -3.346695   -0.521648
     41          8           0       -7.261599   -4.255531   -0.990411
     42          6           0       -5.417873   -3.526969    0.451532
     43          6           0       -6.048829   -3.943100    1.810489
     44          8           0       -6.697162   -4.967161    1.973955
     45          8           0       -5.875810   -3.016676    2.789238
     46          6           0       -6.246559   -3.373686    4.171703
     47          6           0        0.175589   -4.848704   -2.892491
     48          6           0        1.210811   -3.764930   -3.050846
     49          6           0        2.432089   -3.751576   -2.513643
     50          6           0        3.122000   -4.728743   -1.668101
     51          6           0        3.209937   -2.483606   -2.855310
     52          6           0        3.844007   -1.614496   -1.702692
     53          6           0        5.437759   -1.496442   -1.542913
     54          6           0        5.918206   -0.252494   -0.695848
     55          6           0        5.921189    1.032380   -1.518615
     56          6           0        7.243617   -0.511618    0.042772
     57          6           0        8.611510   -0.314463   -0.752980
     58          6           0        9.659642    0.520169    0.056358
     59          6           0       10.923486   -0.215464    0.683096
     60          6           0       10.499752   -0.833348    2.049326
     61          6           0       12.158429    0.764224    0.657660
     62          6           0       13.119558    0.480791   -0.558301
     63          6           0       14.591900    0.048891   -0.245062
     64          6           0       15.636888    1.193392   -0.627243
     65          6           0       16.976635    0.555807   -1.071775
     66          6           0       16.009683    2.100012    0.593286
     67          1           0       -0.859286    0.803026    3.497634
     68          1           0       -3.125699    5.613918   -0.310664
     69          1           0       -7.847239    1.759243   -2.267581
     70          1           0       -3.432206   -3.316696    2.757533
     71          1           0       -0.884421   -1.595429    2.730113
     72          1           0       -2.468261   -2.634700    4.842367
     73          1           0       -2.819653   -0.820354    4.867682
     74          1           0       -1.178234   -1.468461    4.889742
     75          1           0       -2.717812   -4.490468    1.414627
     76          1           0       -1.130390   -4.008131    1.974285
     77          1           0       -0.977269   -2.415559   -0.024801
     78          1           0       -2.466067   -3.244331   -0.548166
     79          1           0        0.800627    3.480237    3.166353
     80          1           0       -0.164875    2.627669    4.396759
     81          1           0       -0.172373    4.364981    4.379972
     82          1           0       -2.215951    7.658028    1.035054
     83          1           0       -1.315847    6.736697   -0.102371
     84          1           0       -0.388337    7.708791    1.046944
     85          1           0       -4.331399    5.016162   -2.942638
     86          1           0       -7.133461    4.460185   -2.266847
     87          1           0       -5.675657    6.143506   -0.658589
     88          1           0       -6.474477    6.625031   -2.162051
     89          1           0       -4.798731    7.015304   -1.946104
     90          1           0       -5.944690    2.538122   -4.146462
     91          1           0       -5.410675    4.158482   -4.574156
     92          1           0       -7.782949    2.832833   -5.332551
     93          1           0       -7.668292    4.526514   -5.339989
     94          1           0       -8.339423    3.614522   -3.857853
     95          1           0       -9.180562   -1.943598   -1.960926
     96          1           0       -8.664207   -1.075314   -3.253753
     97          1           0       -9.334575   -0.126446   -2.008074
     98          1           0       -4.740360   -4.244959   -0.010522
     99          1           0       -5.802750   -2.727453    4.928968
    100          1           0       -5.997548   -4.378669    4.511884
    101          1           0       -7.317197   -3.236925    4.322756
    102          1           0       -0.234293   -5.014234   -3.888470
    103          1           0        0.524354   -5.834048   -2.581573
    104          1           0        0.927424   -2.898657   -3.648931
    105          1           0        4.137493   -4.873220   -2.036981
    106          1           0        2.600976   -5.680509   -1.770032
    107          1           0        3.103433   -4.352949   -0.644686
    108          1           0        2.615690   -1.777819   -3.435850
    109          1           0        4.018236   -2.787089   -3.521116
    110          1           0        3.563410   -2.240687   -0.855618
    111          1           0        3.335482   -0.653446   -1.626543
    112          1           0        5.832369   -1.476644   -2.558462
    113          1           0        5.797380   -2.442329   -1.137278
    114          1           0        5.186759   -0.094104    0.096657
    115          1           0        5.831708    0.821555   -2.584655
    116          1           0        6.775440    1.669059   -1.290680
    117          1           0        4.964776    1.507206   -1.297922
    118          1           0        7.141032   -1.553111    0.347167
    119          1           0        7.245955    0.184461    0.881857
    120          1           0        8.537260    0.137192   -1.742186
    121          1           0        8.990866   -1.331260   -0.856159
    122          1           0        9.239706    1.186129    0.810595
    123          1           0       10.040016    1.200265   -0.704850
    124          1           0       11.179123   -1.127698    0.145120
    125          1           0       10.893253   -0.186630    2.832533
    126          1           0       10.775905   -1.881052    2.168777
    127          1           0        9.454079   -0.847080    2.356465
    128          1           0       12.797847    0.691414    1.537253
    129          1           0       11.915042    1.826177    0.617911
    130          1           0       13.135460    1.456581   -1.044844
    131          1           0       12.689050   -0.273138   -1.217982
    132          1           0       14.549235   -0.776421   -0.955935
    133          1           0       14.824235   -0.258499    0.774251
    134          1           0       15.294092    1.744384   -1.502576
    135          1           0       17.796841    1.269280   -1.147380
    136          1           0       16.915732   -0.137792   -1.910840
    137          1           0       17.374647   -0.164184   -0.356744
    138          1           0       15.722270    3.089414    0.236747
    139          1           0       17.033878    1.850029    0.872161
    140          1           0       15.416058    1.875078    1.479211
 ---------------------------------------------------------------------

 SCF Done:  E(RZINDO/S) =  -474.141147465     A.U. after   19 cycles

 Excitation energies and oscillator strengths:

 Excited State   1:      Singlet-A      1.2232 eV 1013.58 nm  f=0.5920  <S**2>=0.000
     175 ->178        -0.19227
     176 ->177         0.66295
 This state for optimization and/or second-order correction.
 Total Energy, E(CIS/TDA) =  -474.096194712
 Copying the excited state density for this state as the 1-particle RhoCI density.

 Excited State   2:      Singlet-A      1.8962 eV  653.86 nm  f=0.0470  <S**2>=0.000
     175 ->177         0.54577
     176 ->178         0.42571

 Excited State   3:      Singlet-A      2.9048 eV  426.82 nm  f=0.0062  <S**2>=0.000
     170 ->177         0.23919
     170 ->178        -0.12669
     170 ->179         0.16406
     170 ->180         0.16633
     170 ->181        -0.20802
     170 ->183        -0.16858
     170 ->184        -0.17336
     170 ->185         0.17182
     170 ->187        -0.15616
     171 ->177        -0.11311
     171 ->181         0.11357
     174 ->177         0.26868

 Excited State   4:      Singlet-A      2.9392 eV  421.84 nm  f=0.0031  <S**2>=0.000
     167 ->179        -0.13424
     168 ->177         0.35546
     168 ->179        -0.44710
     168 ->180         0.10237
     168 ->185        -0.22014

 Excited State   5:      Singlet-A      2.9992 eV  413.39 nm  f=0.0921  <S**2>=0.000
     171 ->177         0.15424
     172 ->177        -0.21388
     174 ->177         0.53855
     175 ->177         0.12255
     176 ->178        -0.10374
     176 ->179        -0.13779

 The electronic state is 1-A.
 Alpha  occ. eigenvalues --   -1.89121  -1.83208  -1.78402  -1.73222  -1.72372
 Alpha  occ. eigenvalues --   -1.69429  -1.61672  -1.59284  -1.58535  -1.58330
 Alpha  occ. eigenvalues --   -1.54411  -1.51022  -1.49622  -1.49038  -1.48454
 Alpha  occ. eigenvalues --   -1.45197  -1.44442  -1.42167  -1.39437  -1.37201
 Alpha  occ. eigenvalues --   -1.36506  -1.34659  -1.31756  -1.30017  -1.28524
 Alpha  occ. eigenvalues --   -1.26476  -1.25452  -1.21469  -1.20871  -1.18429
 Alpha  occ. eigenvalues --   -1.18274  -1.15646  -1.15049  -1.13779  -1.13105
 Alpha  occ. eigenvalues --   -1.12284  -1.10927  -1.08572  -1.07479  -1.04365
 Alpha  occ. eigenvalues --   -1.02865  -1.01531  -1.00668  -0.98267  -0.97879
 Alpha  occ. eigenvalues --   -0.97339  -0.93469  -0.92744  -0.91757  -0.91534
 Alpha  occ. eigenvalues --   -0.91274  -0.90232  -0.89141  -0.88510  -0.86281
 Alpha  occ. eigenvalues --   -0.85707  -0.84386  -0.83376  -0.82367  -0.81107
 Alpha  occ. eigenvalues --   -0.79748  -0.78972  -0.78539  -0.77377  -0.76815
 Alpha  occ. eigenvalues --   -0.75687  -0.74769  -0.74597  -0.74226  -0.73779
 Alpha  occ. eigenvalues --   -0.73377  -0.73034  -0.72602  -0.72160  -0.71120
 Alpha  occ. eigenvalues --   -0.70395  -0.69857  -0.69403  -0.68981  -0.68843
 Alpha  occ. eigenvalues --   -0.67568  -0.67336  -0.66799  -0.66360  -0.66079
 Alpha  occ. eigenvalues --   -0.65126  -0.64987  -0.64769  -0.64321  -0.64097
 Alpha  occ. eigenvalues --   -0.63422  -0.63397  -0.62799  -0.62170  -0.61675
 Alpha  occ. eigenvalues --   -0.61423  -0.61297  -0.60861  -0.60125  -0.59935
 Alpha  occ. eigenvalues --   -0.59824  -0.59118  -0.58541  -0.58305  -0.58188
 Alpha  occ. eigenvalues --   -0.58042  -0.57416  -0.56781  -0.56480  -0.56152
 Alpha  occ. eigenvalues --   -0.56029  -0.55913  -0.55516  -0.55183  -0.54642
 Alpha  occ. eigenvalues --   -0.54463  -0.54288  -0.54078  -0.53699  -0.53119
 Alpha  occ. eigenvalues --   -0.52811  -0.52754  -0.52599  -0.52193  -0.51948
 Alpha  occ. eigenvalues --   -0.51782  -0.51194  -0.51146  -0.50594  -0.50153
 Alpha  occ. eigenvalues --   -0.50131  -0.49717  -0.49217  -0.49008  -0.48871
 Alpha  occ. eigenvalues --   -0.48679  -0.48404  -0.48210  -0.47910  -0.47866
 Alpha  occ. eigenvalues --   -0.47833  -0.47447  -0.47263  -0.46951  -0.46908
 Alpha  occ. eigenvalues --   -0.46572  -0.46275  -0.45843  -0.45585  -0.45507
 Alpha  occ. eigenvalues --   -0.44684  -0.44511  -0.44282  -0.43967  -0.43915
 Alpha  occ. eigenvalues --   -0.43652  -0.43592  -0.43044  -0.42913  -0.42483
 Alpha  occ. eigenvalues --   -0.42469  -0.41916  -0.41515  -0.40052  -0.39322
 Alpha  occ. eigenvalues --   -0.38859  -0.37262  -0.35981  -0.35520  -0.34089
 Alpha  occ. eigenvalues --   -0.33969  -0.32819  -0.32536  -0.31205  -0.27088
 Alpha  occ. eigenvalues --   -0.22242
 Alpha virt. eigenvalues --   -0.09103  -0.02649  -0.01120   0.00673   0.00845
 Alpha virt. eigenvalues --    0.01506   0.02055   0.02984   0.04508   0.05359
 Alpha virt. eigenvalues --    0.05758   0.06092   0.07200   0.07354   0.07755

 Mulliken charges:
               1
     1  Mg   0.430585
     2  C   -0.070784
     3  C   -0.065989
     4  C   -0.085650
     5  C   -0.077550
     6  N   -0.281018
     7  C    0.125352
     8  C    0.003011
     9  C    0.008019
    10  C    0.110055
    11  C   -0.048977
    12  C   -0.020885
    13  C    0.007657
    14  C    0.477818
    15  O   -0.514737
    16  O   -0.270466
    17  N   -0.333276
    18  C    0.072526
    19  C    0.039521
    20  C   -0.085650
    21  C    0.122583
    22  C   -0.033198
    23  C    0.321892
    24  O   -0.541145
    25  C   -0.030220
    26  N   -0.247753
    27  C    0.131254
    28  C   -0.002977
    29  C   -0.006164
    30  C    0.153032
    31  C   -0.054431
    32  C   -0.031655
    33  C   -0.058558
    34  N   -0.325722
    35  C    0.111523
    36  C    0.043818
    37  C   -0.056116
    38  C    0.142616
    39  C   -0.046268
    40  C    0.339757
    41  O   -0.500276
    42  C    0.052439
    43  C    0.482062
    44  O   -0.497862
    45  O   -0.263665
    46  C    0.074956
    47  C    0.103864
    48  C   -0.094441
    49  C    0.017089
    50  C   -0.030510
    51  C   -0.030310
    52  C   -0.051307
    53  C   -0.035267
    54  C   -0.007798
    55  C   -0.056531
    56  C   -0.037551
    57  C   -0.037755
    58  C   -0.038711
    59  C   -0.007222
    60  C   -0.065086
    61  C   -0.036626
    62  C   -0.046762
    63  C   -0.044349
    64  C   -0.016087
    65  C   -0.065409
    66  C   -0.061310
    67  H    0.032052
    68  H    0.026494
    69  H    0.031087
    70  H    0.041013
    71  H    0.035156
    72  H    0.024224
    73  H    0.036027
    74  H    0.014517
    75  H    0.019616
    76  H    0.026718
    77  H    0.049902
    78  H    0.031558
    79  H    0.038334
    80  H    0.014867
    81  H    0.042779
    82  H    0.042481
    83  H    0.019967
    84  H    0.041432
    85  H    0.036925
    86  H    0.034079
    87  H    0.020083
    88  H    0.022758
    89  H    0.015944
    90  H    0.018100
    91  H    0.032652
    92  H    0.013373
    93  H    0.023308
    94  H    0.028752
    95  H    0.034319
    96  H    0.029473
    97  H    0.025137
    98  H    0.074599
    99  H    0.029799
   100  H    0.047479
   101  H    0.040971
   102  H    0.019663
   103  H    0.055012
   104  H    0.031994
   105  H    0.024747
   106  H    0.025473
   107  H    0.045883
   108  H    0.014975
   109  H    0.018289
   110  H    0.013683
   111  H    0.027535
   112  H    0.016089
   113  H    0.018005
   114  H    0.014869
   115  H    0.018287
   116  H    0.027453
   117  H    0.012969
   118  H    0.019716
   119  H    0.020746
   120  H    0.029825
   121  H    0.016737
   122  H    0.026092
   123  H    0.002745
   124  H    0.023785
   125  H    0.013501
   126  H    0.018669
   127  H    0.017191
   128  H    0.015260
   129  H    0.021892
   130  H    0.016467
   131  H    0.022206
   132  H    0.021614
   133  H    0.033442
   134  H    0.027658
   135  H    0.018831
   136  H    0.012036
   137  H    0.006667
   138  H    0.027686
   139  H    0.033176
   140  H    0.015756
 Sum of Mulliken charges =  -0.00000

 Dipole moment (field-independent basis, Debye):
    X=             -1.6031    Y=              4.4595    Z=             -2.6976  Tot=              5.4529
 N-N= 4.385184817104D+03 E-N= 0.000000000000D+00  KE=-9.443881881364D+03
 Leave Link  601 at Wed May  4 03:39:12 2022, MaxMem=  6710886400 cpu:               0.8 elap:               0.1
 (Enter /sw/apps/gaussian-16.0/g16/l9999.exe)
 1\1\GINC-BP1-COMPUTE100\SP\RZINDO CIS\STO-3G\C55H74Mg1N4O6\OF15641\04-
 May-2022\0\\#p ZINDO=(nstates=5)\\step_1301_chromophore_2 ZINDO\\0,1\M
 g,0,3.677,0.405,44.149\C,0,6.335,2.541,44.103\C,0,1.753,2.898,42.488\C
 ,0,1.329,-2.033,43.312\C,0,5.551,-1.959,45.662\N,0,4.016,2.436,43.366\
 C,0,5.207,3.122,43.411\C,0,5.136,4.556,42.752\C,0,3.618,4.612,42.436\C
 ,0,3.062,3.219,42.759\C,0,2.888,5.692,43.229\C,0,6.118,4.779,41.612\C,
 0,6.528,3.636,40.677\C,0,7.358,3.922,39.446\O,0,7.199,4.887,38.714\O,0

 Normal termination of Gaussian 16 at Wed May  4 03:39:13 2022.
