 Gaussian 16, Revision A.03,
 Gaussian 16:  ES64L-G16RevA.03 25-Dec-2016

 ------------------------------
 #p blyp/Def2SVP td=(nstates=5)
 ------------------------------

 --------------------------------------------------
 step_101_chromophore_18 TDDFT with blyp functional
 --------------------------------------------------
 Symbolic Z-matrix:
 Charge =  0 Multiplicity = 1

                         Standard orientation:
 ---------------------------------------------------------------------
 Center     Atomic      Atomic             Coordinates (Angstroms)
 Number     Number       Type             X           Y           Z
 ---------------------------------------------------------------------
      1         12           0        5.265899    1.144781    0.255167
      2          6           0        4.121203   -2.308315    0.185968
      3          6           0        1.870071    2.009276    0.217958
      4          6           0        6.164555    4.266121   -0.396077
      5          6           0        8.507003    0.101334   -0.261211
      6          7           0        3.257952   -0.000195    0.184183
      7          6           0        3.002353   -1.359553    0.221849
      8          6           0        1.533766   -1.751449    0.446891
      9          6           0        0.802234   -0.378540    0.265616
     10          6           0        2.030643    0.609260    0.090137
     11          6           0       -0.110215   -0.244118   -0.949319
     12          6           0        1.336590   -2.528529    1.781696
     13          6           0        0.866854   -3.936514    1.667553
     14          6           0       -0.254767   -4.261950    0.677624
     15          8           0       -0.188516   -4.488173   -0.500840
     16          8           0       -1.479241   -4.207281    1.327333
     17          7           0        4.191003    2.894739    0.201362
     18          6           0        2.817948    3.032860    0.228634
     19          6           0        2.548831    4.429962    0.273127
     20          6           0        3.762035    5.127237    0.068580
     21          6           0        4.760834    4.091302   -0.135110
     22          6           0        1.193503    5.028921    0.454874
     23          6           0        4.019274    6.642404    0.070637
     24          8           0        5.049821    7.174153   -0.202486
     25          6           0        2.923680    7.573711    0.401877
     26          7           0        7.020988    2.032527   -0.454046
     27          6           0        7.193012    3.356485   -0.544133
     28          6           0        8.674091    3.799057   -0.540244
     29          6           0        9.392380    2.444695   -0.461080
     30          6           0        8.243926    1.476425   -0.312488
     31          6           0        9.000112    4.737931   -1.680107
     32          6           0       10.578609    2.418837    0.533754
     33          6           0       10.171131    2.156277    1.994939
     34          7           0        6.153683   -0.729068   -0.076218
     35          6           0        7.514645   -0.966376   -0.242403
     36          6           0        7.751375   -2.443353   -0.215166
     37          6           0        6.421374   -2.954763   -0.083570
     38          6           0        5.522599   -1.910372    0.062304
     39          6           0        9.027807   -3.238939   -0.328597
     40          6           0        5.691639   -4.200842   -0.015099
     41          8           0        6.090714   -5.364754   -0.030848
     42          6           0        4.165811   -3.802210    0.117644
     43          6           0        3.270774   -4.467983   -0.863224
     44          8           0        2.718250   -3.905432   -1.781192
     45          8           0        3.307288   -5.802598   -0.700119
     46          6           0        2.465121   -6.636119   -1.629105
     47          6           0       -2.696642   -4.668738    0.602043
     48          6           0       -3.343238   -3.406388   -0.001109
     49          6           0       -4.278798   -3.452223   -0.952883
     50          6           0       -5.074338   -4.645172   -1.328921
     51          6           0       -4.732283   -2.097053   -1.492894
     52          6           0       -6.141883   -1.602012   -0.994822
     53          6           0       -6.113958   -0.601569    0.186774
     54          6           0       -7.341601   -0.674065    1.162250
     55          6           0       -6.923763   -1.042319    2.662117
     56          6           0       -8.152466    0.606004    1.151491
     57          6           0       -9.365803    0.449422    0.291199
     58          6           0      -10.527189   -0.104673    1.198575
     59          6           0      -11.656997    0.984495    1.340451
     60          6           0      -12.323133    0.967144    2.710893
     61          6           0      -12.708453    0.706267    0.168020
     62          6           0      -13.327154    2.092763   -0.277185
     63          6           0      -14.691930    1.778028   -0.903682
     64          6           0      -15.443747    3.045473   -1.292736
     65          6           0      -16.974284    2.912677   -1.217795
     66          6           0      -15.013038    3.523442   -2.700316
     67          1           0        0.867202    2.269616    0.564068
     68          1           0        6.498300    5.305818   -0.391932
     69          1           0        9.585873   -0.057794   -0.327107
     70          1           0        1.194634   -2.426513   -0.338597
     71          1           0        0.151959   -0.215356    1.125598
     72          1           0       -0.320811   -1.227224   -1.370815
     73          1           0        0.143935    0.361160   -1.819413
     74          1           0       -1.059555    0.168587   -0.607507
     75          1           0        0.702086   -1.946660    2.451216
     76          1           0        2.301965   -2.330900    2.245751
     77          1           0        0.579120   -4.280138    2.661304
     78          1           0        1.700957   -4.556213    1.338264
     79          1           0        1.142729    5.501832    1.435559
     80          1           0        0.440761    4.243563    0.524136
     81          1           0        0.952769    5.572597   -0.458548
     82          1           0        2.203723    7.665285   -0.410915
     83          1           0        3.354531    8.571116    0.486990
     84          1           0        2.565009    7.442954    1.422985
     85          1           0        8.940204    4.447242    0.294557
     86          1           0        9.861548    2.288961   -1.432554
     87          1           0        8.216247    4.880265   -2.424926
     88          1           0        9.924324    4.488412   -2.201376
     89          1           0        9.275349    5.721618   -1.300841
     90          1           0       11.025281    3.410597    0.461311
     91          1           0       11.395793    1.744483    0.279142
     92          1           0       10.781079    1.315662    2.326156
     93          1           0        9.130518    1.912822    2.210659
     94          1           0       10.656533    2.962917    2.542642
     95          1           0        9.720207   -2.958552   -1.121600
     96          1           0        8.941365   -4.318368   -0.459347
     97          1           0        9.595994   -3.154026    0.597670
     98          1           0        3.863319   -4.113002    1.117578
     99          1           0        2.217904   -7.515493   -1.034668
    100          1           0        3.125279   -6.822746   -2.476059
    101          1           0        1.472432   -6.308734   -1.938638
    102          1           0       -3.403836   -5.160089    1.271348
    103          1           0       -2.598608   -5.468330   -0.132300
    104          1           0       -2.827539   -2.496300    0.303794
    105          1           0       -5.310091   -5.232426   -0.441575
    106          1           0       -4.522202   -5.313636   -1.989620
    107          1           0       -6.023238   -4.369035   -1.789372
    108          1           0       -4.726973   -2.019046   -2.579825
    109          1           0       -4.062262   -1.294027   -1.183538
    110          1           0       -6.696131   -2.531412   -0.861581
    111          1           0       -6.502472   -1.164692   -1.926504
    112          1           0       -6.082152    0.424817   -0.179596
    113          1           0       -5.167201   -0.814009    0.684104
    114          1           0       -7.975423   -1.506103    0.856895
    115          1           0       -6.069022   -0.395947    2.864163
    116          1           0       -6.489295   -2.040301    2.615068
    117          1           0       -7.643542   -0.986675    3.479094
    118          1           0       -7.584093    1.422829    0.707020
    119          1           0       -8.319146    0.981141    2.160903
    120          1           0       -9.176594   -0.351064   -0.424723
    121          1           0       -9.654449    1.346838   -0.256597
    122          1           0      -10.211822   -0.302618    2.222653
    123          1           0      -10.901779   -1.031739    0.764602
    124          1           0      -11.203433    1.953129    1.128442
    125          1           0      -13.396743    1.012466    2.525333
    126          1           0      -12.004166    1.832877    3.291843
    127          1           0      -12.027229   -0.009253    3.095710
    128          1           0      -13.486976    0.040720    0.540977
    129          1           0      -12.101467    0.205839   -0.585762
    130          1           0      -12.641380    2.374614   -1.077113
    131          1           0      -13.316246    2.802561    0.549979
    132          1           0      -15.148720    1.210410   -0.093113
    133          1           0      -14.605618    1.042199   -1.703446
    134          1           0      -15.298440    3.777379   -0.498954
    135          1           0      -17.305483    3.668785   -0.506798
    136          1           0      -17.203333    1.924481   -0.820986
    137          1           0      -17.426578    3.007842   -2.205208
    138          1           0      -14.125869    3.001375   -3.061197
    139          1           0      -14.694843    4.559768   -2.588431
    140          1           0      -15.657502    3.380060   -3.567397
 ---------------------------------------------------------------------

 SCF Done:  E(RB-LYP) =  -3007.35126003     A.U. after   22 cycles

 Excitation energies and oscillator strengths:

 Excited State   1:      Singlet-A      1.7954 eV  690.56 nm  f=0.2599  <S**2>=0.000
     244 -> 247       -0.11288
     245 -> 248        0.20819
     246 -> 247        0.67666
     246 <- 247       -0.14152
 This state for optimization and/or second-order correction.
 Total Energy, E(TD-HF/TD-DFT) =  -3007.28527961
 Copying the excited state density for this state as the 1-particle RhoCI density.

 Excited State   2:      Singlet-A      1.9164 eV  646.97 nm  f=0.0277  <S**2>=0.000
     243 -> 247       -0.14665
     244 -> 247        0.62063
     245 -> 247       -0.26803
     246 -> 247        0.10671

 Excited State   3:      Singlet-A      1.9457 eV  637.21 nm  f=0.0115  <S**2>=0.000
     243 -> 247        0.61522
     244 -> 247        0.24782
     245 -> 247        0.22590

 Excited State   4:      Singlet-A      1.9889 eV  623.39 nm  f=0.0655  <S**2>=0.000
     243 -> 247       -0.31450
     244 -> 247        0.19881
     245 -> 247        0.55123
     246 -> 248       -0.22188

 Excited State   5:      Singlet-A      2.4784 eV  500.26 nm  f=0.0001  <S**2>=0.000
     240 -> 247        0.59766
     242 -> 247       -0.37104

 The electronic state is 1-A.
 Alpha  occ. eigenvalues --  -46.27212 -18.82169 -18.81079 -18.77829 -18.75327
 Alpha  occ. eigenvalues --  -18.75224 -18.75142 -14.03499 -14.02684 -14.00778
 Alpha  occ. eigenvalues --  -14.00616 -10.04880 -10.02622  -9.99267  -9.99211
 Alpha  occ. eigenvalues --   -9.98525  -9.96960  -9.96825  -9.96382  -9.96090
 Alpha  occ. eigenvalues --   -9.95729  -9.95704  -9.95567  -9.94903  -9.94245
 Alpha  occ. eigenvalues --   -9.94166  -9.94079  -9.93920  -9.93896  -9.93566
 Alpha  occ. eigenvalues --   -9.93411  -9.93179  -9.93133  -9.93084  -9.92940
 Alpha  occ. eigenvalues --   -9.92867  -9.92828  -9.92731  -9.92590  -9.92559
 Alpha  occ. eigenvalues --   -9.92464  -9.92160  -9.92042  -9.91872  -9.91855
 Alpha  occ. eigenvalues --   -9.91816  -9.91799  -9.91763  -9.91620  -9.91603
 Alpha  occ. eigenvalues --   -9.91463  -9.91394  -9.91389  -9.91247  -9.91153
 Alpha  occ. eigenvalues --   -9.91093  -9.90940  -9.90915  -9.90893  -9.90753
 Alpha  occ. eigenvalues --   -9.90736  -9.90716  -9.90672  -9.90599  -9.90442
 Alpha  occ. eigenvalues --   -9.90241  -2.91846  -1.72247  -1.71767  -1.71534
 Alpha  occ. eigenvalues --   -0.98232  -0.96975  -0.93112  -0.90481  -0.90356
 Alpha  occ. eigenvalues --   -0.88714  -0.86970  -0.85420  -0.85102  -0.84378
 Alpha  occ. eigenvalues --   -0.74782  -0.73943  -0.73406  -0.73058  -0.72778
 Alpha  occ. eigenvalues --   -0.72250  -0.71480  -0.70679  -0.70363  -0.69985
 Alpha  occ. eigenvalues --   -0.69274  -0.68694  -0.68158  -0.67279  -0.66700
 Alpha  occ. eigenvalues --   -0.66213  -0.65603  -0.65100  -0.64702  -0.64261
 Alpha  occ. eigenvalues --   -0.63922  -0.62299  -0.62052  -0.61708  -0.60817
 Alpha  occ. eigenvalues --   -0.60234  -0.60054  -0.59583  -0.59448  -0.58584
 Alpha  occ. eigenvalues --   -0.58045  -0.57256  -0.56365  -0.55636  -0.55072
 Alpha  occ. eigenvalues --   -0.53505  -0.53139  -0.52285  -0.51800  -0.51206
 Alpha  occ. eigenvalues --   -0.50773  -0.50625  -0.50331  -0.50209  -0.50006
 Alpha  occ. eigenvalues --   -0.49604  -0.49582  -0.48113  -0.47440  -0.47015
 Alpha  occ. eigenvalues --   -0.46134  -0.46026  -0.45336  -0.44700  -0.44123
 Alpha  occ. eigenvalues --   -0.43876  -0.43233  -0.43088  -0.42666  -0.42289
 Alpha  occ. eigenvalues --   -0.41982  -0.41894  -0.41813  -0.41696  -0.41488
 Alpha  occ. eigenvalues --   -0.40949  -0.40705  -0.40156  -0.39982  -0.39795
 Alpha  occ. eigenvalues --   -0.39691  -0.39359  -0.39203  -0.39119  -0.38976
 Alpha  occ. eigenvalues --   -0.38909  -0.38672  -0.38480  -0.38334  -0.38010
 Alpha  occ. eigenvalues --   -0.37869  -0.37727  -0.37361  -0.37250  -0.36779
 Alpha  occ. eigenvalues --   -0.36686  -0.36612  -0.36439  -0.36395  -0.36264
 Alpha  occ. eigenvalues --   -0.36114  -0.35922  -0.35743  -0.35400  -0.35247
 Alpha  occ. eigenvalues --   -0.35153  -0.35106  -0.34722  -0.34594  -0.34466
 Alpha  occ. eigenvalues --   -0.34415  -0.34253  -0.34170  -0.33909  -0.33778
 Alpha  occ. eigenvalues --   -0.33619  -0.33391  -0.33246  -0.33146  -0.32971
 Alpha  occ. eigenvalues --   -0.32833  -0.32759  -0.32721  -0.32350  -0.32245
 Alpha  occ. eigenvalues --   -0.31891  -0.31626  -0.31529  -0.31523  -0.31377
 Alpha  occ. eigenvalues --   -0.30924  -0.30844  -0.30624  -0.30487  -0.30257
 Alpha  occ. eigenvalues --   -0.30069  -0.30044  -0.29875  -0.29669  -0.29408
 Alpha  occ. eigenvalues --   -0.29287  -0.29185  -0.29064  -0.29016  -0.28516
 Alpha  occ. eigenvalues --   -0.28479  -0.28351  -0.28186  -0.28072  -0.27727
 Alpha  occ. eigenvalues --   -0.27625  -0.27480  -0.27389  -0.26869  -0.26658
 Alpha  occ. eigenvalues --   -0.25992  -0.25872  -0.25675  -0.25474  -0.25265
 Alpha  occ. eigenvalues --   -0.24971  -0.24661  -0.24136  -0.23547  -0.23112
 Alpha  occ. eigenvalues --   -0.22655  -0.22464  -0.21400  -0.20593  -0.20359
 Alpha  occ. eigenvalues --   -0.20162  -0.19914  -0.18314  -0.18238  -0.16654
 Alpha  occ. eigenvalues --   -0.15556
 Alpha virt. eigenvalues --   -0.11241  -0.06511  -0.05682  -0.04340  -0.03590
 Alpha virt. eigenvalues --   -0.03242  -0.01949  -0.01727  -0.01230   0.00469
 Alpha virt. eigenvalues --    0.01033   0.02090   0.02383   0.02756   0.03070

 Mulliken charges:
               1
     1  Mg   0.702056
     2  C    0.008411
     3  C   -0.121310
     4  C   -0.053875
     5  C   -0.046624
     6  N   -0.186312
     7  C   -0.082027
     8  C    0.003344
     9  C   -0.029713
    10  C    0.057883
    11  C    0.102366
    12  C    0.136779
    13  C    0.179325
    14  C    0.062202
    15  O   -0.153768
    16  O   -0.287590
    17  N   -0.317014
    18  C    0.189559
    19  C   -0.186427
    20  C    0.038834
    21  C    0.098631
    22  C    0.224980
    23  C   -0.103633
    24  O   -0.127762
    25  C    0.157721
    26  N   -0.216870
    27  C    0.035075
    28  C   -0.018252
    29  C    0.109339
    30  C   -0.026275
    31  C    0.122012
    32  C    0.050609
    33  C    0.085715
    34  N   -0.258194
    35  C    0.128942
    36  C   -0.133885
    37  C    0.078392
    38  C    0.028841
    39  C    0.154223
    40  C   -0.052942
    41  O   -0.126106
    42  C    0.063190
    43  C    0.104245
    44  O   -0.168223
    45  O   -0.263015
    46  C    0.210386
    47  C    0.305300
    48  C   -0.119410
    49  C   -0.098776
    50  C    0.147741
    51  C    0.094781
    52  C    0.045672
    53  C    0.151357
    54  C   -0.079064
    55  C    0.075328
    56  C    0.135811
    57  C    0.073602
    58  C    0.088511
    59  C   -0.144948
    60  C    0.159735
    61  C    0.072472
    62  C    0.063770
    63  C    0.077461
    64  C   -0.054500
    65  C    0.123275
    66  C    0.106982
    67  H   -0.041782
    68  H   -0.048544
    69  H   -0.065510
    70  H    0.010471
    71  H   -0.024002
    72  H    0.003688
    73  H   -0.001404
    74  H   -0.018455
    75  H   -0.033470
    76  H   -0.025099
    77  H   -0.009340
    78  H   -0.000363
    79  H    0.004372
    80  H   -0.043442
    81  H    0.007047
    82  H    0.009564
    83  H   -0.030308
    84  H   -0.004596
    85  H   -0.015989
    86  H   -0.031346
    87  H    0.005868
    88  H   -0.027558
    89  H   -0.019777
    90  H   -0.026157
    91  H   -0.022379
    92  H   -0.024070
    93  H    0.018340
    94  H   -0.016983
    95  H   -0.007832
    96  H    0.000145
    97  H   -0.008083
    98  H    0.001117
    99  H    0.007486
   100  H    0.024951
   101  H    0.034485
   102  H   -0.005159
   103  H   -0.003035
   104  H   -0.025981
   105  H   -0.009539
   106  H    0.008825
   107  H   -0.000545
   108  H   -0.032998
   109  H   -0.041789
   110  H   -0.033252
   111  H   -0.032915
   112  H   -0.031484
   113  H   -0.032282
   114  H   -0.028638
   115  H   -0.022625
   116  H   -0.022790
   117  H    0.000568
   118  H   -0.056545
   119  H   -0.042552
   120  H   -0.032300
   121  H   -0.025481
   122  H   -0.034822
   123  H   -0.033179
   124  H   -0.039825
   125  H   -0.023830
   126  H   -0.010359
   127  H   -0.016256
   128  H   -0.035227
   129  H   -0.030753
   130  H   -0.029570
   131  H   -0.014973
   132  H   -0.045053
   133  H   -0.033358
   134  H   -0.043397
   135  H   -0.016104
   136  H   -0.028617
   137  H   -0.018735
   138  H   -0.030106
   139  H   -0.013249
   140  H   -0.011461
 Sum of Mulliken charges =  -0.00000

 Dipole moment (field-independent basis, Debye):
    X=             -3.0085    Y=              0.6498    Z=              2.9359  Tot=              4.2536
 Quadrupole moment (field-independent basis, Debye-Ang):
   XX=           -383.4398   YY=           -421.1076   ZZ=           -404.8946
   XY=             21.2323   XZ=             13.4540   YZ=              2.7167

 Normal termination of Gaussian 16 at Wed Apr 27 00:55:25 2022.
