 Gaussian 16, Revision A.03,
 Gaussian 16:  ES64L-G16RevA.03 25-Dec-2016

 -----------------------------------
 #p cam-b3lyp/Def2SVP td=(nstates=5)
 -----------------------------------

 -------------------------------------------------------
 step_101_chromophore_18 TDDFT with cam-b3lyp functional
 -------------------------------------------------------
 Symbolic Z-matrix:
 Charge =  0 Multiplicity = 1

                         Standard orientation:
 ---------------------------------------------------------------------
 Center     Atomic      Atomic             Coordinates (Angstroms)
 Number     Number       Type             X           Y           Z
 ---------------------------------------------------------------------
      1         12           0        5.265899    1.144781    0.255167
      2          6           0        4.121203   -2.308315    0.185968
      3          6           0        1.870071    2.009276    0.217958
      4          6           0        6.164555    4.266121   -0.396077
      5          6           0        8.507003    0.101334   -0.261211
      6          7           0        3.257952   -0.000195    0.184183
      7          6           0        3.002353   -1.359553    0.221849
      8          6           0        1.533766   -1.751449    0.446891
      9          6           0        0.802234   -0.378540    0.265616
     10          6           0        2.030643    0.609260    0.090137
     11          6           0       -0.110215   -0.244118   -0.949319
     12          6           0        1.336590   -2.528529    1.781696
     13          6           0        0.866854   -3.936514    1.667553
     14          6           0       -0.254767   -4.261950    0.677624
     15          8           0       -0.188516   -4.488173   -0.500840
     16          8           0       -1.479241   -4.207281    1.327333
     17          7           0        4.191003    2.894739    0.201362
     18          6           0        2.817948    3.032860    0.228634
     19          6           0        2.548831    4.429962    0.273127
     20          6           0        3.762035    5.127237    0.068580
     21          6           0        4.760834    4.091302   -0.135110
     22          6           0        1.193503    5.028921    0.454874
     23          6           0        4.019274    6.642404    0.070637
     24          8           0        5.049821    7.174153   -0.202486
     25          6           0        2.923680    7.573711    0.401877
     26          7           0        7.020988    2.032527   -0.454046
     27          6           0        7.193012    3.356485   -0.544133
     28          6           0        8.674091    3.799057   -0.540244
     29          6           0        9.392380    2.444695   -0.461080
     30          6           0        8.243926    1.476425   -0.312488
     31          6           0        9.000112    4.737931   -1.680107
     32          6           0       10.578609    2.418837    0.533754
     33          6           0       10.171131    2.156277    1.994939
     34          7           0        6.153683   -0.729068   -0.076218
     35          6           0        7.514645   -0.966376   -0.242403
     36          6           0        7.751375   -2.443353   -0.215166
     37          6           0        6.421374   -2.954763   -0.083570
     38          6           0        5.522599   -1.910372    0.062304
     39          6           0        9.027807   -3.238939   -0.328597
     40          6           0        5.691639   -4.200842   -0.015099
     41          8           0        6.090714   -5.364754   -0.030848
     42          6           0        4.165811   -3.802210    0.117644
     43          6           0        3.270774   -4.467983   -0.863224
     44          8           0        2.718250   -3.905432   -1.781192
     45          8           0        3.307288   -5.802598   -0.700119
     46          6           0        2.465121   -6.636119   -1.629105
     47          6           0       -2.696642   -4.668738    0.602043
     48          6           0       -3.343238   -3.406388   -0.001109
     49          6           0       -4.278798   -3.452223   -0.952883
     50          6           0       -5.074338   -4.645172   -1.328921
     51          6           0       -4.732283   -2.097053   -1.492894
     52          6           0       -6.141883   -1.602012   -0.994822
     53          6           0       -6.113958   -0.601569    0.186774
     54          6           0       -7.341601   -0.674065    1.162250
     55          6           0       -6.923763   -1.042319    2.662117
     56          6           0       -8.152466    0.606004    1.151491
     57          6           0       -9.365803    0.449422    0.291199
     58          6           0      -10.527189   -0.104673    1.198575
     59          6           0      -11.656997    0.984495    1.340451
     60          6           0      -12.323133    0.967144    2.710893
     61          6           0      -12.708453    0.706267    0.168020
     62          6           0      -13.327154    2.092763   -0.277185
     63          6           0      -14.691930    1.778028   -0.903682
     64          6           0      -15.443747    3.045473   -1.292736
     65          6           0      -16.974284    2.912677   -1.217795
     66          6           0      -15.013038    3.523442   -2.700316
     67          1           0        0.867202    2.269616    0.564068
     68          1           0        6.498300    5.305818   -0.391932
     69          1           0        9.585873   -0.057794   -0.327107
     70          1           0        1.194634   -2.426513   -0.338597
     71          1           0        0.151959   -0.215356    1.125598
     72          1           0       -0.320811   -1.227224   -1.370815
     73          1           0        0.143935    0.361160   -1.819413
     74          1           0       -1.059555    0.168587   -0.607507
     75          1           0        0.702086   -1.946660    2.451216
     76          1           0        2.301965   -2.330900    2.245751
     77          1           0        0.579120   -4.280138    2.661304
     78          1           0        1.700957   -4.556213    1.338264
     79          1           0        1.142729    5.501832    1.435559
     80          1           0        0.440761    4.243563    0.524136
     81          1           0        0.952769    5.572597   -0.458548
     82          1           0        2.203723    7.665285   -0.410915
     83          1           0        3.354531    8.571116    0.486990
     84          1           0        2.565009    7.442954    1.422985
     85          1           0        8.940204    4.447242    0.294557
     86          1           0        9.861548    2.288961   -1.432554
     87          1           0        8.216247    4.880265   -2.424926
     88          1           0        9.924324    4.488412   -2.201376
     89          1           0        9.275349    5.721618   -1.300841
     90          1           0       11.025281    3.410597    0.461311
     91          1           0       11.395793    1.744483    0.279142
     92          1           0       10.781079    1.315662    2.326156
     93          1           0        9.130518    1.912822    2.210659
     94          1           0       10.656533    2.962917    2.542642
     95          1           0        9.720207   -2.958552   -1.121600
     96          1           0        8.941365   -4.318368   -0.459347
     97          1           0        9.595994   -3.154026    0.597670
     98          1           0        3.863319   -4.113002    1.117578
     99          1           0        2.217904   -7.515493   -1.034668
    100          1           0        3.125279   -6.822746   -2.476059
    101          1           0        1.472432   -6.308734   -1.938638
    102          1           0       -3.403836   -5.160089    1.271348
    103          1           0       -2.598608   -5.468330   -0.132300
    104          1           0       -2.827539   -2.496300    0.303794
    105          1           0       -5.310091   -5.232426   -0.441575
    106          1           0       -4.522202   -5.313636   -1.989620
    107          1           0       -6.023238   -4.369035   -1.789372
    108          1           0       -4.726973   -2.019046   -2.579825
    109          1           0       -4.062262   -1.294027   -1.183538
    110          1           0       -6.696131   -2.531412   -0.861581
    111          1           0       -6.502472   -1.164692   -1.926504
    112          1           0       -6.082152    0.424817   -0.179596
    113          1           0       -5.167201   -0.814009    0.684104
    114          1           0       -7.975423   -1.506103    0.856895
    115          1           0       -6.069022   -0.395947    2.864163
    116          1           0       -6.489295   -2.040301    2.615068
    117          1           0       -7.643542   -0.986675    3.479094
    118          1           0       -7.584093    1.422829    0.707020
    119          1           0       -8.319146    0.981141    2.160903
    120          1           0       -9.176594   -0.351064   -0.424723
    121          1           0       -9.654449    1.346838   -0.256597
    122          1           0      -10.211822   -0.302618    2.222653
    123          1           0      -10.901779   -1.031739    0.764602
    124          1           0      -11.203433    1.953129    1.128442
    125          1           0      -13.396743    1.012466    2.525333
    126          1           0      -12.004166    1.832877    3.291843
    127          1           0      -12.027229   -0.009253    3.095710
    128          1           0      -13.486976    0.040720    0.540977
    129          1           0      -12.101467    0.205839   -0.585762
    130          1           0      -12.641380    2.374614   -1.077113
    131          1           0      -13.316246    2.802561    0.549979
    132          1           0      -15.148720    1.210410   -0.093113
    133          1           0      -14.605618    1.042199   -1.703446
    134          1           0      -15.298440    3.777379   -0.498954
    135          1           0      -17.305483    3.668785   -0.506798
    136          1           0      -17.203333    1.924481   -0.820986
    137          1           0      -17.426578    3.007842   -2.205208
    138          1           0      -14.125869    3.001375   -3.061197
    139          1           0      -14.694843    4.559768   -2.588431
    140          1           0      -15.657502    3.380060   -3.567397
 ---------------------------------------------------------------------

 SCF Done:  E(RCAM-B3LYP) =  -3007.14885133     A.U. after   17 cycles

 Excitation energies and oscillator strengths:

 Excited State   1:      Singlet-A      1.6874 eV  734.77 nm  f=0.3525  <S**2>=0.000
     245 -> 248        0.19242
     246 -> 247        0.68267
     245 <- 248        0.11250
 This state for optimization and/or second-order correction.
 Total Energy, E(TD-HF/TD-DFT) =  -3007.08684068
 Copying the excited state density for this state as the 1-particle RhoCI density.

 Excited State   2:      Singlet-A      2.1613 eV  573.66 nm  f=0.1425  <S**2>=0.000
     245 -> 247        0.64853
     246 -> 248       -0.27176

 Excited State   3:      Singlet-A      3.3347 eV  371.80 nm  f=0.0008  <S**2>=0.000
     243 -> 247        0.49247
     244 -> 247       -0.48572

 Excited State   4:      Singlet-A      3.4409 eV  360.32 nm  f=0.0309  <S**2>=0.000
     240 -> 247       -0.11986
     243 -> 247        0.41097
     244 -> 247        0.45743
     246 -> 248        0.28488

 Excited State   5:      Singlet-A      3.4700 eV  357.30 nm  f=0.0311  <S**2>=0.000
     240 -> 247        0.13482
     240 -> 249       -0.10098
     241 -> 247        0.55083
     241 -> 249       -0.28509
     241 -> 250        0.10467
     241 -> 251        0.13978
     246 -> 248        0.13988

 The electronic state is 1-A.
 Alpha  occ. eigenvalues --  -46.88728 -19.25014 -19.23982 -19.20892 -19.18549
 Alpha  occ. eigenvalues --  -19.18357 -19.18220 -14.42625 -14.41334 -14.39082
 Alpha  occ. eigenvalues --  -14.39064 -10.40192 -10.37989 -10.34527 -10.34425
 Alpha  occ. eigenvalues --  -10.32613 -10.31317 -10.31019 -10.30964 -10.30233
 Alpha  occ. eigenvalues --  -10.30198 -10.30189 -10.29962 -10.29307 -10.28363
 Alpha  occ. eigenvalues --  -10.28266 -10.28265 -10.28189 -10.28158 -10.27730
 Alpha  occ. eigenvalues --  -10.27700 -10.27462 -10.27247 -10.26989 -10.26908
 Alpha  occ. eigenvalues --  -10.26865 -10.26818 -10.26510 -10.26506 -10.26501
 Alpha  occ. eigenvalues --  -10.26464 -10.26330 -10.25937 -10.25804 -10.25592
 Alpha  occ. eigenvalues --  -10.25575 -10.25521 -10.25518 -10.25307 -10.25287
 Alpha  occ. eigenvalues --  -10.25132 -10.25113 -10.25087 -10.25031 -10.25008
 Alpha  occ. eigenvalues --  -10.24852 -10.24745 -10.24658 -10.24610 -10.24506
 Alpha  occ. eigenvalues --  -10.24463 -10.24374 -10.24334 -10.24263 -10.24060
 Alpha  occ. eigenvalues --  -10.23819  -3.17265  -1.92142  -1.91749  -1.91545
 Alpha  occ. eigenvalues --   -1.16744  -1.15513  -1.11721  -1.08588  -1.08313
 Alpha  occ. eigenvalues --   -1.06619  -1.04614  -1.03139  -1.02652  -1.01894
 Alpha  occ. eigenvalues --   -0.91862  -0.90854  -0.90264  -0.89897  -0.89412
 Alpha  occ. eigenvalues --   -0.88990  -0.88227  -0.87274  -0.86941  -0.86708
 Alpha  occ. eigenvalues --   -0.85752  -0.85010  -0.84431  -0.83328  -0.82824
 Alpha  occ. eigenvalues --   -0.82261  -0.81674  -0.81185  -0.80559  -0.80072
 Alpha  occ. eigenvalues --   -0.79709  -0.77946  -0.77790  -0.77169  -0.76202
 Alpha  occ. eigenvalues --   -0.75609  -0.75405  -0.74838  -0.74761  -0.73750
 Alpha  occ. eigenvalues --   -0.73176  -0.72211  -0.71274  -0.70455  -0.69659
 Alpha  occ. eigenvalues --   -0.68057  -0.67669  -0.66835  -0.66122  -0.65457
 Alpha  occ. eigenvalues --   -0.64960  -0.64575  -0.64358  -0.64317  -0.63747
 Alpha  occ. eigenvalues --   -0.63622  -0.63457  -0.61972  -0.61011  -0.60607
 Alpha  occ. eigenvalues --   -0.59806  -0.59666  -0.58780  -0.58084  -0.57717
 Alpha  occ. eigenvalues --   -0.57248  -0.56643  -0.56148  -0.55781  -0.55594
 Alpha  occ. eigenvalues --   -0.55178  -0.54953  -0.54727  -0.54675  -0.54450
 Alpha  occ. eigenvalues --   -0.53936  -0.53680  -0.52980  -0.52646  -0.52468
 Alpha  occ. eigenvalues --   -0.52421  -0.52322  -0.51819  -0.51674  -0.51570
 Alpha  occ. eigenvalues --   -0.51462  -0.51156  -0.50986  -0.50679  -0.50474
 Alpha  occ. eigenvalues --   -0.50284  -0.50181  -0.49959  -0.49502  -0.49390
 Alpha  occ. eigenvalues --   -0.49106  -0.48812  -0.48795  -0.48620  -0.48484
 Alpha  occ. eigenvalues --   -0.48445  -0.48104  -0.47870  -0.47741  -0.47447
 Alpha  occ. eigenvalues --   -0.47173  -0.47071  -0.46924  -0.46644  -0.46438
 Alpha  occ. eigenvalues --   -0.46219  -0.46210  -0.46010  -0.45775  -0.45631
 Alpha  occ. eigenvalues --   -0.45272  -0.45122  -0.45060  -0.44891  -0.44712
 Alpha  occ. eigenvalues --   -0.44544  -0.44407  -0.44245  -0.44071  -0.43806
 Alpha  occ. eigenvalues --   -0.43501  -0.43212  -0.43112  -0.43052  -0.42905
 Alpha  occ. eigenvalues --   -0.42618  -0.42478  -0.42478  -0.41832  -0.41791
 Alpha  occ. eigenvalues --   -0.41419  -0.41336  -0.41310  -0.41165  -0.40972
 Alpha  occ. eigenvalues --   -0.40755  -0.40511  -0.40317  -0.40175  -0.39620
 Alpha  occ. eigenvalues --   -0.39529  -0.39324  -0.39198  -0.39126  -0.38649
 Alpha  occ. eigenvalues --   -0.38570  -0.38473  -0.38333  -0.37728  -0.37438
 Alpha  occ. eigenvalues --   -0.37123  -0.36743  -0.36584  -0.36165  -0.36007
 Alpha  occ. eigenvalues --   -0.35915  -0.35473  -0.35276  -0.34779  -0.34384
 Alpha  occ. eigenvalues --   -0.33098  -0.32746  -0.32379  -0.30626  -0.30452
 Alpha  occ. eigenvalues --   -0.30090  -0.29966  -0.29495  -0.29138  -0.23265
 Alpha  occ. eigenvalues --   -0.20917
 Alpha virt. eigenvalues --   -0.08379  -0.01362   0.00912   0.01639   0.02864
 Alpha virt. eigenvalues --    0.04260   0.05372   0.05560   0.06375   0.07403
 Alpha virt. eigenvalues --    0.08202   0.08293   0.08675   0.09193   0.09288

 Mulliken charges:
               1
     1  Mg   0.831496
     2  C   -0.003907
     3  C   -0.123443
     4  C   -0.076513
     5  C   -0.055320
     6  N   -0.247174
     7  C   -0.041408
     8  C   -0.048901
     9  C   -0.075534
    10  C    0.069600
    11  C    0.047813
    12  C    0.081197
    13  C    0.105221
    14  C    0.141371
    15  O   -0.192646
    16  O   -0.353768
    17  N   -0.404559
    18  C    0.192064
    19  C   -0.189056
    20  C   -0.035020
    21  C    0.127559
    22  C    0.161466
    23  C   -0.016717
    24  O   -0.167655
    25  C    0.066544
    26  N   -0.292630
    27  C    0.057776
    28  C   -0.069783
    29  C    0.047695
    30  C   -0.010641
    31  C    0.060449
    32  C    0.001650
    33  C    0.018592
    34  N   -0.346150
    35  C    0.134834
    36  C   -0.131930
    37  C   -0.002825
    38  C    0.060617
    39  C    0.100192
    40  C    0.048514
    41  O   -0.164973
    42  C   -0.019257
    43  C    0.183140
    44  O   -0.203621
    45  O   -0.324764
    46  C    0.174004
    47  C    0.273204
    48  C   -0.132896
    49  C   -0.122838
    50  C    0.078065
    51  C    0.041833
    52  C   -0.005595
    53  C    0.097822
    54  C   -0.138158
    55  C    0.024382
    56  C    0.076776
    57  C    0.017906
    58  C    0.036132
    59  C   -0.192162
    60  C    0.097731
    61  C    0.025216
    62  C    0.011997
    63  C    0.020274
    64  C   -0.118126
    65  C    0.065635
    66  C    0.045159
    67  H   -0.009135
    68  H   -0.008930
    69  H   -0.030265
    70  H    0.045480
    71  H    0.010406
    72  H    0.027547
    73  H    0.026213
    74  H    0.003352
    75  H   -0.001363
    76  H    0.010142
    77  H    0.028280
    78  H    0.025537
    79  H    0.031954
    80  H   -0.012222
    81  H    0.034253
    82  H    0.038228
    83  H    0.008106
    84  H    0.024740
    85  H    0.018709
    86  H    0.006029
    87  H    0.032646
    88  H   -0.001046
    89  H    0.005700
    90  H    0.001367
    91  H    0.006224
    92  H    0.001205
    93  H    0.040463
    94  H    0.007682
    95  H    0.016871
    96  H    0.028995
    97  H    0.016965
    98  H    0.041802
    99  H    0.030175
   100  H    0.048195
   101  H    0.057556
   102  H    0.022266
   103  H    0.026622
   104  H    0.004023
   105  H    0.014806
   106  H    0.034931
   107  H    0.024254
   108  H   -0.001395
   109  H   -0.013419
   110  H   -0.008312
   111  H   -0.003694
   112  H   -0.002147
   113  H   -0.004974
   114  H    0.001223
   115  H   -0.000197
   116  H    0.001101
   117  H    0.023228
   118  H   -0.025142
   119  H   -0.012039
   120  H   -0.004096
   121  H    0.002273
   122  H   -0.008859
   123  H   -0.004247
   124  H   -0.008823
   125  H   -0.000425
   126  H    0.013973
   127  H    0.007759
   128  H   -0.007996
   129  H   -0.003430
   130  H   -0.003506
   131  H    0.011210
   132  H   -0.017064
   133  H   -0.003571
   134  H   -0.009745
   135  H    0.007330
   136  H   -0.003250
   137  H    0.005156
   138  H   -0.005633
   139  H    0.011005
   140  H    0.012992
 Sum of Mulliken charges =  -0.00000

 Dipole moment (field-independent basis, Debye):
    X=             -3.5006    Y=              1.2195    Z=              3.1616  Tot=              4.8720
 Quadrupole moment (field-independent basis, Debye-Ang):
   XX=           -385.7741   YY=           -416.1560   ZZ=           -404.9253
   XY=             23.9554   XZ=             14.1579   YZ=              3.0447

 Normal termination of Gaussian 16 at Wed Apr 27 00:00:11 2022.
