 Gaussian 16, Revision A.03,
 Gaussian 16:  ES64L-G16RevA.03 25-Dec-2016

 ---------------------------------
 #p PBE1PBE/Def2SVP td=(nstates=5)
 ---------------------------------

 -----------------------------------------------------
 step_101_chromophore_18 TDDFT with PBE1PBE functional
 -----------------------------------------------------
 Symbolic Z-matrix:
 Charge =  0 Multiplicity = 1

                         Standard orientation:
 ---------------------------------------------------------------------
 Center     Atomic      Atomic             Coordinates (Angstroms)
 Number     Number       Type             X           Y           Z
 ---------------------------------------------------------------------
      1         12           0        5.265899    1.144781    0.255167
      2          6           0        4.121203   -2.308315    0.185968
      3          6           0        1.870071    2.009276    0.217958
      4          6           0        6.164555    4.266121   -0.396077
      5          6           0        8.507003    0.101334   -0.261211
      6          7           0        3.257952   -0.000195    0.184183
      7          6           0        3.002353   -1.359553    0.221849
      8          6           0        1.533766   -1.751449    0.446891
      9          6           0        0.802234   -0.378540    0.265616
     10          6           0        2.030643    0.609260    0.090137
     11          6           0       -0.110215   -0.244118   -0.949319
     12          6           0        1.336590   -2.528529    1.781696
     13          6           0        0.866854   -3.936514    1.667553
     14          6           0       -0.254767   -4.261950    0.677624
     15          8           0       -0.188516   -4.488173   -0.500840
     16          8           0       -1.479241   -4.207281    1.327333
     17          7           0        4.191003    2.894739    0.201362
     18          6           0        2.817948    3.032860    0.228634
     19          6           0        2.548831    4.429962    0.273127
     20          6           0        3.762035    5.127237    0.068580
     21          6           0        4.760834    4.091302   -0.135110
     22          6           0        1.193503    5.028921    0.454874
     23          6           0        4.019274    6.642404    0.070637
     24          8           0        5.049821    7.174153   -0.202486
     25          6           0        2.923680    7.573711    0.401877
     26          7           0        7.020988    2.032527   -0.454046
     27          6           0        7.193012    3.356485   -0.544133
     28          6           0        8.674091    3.799057   -0.540244
     29          6           0        9.392380    2.444695   -0.461080
     30          6           0        8.243926    1.476425   -0.312488
     31          6           0        9.000112    4.737931   -1.680107
     32          6           0       10.578609    2.418837    0.533754
     33          6           0       10.171131    2.156277    1.994939
     34          7           0        6.153683   -0.729068   -0.076218
     35          6           0        7.514645   -0.966376   -0.242403
     36          6           0        7.751375   -2.443353   -0.215166
     37          6           0        6.421374   -2.954763   -0.083570
     38          6           0        5.522599   -1.910372    0.062304
     39          6           0        9.027807   -3.238939   -0.328597
     40          6           0        5.691639   -4.200842   -0.015099
     41          8           0        6.090714   -5.364754   -0.030848
     42          6           0        4.165811   -3.802210    0.117644
     43          6           0        3.270774   -4.467983   -0.863224
     44          8           0        2.718250   -3.905432   -1.781192
     45          8           0        3.307288   -5.802598   -0.700119
     46          6           0        2.465121   -6.636119   -1.629105
     47          6           0       -2.696642   -4.668738    0.602043
     48          6           0       -3.343238   -3.406388   -0.001109
     49          6           0       -4.278798   -3.452223   -0.952883
     50          6           0       -5.074338   -4.645172   -1.328921
     51          6           0       -4.732283   -2.097053   -1.492894
     52          6           0       -6.141883   -1.602012   -0.994822
     53          6           0       -6.113958   -0.601569    0.186774
     54          6           0       -7.341601   -0.674065    1.162250
     55          6           0       -6.923763   -1.042319    2.662117
     56          6           0       -8.152466    0.606004    1.151491
     57          6           0       -9.365803    0.449422    0.291199
     58          6           0      -10.527189   -0.104673    1.198575
     59          6           0      -11.656997    0.984495    1.340451
     60          6           0      -12.323133    0.967144    2.710893
     61          6           0      -12.708453    0.706267    0.168020
     62          6           0      -13.327154    2.092763   -0.277185
     63          6           0      -14.691930    1.778028   -0.903682
     64          6           0      -15.443747    3.045473   -1.292736
     65          6           0      -16.974284    2.912677   -1.217795
     66          6           0      -15.013038    3.523442   -2.700316
     67          1           0        0.867202    2.269616    0.564068
     68          1           0        6.498300    5.305818   -0.391932
     69          1           0        9.585873   -0.057794   -0.327107
     70          1           0        1.194634   -2.426513   -0.338597
     71          1           0        0.151959   -0.215356    1.125598
     72          1           0       -0.320811   -1.227224   -1.370815
     73          1           0        0.143935    0.361160   -1.819413
     74          1           0       -1.059555    0.168587   -0.607507
     75          1           0        0.702086   -1.946660    2.451216
     76          1           0        2.301965   -2.330900    2.245751
     77          1           0        0.579120   -4.280138    2.661304
     78          1           0        1.700957   -4.556213    1.338264
     79          1           0        1.142729    5.501832    1.435559
     80          1           0        0.440761    4.243563    0.524136
     81          1           0        0.952769    5.572597   -0.458548
     82          1           0        2.203723    7.665285   -0.410915
     83          1           0        3.354531    8.571116    0.486990
     84          1           0        2.565009    7.442954    1.422985
     85          1           0        8.940204    4.447242    0.294557
     86          1           0        9.861548    2.288961   -1.432554
     87          1           0        8.216247    4.880265   -2.424926
     88          1           0        9.924324    4.488412   -2.201376
     89          1           0        9.275349    5.721618   -1.300841
     90          1           0       11.025281    3.410597    0.461311
     91          1           0       11.395793    1.744483    0.279142
     92          1           0       10.781079    1.315662    2.326156
     93          1           0        9.130518    1.912822    2.210659
     94          1           0       10.656533    2.962917    2.542642
     95          1           0        9.720207   -2.958552   -1.121600
     96          1           0        8.941365   -4.318368   -0.459347
     97          1           0        9.595994   -3.154026    0.597670
     98          1           0        3.863319   -4.113002    1.117578
     99          1           0        2.217904   -7.515493   -1.034668
    100          1           0        3.125279   -6.822746   -2.476059
    101          1           0        1.472432   -6.308734   -1.938638
    102          1           0       -3.403836   -5.160089    1.271348
    103          1           0       -2.598608   -5.468330   -0.132300
    104          1           0       -2.827539   -2.496300    0.303794
    105          1           0       -5.310091   -5.232426   -0.441575
    106          1           0       -4.522202   -5.313636   -1.989620
    107          1           0       -6.023238   -4.369035   -1.789372
    108          1           0       -4.726973   -2.019046   -2.579825
    109          1           0       -4.062262   -1.294027   -1.183538
    110          1           0       -6.696131   -2.531412   -0.861581
    111          1           0       -6.502472   -1.164692   -1.926504
    112          1           0       -6.082152    0.424817   -0.179596
    113          1           0       -5.167201   -0.814009    0.684104
    114          1           0       -7.975423   -1.506103    0.856895
    115          1           0       -6.069022   -0.395947    2.864163
    116          1           0       -6.489295   -2.040301    2.615068
    117          1           0       -7.643542   -0.986675    3.479094
    118          1           0       -7.584093    1.422829    0.707020
    119          1           0       -8.319146    0.981141    2.160903
    120          1           0       -9.176594   -0.351064   -0.424723
    121          1           0       -9.654449    1.346838   -0.256597
    122          1           0      -10.211822   -0.302618    2.222653
    123          1           0      -10.901779   -1.031739    0.764602
    124          1           0      -11.203433    1.953129    1.128442
    125          1           0      -13.396743    1.012466    2.525333
    126          1           0      -12.004166    1.832877    3.291843
    127          1           0      -12.027229   -0.009253    3.095710
    128          1           0      -13.486976    0.040720    0.540977
    129          1           0      -12.101467    0.205839   -0.585762
    130          1           0      -12.641380    2.374614   -1.077113
    131          1           0      -13.316246    2.802561    0.549979
    132          1           0      -15.148720    1.210410   -0.093113
    133          1           0      -14.605618    1.042199   -1.703446
    134          1           0      -15.298440    3.777379   -0.498954
    135          1           0      -17.305483    3.668785   -0.506798
    136          1           0      -17.203333    1.924481   -0.820986
    137          1           0      -17.426578    3.007842   -2.205208
    138          1           0      -14.125869    3.001375   -3.061197
    139          1           0      -14.694843    4.559768   -2.588431
    140          1           0      -15.657502    3.380060   -3.567397
 ---------------------------------------------------------------------

 SCF Done:  E(RPBE1PBE) =  -3005.33807266     A.U. after   16 cycles

 Excitation energies and oscillator strengths:

 Excited State   1:      Singlet-A      1.8469 eV  671.32 nm  f=0.3380  <S**2>=0.000
     245 -> 248        0.18785
     246 -> 247        0.68934
     246 <- 247       -0.10235
 This state for optimization and/or second-order correction.
 Total Energy, E(TD-HF/TD-DFT) =  -3005.27020126
 Copying the excited state density for this state as the 1-particle RhoCI density.

 Excited State   2:      Singlet-A      2.1735 eV  570.43 nm  f=0.1334  <S**2>=0.000
     245 -> 247        0.65732
     246 -> 248       -0.25324

 Excited State   3:      Singlet-A      2.9674 eV  417.82 nm  f=0.0010  <S**2>=0.000
     242 -> 247        0.55322
     242 -> 249       -0.15001
     243 -> 247        0.35415
     244 -> 247       -0.13887

 Excited State   4:      Singlet-A      2.9993 eV  413.38 nm  f=0.0012  <S**2>=0.000
     243 -> 247        0.26537
     244 -> 247        0.64717

 Excited State   5:      Singlet-A      3.0899 eV  401.26 nm  f=0.0013  <S**2>=0.000
     240 -> 247        0.16530
     242 -> 247       -0.38903
     243 -> 247        0.49688
     244 -> 247       -0.21109
     246 -> 248       -0.11059

 The electronic state is 1-A.
 Alpha  occ. eigenvalues --  -46.92150 -19.25718 -19.24622 -19.21097 -19.18667
 Alpha  occ. eigenvalues --  -19.18649 -19.18431 -14.42017 -14.40921 -14.38800
 Alpha  occ. eigenvalues --  -14.38704 -10.37206 -10.34954 -10.31729 -10.31444
 Alpha  occ. eigenvalues --  -10.30031 -10.29174 -10.28694 -10.28194 -10.28131
 Alpha  occ. eigenvalues --  -10.27821 -10.27770 -10.27723 -10.26859 -10.26145
 Alpha  occ. eigenvalues --  -10.26085 -10.26063 -10.25952 -10.25725 -10.25347
 Alpha  occ. eigenvalues --  -10.25173 -10.25085 -10.25070 -10.24788 -10.24730
 Alpha  occ. eigenvalues --  -10.24449 -10.24385 -10.24255 -10.24174 -10.23942
 Alpha  occ. eigenvalues --  -10.23883 -10.23807 -10.23650 -10.23352 -10.23161
 Alpha  occ. eigenvalues --  -10.23110 -10.23095 -10.23092 -10.23033 -10.22933
 Alpha  occ. eigenvalues --  -10.22752 -10.22596 -10.22572 -10.22547 -10.22390
 Alpha  occ. eigenvalues --  -10.22335 -10.22259 -10.22218 -10.22156 -10.22150
 Alpha  occ. eigenvalues --  -10.22067 -10.21910 -10.21715 -10.21637 -10.21604
 Alpha  occ. eigenvalues --  -10.21191  -3.14266  -1.87083  -1.86669  -1.86468
 Alpha  occ. eigenvalues --   -1.11516  -1.10270  -1.06385  -1.03396  -1.03173
 Alpha  occ. eigenvalues --   -1.01434  -0.99280  -0.97713  -0.97334  -0.96558
 Alpha  occ. eigenvalues --   -0.86221  -0.84987  -0.84440  -0.84014  -0.83730
 Alpha  occ. eigenvalues --   -0.83082  -0.82499  -0.81378  -0.81223  -0.80905
 Alpha  occ. eigenvalues --   -0.79983  -0.79421  -0.78590  -0.77638  -0.77112
 Alpha  occ. eigenvalues --   -0.76447  -0.75859  -0.75323  -0.74844  -0.74277
 Alpha  occ. eigenvalues --   -0.73974  -0.72185  -0.72069  -0.71499  -0.70381
 Alpha  occ. eigenvalues --   -0.69922  -0.69477  -0.69217  -0.68893  -0.67959
 Alpha  occ. eigenvalues --   -0.67418  -0.66679  -0.65557  -0.64854  -0.64072
 Alpha  occ. eigenvalues --   -0.62558  -0.61905  -0.61223  -0.60372  -0.59663
 Alpha  occ. eigenvalues --   -0.59351  -0.59120  -0.58866  -0.58408  -0.58278
 Alpha  occ. eigenvalues --   -0.57995  -0.57761  -0.56162  -0.55622  -0.54977
 Alpha  occ. eigenvalues --   -0.54273  -0.54176  -0.53373  -0.52767  -0.52115
 Alpha  occ. eigenvalues --   -0.51804  -0.51157  -0.50651  -0.50331  -0.50093
 Alpha  occ. eigenvalues --   -0.49713  -0.49438  -0.49238  -0.49037  -0.48822
 Alpha  occ. eigenvalues --   -0.48424  -0.47913  -0.47561  -0.47228  -0.47018
 Alpha  occ. eigenvalues --   -0.46912  -0.46840  -0.46437  -0.46380  -0.46076
 Alpha  occ. eigenvalues --   -0.45971  -0.45651  -0.45481  -0.45207  -0.45030
 Alpha  occ. eigenvalues --   -0.44860  -0.44756  -0.44542  -0.44105  -0.43926
 Alpha  occ. eigenvalues --   -0.43721  -0.43500  -0.43359  -0.43211  -0.43080
 Alpha  occ. eigenvalues --   -0.43022  -0.42660  -0.42542  -0.42381  -0.42072
 Alpha  occ. eigenvalues --   -0.41844  -0.41683  -0.41471  -0.41316  -0.41176
 Alpha  occ. eigenvalues --   -0.40887  -0.40761  -0.40651  -0.40521  -0.40295
 Alpha  occ. eigenvalues --   -0.39941  -0.39906  -0.39811  -0.39540  -0.39483
 Alpha  occ. eigenvalues --   -0.39291  -0.39162  -0.38952  -0.38853  -0.38469
 Alpha  occ. eigenvalues --   -0.38329  -0.38044  -0.37909  -0.37889  -0.37629
 Alpha  occ. eigenvalues --   -0.37382  -0.37313  -0.37278  -0.36579  -0.36525
 Alpha  occ. eigenvalues --   -0.36209  -0.36170  -0.36078  -0.36034  -0.35856
 Alpha  occ. eigenvalues --   -0.35563  -0.35431  -0.35111  -0.34999  -0.34457
 Alpha  occ. eigenvalues --   -0.34304  -0.34155  -0.34069  -0.33919  -0.33482
 Alpha  occ. eigenvalues --   -0.33400  -0.33379  -0.33124  -0.32444  -0.32228
 Alpha  occ. eigenvalues --   -0.32136  -0.31673  -0.31589  -0.30994  -0.30922
 Alpha  occ. eigenvalues --   -0.30891  -0.30501  -0.30199  -0.29653  -0.29548
 Alpha  occ. eigenvalues --   -0.28176  -0.27750  -0.27684  -0.26132  -0.25367
 Alpha  occ. eigenvalues --   -0.25252  -0.25101  -0.24937  -0.24843  -0.20245
 Alpha  occ. eigenvalues --   -0.18504
 Alpha virt. eigenvalues --   -0.10821  -0.04848  -0.03321  -0.01766  -0.00931
 Alpha virt. eigenvalues --   -0.00336   0.00998   0.01124   0.01850   0.03565
 Alpha virt. eigenvalues --    0.04073   0.04988   0.05194   0.05721   0.05985

 Mulliken charges:
               1
     1  Mg   0.976945
     2  C   -0.008877
     3  C   -0.107340
     4  C   -0.064269
     5  C   -0.042025
     6  N   -0.345977
     7  C    0.023409
     8  C   -0.105918
     9  C   -0.155488
    10  C    0.105576
    11  C   -0.001589
    12  C    0.031883
    13  C    0.016754
    14  C    0.210991
    15  O   -0.226848
    16  O   -0.384221
    17  N   -0.515874
    18  C    0.206037
    19  C   -0.221785
    20  C   -0.083147
    21  C    0.156864
    22  C    0.098907
    23  C    0.039352
    24  O   -0.206980
    25  C   -0.009210
    26  N   -0.401066
    27  C    0.086136
    28  C   -0.141806
    29  C   -0.024563
    30  C    0.019445
    31  C    0.006922
    32  C   -0.062539
    33  C   -0.054017
    34  N   -0.471105
    35  C    0.155438
    36  C   -0.146933
    37  C   -0.055228
    38  C    0.113309
    39  C    0.049091
    40  C    0.141187
    41  O   -0.210562
    42  C   -0.125146
    43  C    0.266594
    44  O   -0.239180
    45  O   -0.357052
    46  C    0.118663
    47  C    0.233158
    48  C   -0.143201
    49  C   -0.165876
    50  C    0.011578
    51  C   -0.021128
    52  C   -0.066392
    53  C    0.044753
    54  C   -0.223228
    55  C   -0.038697
    56  C    0.022436
    57  C   -0.050492
    58  C   -0.017767
    59  C   -0.270341
    60  C    0.033857
    61  C   -0.026936
    62  C   -0.049932
    63  C   -0.041099
    64  C   -0.213480
    65  C    0.007730
    66  C   -0.012256
    67  H    0.021136
    68  H    0.023552
    69  H    0.002813
    70  H    0.087431
    71  H    0.045142
    72  H    0.054357
    73  H    0.052888
    74  H    0.030153
    75  H    0.031042
    76  H    0.044369
    77  H    0.060534
    78  H    0.064064
    79  H    0.059177
    80  H    0.016596
    81  H    0.061681
    82  H    0.064559
    83  H    0.036490
    84  H    0.051289
    85  H    0.055386
    86  H    0.045169
    87  H    0.059696
    88  H    0.026410
    89  H    0.032814
    90  H    0.035252
    91  H    0.037032
    92  H    0.029825
    93  H    0.068886
    94  H    0.036148
    95  H    0.044307
    96  H    0.056205
    97  H    0.045734
    98  H    0.080525
    99  H    0.051634
   100  H    0.070128
   101  H    0.078804
   102  H    0.048905
   103  H    0.052428
   104  H    0.033323
   105  H    0.042563
   106  H    0.062547
   107  H    0.049891
   108  H    0.032026
   109  H    0.019851
   110  H    0.025043
   111  H    0.029131
   112  H    0.029699
   113  H    0.027636
   114  H    0.039160
   115  H    0.028754
   116  H    0.030598
   117  H    0.049490
   118  H    0.008414
   119  H    0.020490
   120  H    0.030673
   121  H    0.033090
   122  H    0.023946
   123  H    0.027874
   124  H    0.028978
   125  H    0.028311
   126  H    0.041654
   127  H    0.035422
   128  H    0.023816
   129  H    0.030227
   130  H    0.031355
   131  H    0.041843
   132  H    0.016953
   133  H    0.029299
   134  H    0.027855
   135  H    0.034337
   136  H    0.024419
   137  H    0.032126
   138  H    0.021648
   139  H    0.038776
   140  H    0.038775
 Sum of Mulliken charges =  -0.00000

 Dipole moment (field-independent basis, Debye):
    X=             -3.1895    Y=              1.0444    Z=              3.1821  Tot=              4.6249
 Quadrupole moment (field-independent basis, Debye-Ang):
   XX=           -377.6821   YY=           -413.7315   ZZ=           -402.5395
   XY=             24.1177   XZ=             14.1050   YZ=              3.0324

 Normal termination of Gaussian 16 at Wed Apr 27 00:18:35 2022.
