 Gaussian 16, Revision A.03,
 Gaussian 16:  ES64L-G16RevA.03 25-Dec-2016

 --------------------------------
 #p wB97XD/Def2SVP td=(nstates=5)
 --------------------------------

 ----------------------------------------------------
 step_101_chromophore_18 TDDFT with wB97XD functional
 ----------------------------------------------------
 Symbolic Z-matrix:
 Charge =  0 Multiplicity = 1

                         Standard orientation:
 ---------------------------------------------------------------------
 Center     Atomic      Atomic             Coordinates (Angstroms)
 Number     Number       Type             X           Y           Z
 ---------------------------------------------------------------------
      1         12           0        5.265899    1.144781    0.255167
      2          6           0        4.121203   -2.308315    0.185968
      3          6           0        1.870071    2.009276    0.217958
      4          6           0        6.164555    4.266121   -0.396077
      5          6           0        8.507003    0.101334   -0.261211
      6          7           0        3.257952   -0.000195    0.184183
      7          6           0        3.002353   -1.359553    0.221849
      8          6           0        1.533766   -1.751449    0.446891
      9          6           0        0.802234   -0.378540    0.265616
     10          6           0        2.030643    0.609260    0.090137
     11          6           0       -0.110215   -0.244118   -0.949319
     12          6           0        1.336590   -2.528529    1.781696
     13          6           0        0.866854   -3.936514    1.667553
     14          6           0       -0.254767   -4.261950    0.677624
     15          8           0       -0.188516   -4.488173   -0.500840
     16          8           0       -1.479241   -4.207281    1.327333
     17          7           0        4.191003    2.894739    0.201362
     18          6           0        2.817948    3.032860    0.228634
     19          6           0        2.548831    4.429962    0.273127
     20          6           0        3.762035    5.127237    0.068580
     21          6           0        4.760834    4.091302   -0.135110
     22          6           0        1.193503    5.028921    0.454874
     23          6           0        4.019274    6.642404    0.070637
     24          8           0        5.049821    7.174153   -0.202486
     25          6           0        2.923680    7.573711    0.401877
     26          7           0        7.020988    2.032527   -0.454046
     27          6           0        7.193012    3.356485   -0.544133
     28          6           0        8.674091    3.799057   -0.540244
     29          6           0        9.392380    2.444695   -0.461080
     30          6           0        8.243926    1.476425   -0.312488
     31          6           0        9.000112    4.737931   -1.680107
     32          6           0       10.578609    2.418837    0.533754
     33          6           0       10.171131    2.156277    1.994939
     34          7           0        6.153683   -0.729068   -0.076218
     35          6           0        7.514645   -0.966376   -0.242403
     36          6           0        7.751375   -2.443353   -0.215166
     37          6           0        6.421374   -2.954763   -0.083570
     38          6           0        5.522599   -1.910372    0.062304
     39          6           0        9.027807   -3.238939   -0.328597
     40          6           0        5.691639   -4.200842   -0.015099
     41          8           0        6.090714   -5.364754   -0.030848
     42          6           0        4.165811   -3.802210    0.117644
     43          6           0        3.270774   -4.467983   -0.863224
     44          8           0        2.718250   -3.905432   -1.781192
     45          8           0        3.307288   -5.802598   -0.700119
     46          6           0        2.465121   -6.636119   -1.629105
     47          6           0       -2.696642   -4.668738    0.602043
     48          6           0       -3.343238   -3.406388   -0.001109
     49          6           0       -4.278798   -3.452223   -0.952883
     50          6           0       -5.074338   -4.645172   -1.328921
     51          6           0       -4.732283   -2.097053   -1.492894
     52          6           0       -6.141883   -1.602012   -0.994822
     53          6           0       -6.113958   -0.601569    0.186774
     54          6           0       -7.341601   -0.674065    1.162250
     55          6           0       -6.923763   -1.042319    2.662117
     56          6           0       -8.152466    0.606004    1.151491
     57          6           0       -9.365803    0.449422    0.291199
     58          6           0      -10.527189   -0.104673    1.198575
     59          6           0      -11.656997    0.984495    1.340451
     60          6           0      -12.323133    0.967144    2.710893
     61          6           0      -12.708453    0.706267    0.168020
     62          6           0      -13.327154    2.092763   -0.277185
     63          6           0      -14.691930    1.778028   -0.903682
     64          6           0      -15.443747    3.045473   -1.292736
     65          6           0      -16.974284    2.912677   -1.217795
     66          6           0      -15.013038    3.523442   -2.700316
     67          1           0        0.867202    2.269616    0.564068
     68          1           0        6.498300    5.305818   -0.391932
     69          1           0        9.585873   -0.057794   -0.327107
     70          1           0        1.194634   -2.426513   -0.338597
     71          1           0        0.151959   -0.215356    1.125598
     72          1           0       -0.320811   -1.227224   -1.370815
     73          1           0        0.143935    0.361160   -1.819413
     74          1           0       -1.059555    0.168587   -0.607507
     75          1           0        0.702086   -1.946660    2.451216
     76          1           0        2.301965   -2.330900    2.245751
     77          1           0        0.579120   -4.280138    2.661304
     78          1           0        1.700957   -4.556213    1.338264
     79          1           0        1.142729    5.501832    1.435559
     80          1           0        0.440761    4.243563    0.524136
     81          1           0        0.952769    5.572597   -0.458548
     82          1           0        2.203723    7.665285   -0.410915
     83          1           0        3.354531    8.571116    0.486990
     84          1           0        2.565009    7.442954    1.422985
     85          1           0        8.940204    4.447242    0.294557
     86          1           0        9.861548    2.288961   -1.432554
     87          1           0        8.216247    4.880265   -2.424926
     88          1           0        9.924324    4.488412   -2.201376
     89          1           0        9.275349    5.721618   -1.300841
     90          1           0       11.025281    3.410597    0.461311
     91          1           0       11.395793    1.744483    0.279142
     92          1           0       10.781079    1.315662    2.326156
     93          1           0        9.130518    1.912822    2.210659
     94          1           0       10.656533    2.962917    2.542642
     95          1           0        9.720207   -2.958552   -1.121600
     96          1           0        8.941365   -4.318368   -0.459347
     97          1           0        9.595994   -3.154026    0.597670
     98          1           0        3.863319   -4.113002    1.117578
     99          1           0        2.217904   -7.515493   -1.034668
    100          1           0        3.125279   -6.822746   -2.476059
    101          1           0        1.472432   -6.308734   -1.938638
    102          1           0       -3.403836   -5.160089    1.271348
    103          1           0       -2.598608   -5.468330   -0.132300
    104          1           0       -2.827539   -2.496300    0.303794
    105          1           0       -5.310091   -5.232426   -0.441575
    106          1           0       -4.522202   -5.313636   -1.989620
    107          1           0       -6.023238   -4.369035   -1.789372
    108          1           0       -4.726973   -2.019046   -2.579825
    109          1           0       -4.062262   -1.294027   -1.183538
    110          1           0       -6.696131   -2.531412   -0.861581
    111          1           0       -6.502472   -1.164692   -1.926504
    112          1           0       -6.082152    0.424817   -0.179596
    113          1           0       -5.167201   -0.814009    0.684104
    114          1           0       -7.975423   -1.506103    0.856895
    115          1           0       -6.069022   -0.395947    2.864163
    116          1           0       -6.489295   -2.040301    2.615068
    117          1           0       -7.643542   -0.986675    3.479094
    118          1           0       -7.584093    1.422829    0.707020
    119          1           0       -8.319146    0.981141    2.160903
    120          1           0       -9.176594   -0.351064   -0.424723
    121          1           0       -9.654449    1.346838   -0.256597
    122          1           0      -10.211822   -0.302618    2.222653
    123          1           0      -10.901779   -1.031739    0.764602
    124          1           0      -11.203433    1.953129    1.128442
    125          1           0      -13.396743    1.012466    2.525333
    126          1           0      -12.004166    1.832877    3.291843
    127          1           0      -12.027229   -0.009253    3.095710
    128          1           0      -13.486976    0.040720    0.540977
    129          1           0      -12.101467    0.205839   -0.585762
    130          1           0      -12.641380    2.374614   -1.077113
    131          1           0      -13.316246    2.802561    0.549979
    132          1           0      -15.148720    1.210410   -0.093113
    133          1           0      -14.605618    1.042199   -1.703446
    134          1           0      -15.298440    3.777379   -0.498954
    135          1           0      -17.305483    3.668785   -0.506798
    136          1           0      -17.203333    1.924481   -0.820986
    137          1           0      -17.426578    3.007842   -2.205208
    138          1           0      -14.125869    3.001375   -3.061197
    139          1           0      -14.694843    4.559768   -2.588431
    140          1           0      -15.657502    3.380060   -3.567397
 ---------------------------------------------------------------------

 SCF Done:  E(RwB97XD) =  -3007.84837740     A.U. after   18 cycles

 Excitation energies and oscillator strengths:

 Excited State   1:      Singlet-A      1.6297 eV  760.77 nm  f=0.3515  <S**2>=0.000
     245 -> 248        0.19760
     246 -> 247        0.68069
     245 <- 248        0.12209
 This state for optimization and/or second-order correction.
 Total Energy, E(TD-HF/TD-DFT) =  -3007.78848594
 Copying the excited state density for this state as the 1-particle RhoCI density.

 Excited State   2:      Singlet-A      2.1058 eV  588.79 nm  f=0.1390  <S**2>=0.000
     245 -> 247        0.64649
     246 -> 248       -0.27378

 Excited State   3:      Singlet-A      3.3446 eV  370.70 nm  f=0.0014  <S**2>=0.000
     243 -> 247        0.52282
     244 -> 247       -0.43899

 Excited State   4:      Singlet-A      3.4623 eV  358.09 nm  f=0.0673  <S**2>=0.000
     239 -> 247        0.12458
     241 -> 247        0.10690
     243 -> 247        0.33269
     244 -> 247        0.47030
     246 -> 248        0.34155

 Excited State   5:      Singlet-A      3.5051 eV  353.73 nm  f=0.0230  <S**2>=0.000
     241 -> 247        0.53419
     241 -> 249       -0.32678
     241 -> 250        0.14310
     241 -> 251       -0.10347
     243 -> 247       -0.12047

 The electronic state is 1-A.
 Alpha  occ. eigenvalues --  -46.95078 -19.30262 -19.29182 -19.25776 -19.23556
 Alpha  occ. eigenvalues --  -19.23392 -19.23133 -14.47262 -14.45885 -14.43688
 Alpha  occ. eigenvalues --  -14.43639 -10.43985 -10.41805 -10.38530 -10.38374
 Alpha  occ. eigenvalues --  -10.36515 -10.35352 -10.35086 -10.34703 -10.34273
 Alpha  occ. eigenvalues --  -10.34261 -10.34227 -10.33933 -10.33364 -10.32530
 Alpha  occ. eigenvalues --  -10.32277 -10.32250 -10.32242 -10.32179 -10.31859
 Alpha  occ. eigenvalues --  -10.31759 -10.31426 -10.31320 -10.31016 -10.30987
 Alpha  occ. eigenvalues --  -10.30886 -10.30795 -10.30469 -10.30463 -10.30444
 Alpha  occ. eigenvalues --  -10.30425 -10.30337 -10.29938 -10.29740 -10.29549
 Alpha  occ. eigenvalues --  -10.29465 -10.29458 -10.29423 -10.29339 -10.29228
 Alpha  occ. eigenvalues --  -10.29014 -10.28960 -10.28946 -10.28942 -10.28884
 Alpha  occ. eigenvalues --  -10.28777 -10.28611 -10.28591 -10.28528 -10.28525
 Alpha  occ. eigenvalues --  -10.28411 -10.28295 -10.28149 -10.28076 -10.27977
 Alpha  occ. eigenvalues --  -10.27618  -3.21061  -1.94625  -1.94213  -1.94009
 Alpha  occ. eigenvalues --   -1.18886  -1.17662  -1.13934  -1.10808  -1.10509
 Alpha  occ. eigenvalues --   -1.08791  -1.06602  -1.05165  -1.04687  -1.03928
 Alpha  occ. eigenvalues --   -0.93822  -0.92662  -0.92091  -0.91684  -0.91252
 Alpha  occ. eigenvalues --   -0.90755  -0.90167  -0.89050  -0.88857  -0.88651
 Alpha  occ. eigenvalues --   -0.87653  -0.86929  -0.86260  -0.85190  -0.84747
 Alpha  occ. eigenvalues --   -0.84106  -0.83576  -0.83069  -0.82467  -0.81935
 Alpha  occ. eigenvalues --   -0.81623  -0.79876  -0.79721  -0.79060  -0.78057
 Alpha  occ. eigenvalues --   -0.77538  -0.77184  -0.76780  -0.76587  -0.75615
 Alpha  occ. eigenvalues --   -0.75058  -0.74185  -0.73184  -0.72409  -0.71577
 Alpha  occ. eigenvalues --   -0.70054  -0.69548  -0.68839  -0.68004  -0.67317
 Alpha  occ. eigenvalues --   -0.66914  -0.66534  -0.66328  -0.66117  -0.65724
 Alpha  occ. eigenvalues --   -0.65444  -0.65429  -0.63806  -0.62998  -0.62506
 Alpha  occ. eigenvalues --   -0.61790  -0.61627  -0.60765  -0.60083  -0.59619
 Alpha  occ. eigenvalues --   -0.59227  -0.58591  -0.58057  -0.57745  -0.57509
 Alpha  occ. eigenvalues --   -0.57102  -0.56874  -0.56635  -0.56554  -0.56308
 Alpha  occ. eigenvalues --   -0.55841  -0.55603  -0.54905  -0.54573  -0.54375
 Alpha  occ. eigenvalues --   -0.54337  -0.54211  -0.53689  -0.53622  -0.53475
 Alpha  occ. eigenvalues --   -0.53341  -0.53096  -0.52880  -0.52591  -0.52375
 Alpha  occ. eigenvalues --   -0.52201  -0.52071  -0.51874  -0.51417  -0.51316
 Alpha  occ. eigenvalues --   -0.51044  -0.50727  -0.50679  -0.50548  -0.50378
 Alpha  occ. eigenvalues --   -0.50332  -0.49967  -0.49769  -0.49656  -0.49385
 Alpha  occ. eigenvalues --   -0.49059  -0.48958  -0.48848  -0.48553  -0.48353
 Alpha  occ. eigenvalues --   -0.48113  -0.48047  -0.47903  -0.47694  -0.47522
 Alpha  occ. eigenvalues --   -0.47152  -0.47032  -0.46974  -0.46743  -0.46624
 Alpha  occ. eigenvalues --   -0.46442  -0.46318  -0.46126  -0.46003  -0.45650
 Alpha  occ. eigenvalues --   -0.45420  -0.45153  -0.45059  -0.44987  -0.44776
 Alpha  occ. eigenvalues --   -0.44616  -0.44422  -0.44393  -0.43742  -0.43665
 Alpha  occ. eigenvalues --   -0.43337  -0.43220  -0.43198  -0.43100  -0.42914
 Alpha  occ. eigenvalues --   -0.42671  -0.42404  -0.42182  -0.42056  -0.41451
 Alpha  occ. eigenvalues --   -0.41417  -0.41188  -0.41098  -0.40973  -0.40561
 Alpha  occ. eigenvalues --   -0.40423  -0.40388  -0.40190  -0.39557  -0.39280
 Alpha  occ. eigenvalues --   -0.39046  -0.38625  -0.38494  -0.38019  -0.37989
 Alpha  occ. eigenvalues --   -0.37879  -0.37548  -0.37122  -0.36676  -0.36366
 Alpha  occ. eigenvalues --   -0.35060  -0.34585  -0.34576  -0.32726  -0.32510
 Alpha  occ. eigenvalues --   -0.32065  -0.31987  -0.31671  -0.31292  -0.25171
 Alpha  occ. eigenvalues --   -0.22726
 Alpha virt. eigenvalues --   -0.06727   0.00561   0.02997   0.04540   0.05227
 Alpha virt. eigenvalues --    0.06532   0.07706   0.07835   0.08611   0.10213
 Alpha virt. eigenvalues --    0.10900   0.11429   0.11890   0.12515   0.12715

 Mulliken charges:
               1
     1  Mg   0.966721
     2  C   -0.010666
     3  C   -0.125354
     4  C   -0.085688
     5  C   -0.062030
     6  N   -0.311867
     7  C   -0.001547
     8  C   -0.083159
     9  C   -0.128064
    10  C    0.091521
    11  C    0.005243
    12  C    0.041182
    13  C    0.044422
    14  C    0.193689
    15  O   -0.220784
    16  O   -0.383055
    17  N   -0.487221
    18  C    0.202600
    19  C   -0.207011
    20  C   -0.079841
    21  C    0.152070
    22  C    0.111449
    23  C    0.036449
    24  O   -0.200834
    25  C   -0.000037
    26  N   -0.367093
    27  C    0.080626
    28  C   -0.119659
    29  C   -0.001098
    30  C    0.009199
    31  C    0.013375
    32  C   -0.045552
    33  C   -0.038957
    34  N   -0.433839
    35  C    0.146585
    36  C   -0.145794
    37  C   -0.048684
    38  C    0.093780
    39  C    0.057633
    40  C    0.123125
    41  O   -0.200512
    42  C   -0.088112
    43  C    0.242226
    44  O   -0.230952
    45  O   -0.354210
    46  C    0.133415
    47  C    0.247327
    48  C   -0.150662
    49  C   -0.152968
    50  C    0.023243
    51  C   -0.000042
    52  C   -0.050178
    53  C    0.060462
    54  C   -0.195132
    55  C   -0.022273
    56  C    0.036894
    57  C   -0.028138
    58  C   -0.001079
    59  C   -0.240914
    60  C    0.046574
    61  C   -0.011281
    62  C   -0.034419
    63  C   -0.020059
    64  C   -0.183894
    65  C    0.018986
    66  C   -0.002891
    67  H    0.014447
    68  H    0.017338
    69  H   -0.002807
    70  H    0.065013
    71  H    0.036135
    72  H    0.049284
    73  H    0.048008
    74  H    0.024236
    75  H    0.024192
    76  H    0.034926
    77  H    0.057089
    78  H    0.049485
    79  H    0.054669
    80  H    0.012432
    81  H    0.057005
    82  H    0.060669
    83  H    0.035119
    84  H    0.046662
    85  H    0.044970
    86  H    0.034190
    87  H    0.054426
    88  H    0.020924
    89  H    0.027757
    90  H    0.025546
    91  H    0.030879
    92  H    0.023881
    93  H    0.060877
    94  H    0.030603
    95  H    0.038849
    96  H    0.052761
    97  H    0.039471
    98  H    0.070198
    99  H    0.048073
   100  H    0.067019
   101  H    0.075345
   102  H    0.044263
   103  H    0.047535
   104  H    0.028293
   105  H    0.036426
   106  H    0.058103
   107  H    0.045404
   108  H    0.025770
   109  H    0.009419
   110  H    0.011901
   111  H    0.022104
   112  H    0.021595
   113  H    0.014527
   114  H    0.024046
   115  H    0.020541
   116  H    0.023470
   117  H    0.044873
   118  H   -0.000569
   119  H    0.011424
   120  H    0.018646
   121  H    0.025097
   122  H    0.010309
   123  H    0.019516
   124  H    0.013738
   125  H    0.020621
   126  H    0.037191
   127  H    0.028864
   128  H    0.012856
   129  H    0.020173
   130  H    0.020233
   131  H    0.033489
   132  H    0.003895
   133  H    0.021042
   134  H    0.017286
   135  H    0.029323
   136  H    0.018165
   137  H    0.025980
   138  H    0.014340
   139  H    0.033374
   140  H    0.033822
 Sum of Mulliken charges =  -0.00000

 Dipole moment (field-independent basis, Debye):
    X=             -3.5660    Y=              1.3239    Z=              3.2602  Tot=              5.0098
 Quadrupole moment (field-independent basis, Debye-Ang):
   XX=           -380.9407   YY=           -411.5223   ZZ=           -402.0982
   XY=             24.4724   XZ=             14.4961   YZ=              3.1907

 Normal termination of Gaussian 16 at Wed Apr 27 00:42:25 2022.
