 Gaussian 16, Revision A.03,
 Gaussian 16:  ES64L-G16RevA.03 25-Dec-2016

 --------------------
 #p ZINDO=(nstates=5)
 --------------------

 -----------------------------
 step_101_chromophore_18 ZINDO
 -----------------------------
 Symbolic Z-matrix:
 Charge =  0 Multiplicity = 1

                         Standard orientation:
 ---------------------------------------------------------------------
 Center     Atomic      Atomic             Coordinates (Angstroms)
 Number     Number       Type             X           Y           Z
 ---------------------------------------------------------------------
      1         12           0        5.265899    1.144781    0.255167
      2          6           0        4.121203   -2.308315    0.185968
      3          6           0        1.870071    2.009276    0.217958
      4          6           0        6.164555    4.266121   -0.396077
      5          6           0        8.507003    0.101334   -0.261211
      6          7           0        3.257952   -0.000195    0.184183
      7          6           0        3.002353   -1.359553    0.221849
      8          6           0        1.533766   -1.751449    0.446891
      9          6           0        0.802234   -0.378540    0.265616
     10          6           0        2.030643    0.609260    0.090137
     11          6           0       -0.110215   -0.244118   -0.949319
     12          6           0        1.336590   -2.528529    1.781696
     13          6           0        0.866854   -3.936514    1.667553
     14          6           0       -0.254767   -4.261950    0.677624
     15          8           0       -0.188516   -4.488173   -0.500840
     16          8           0       -1.479241   -4.207281    1.327333
     17          7           0        4.191003    2.894739    0.201362
     18          6           0        2.817948    3.032860    0.228634
     19          6           0        2.548831    4.429962    0.273127
     20          6           0        3.762035    5.127237    0.068580
     21          6           0        4.760834    4.091302   -0.135110
     22          6           0        1.193503    5.028921    0.454874
     23          6           0        4.019274    6.642404    0.070637
     24          8           0        5.049821    7.174153   -0.202486
     25          6           0        2.923680    7.573711    0.401877
     26          7           0        7.020988    2.032527   -0.454046
     27          6           0        7.193012    3.356485   -0.544133
     28          6           0        8.674091    3.799057   -0.540244
     29          6           0        9.392380    2.444695   -0.461080
     30          6           0        8.243926    1.476425   -0.312488
     31          6           0        9.000112    4.737931   -1.680107
     32          6           0       10.578609    2.418837    0.533754
     33          6           0       10.171131    2.156277    1.994939
     34          7           0        6.153683   -0.729068   -0.076218
     35          6           0        7.514645   -0.966376   -0.242403
     36          6           0        7.751375   -2.443353   -0.215166
     37          6           0        6.421374   -2.954763   -0.083570
     38          6           0        5.522599   -1.910372    0.062304
     39          6           0        9.027807   -3.238939   -0.328597
     40          6           0        5.691639   -4.200842   -0.015099
     41          8           0        6.090714   -5.364754   -0.030848
     42          6           0        4.165811   -3.802210    0.117644
     43          6           0        3.270774   -4.467983   -0.863224
     44          8           0        2.718250   -3.905432   -1.781192
     45          8           0        3.307288   -5.802598   -0.700119
     46          6           0        2.465121   -6.636119   -1.629105
     47          6           0       -2.696642   -4.668738    0.602043
     48          6           0       -3.343238   -3.406388   -0.001109
     49          6           0       -4.278798   -3.452223   -0.952883
     50          6           0       -5.074338   -4.645172   -1.328921
     51          6           0       -4.732283   -2.097053   -1.492894
     52          6           0       -6.141883   -1.602012   -0.994822
     53          6           0       -6.113958   -0.601569    0.186774
     54          6           0       -7.341601   -0.674065    1.162250
     55          6           0       -6.923763   -1.042319    2.662117
     56          6           0       -8.152466    0.606004    1.151491
     57          6           0       -9.365803    0.449422    0.291199
     58          6           0      -10.527189   -0.104673    1.198575
     59          6           0      -11.656997    0.984495    1.340451
     60          6           0      -12.323133    0.967144    2.710893
     61          6           0      -12.708453    0.706267    0.168020
     62          6           0      -13.327154    2.092763   -0.277185
     63          6           0      -14.691930    1.778028   -0.903682
     64          6           0      -15.443747    3.045473   -1.292736
     65          6           0      -16.974284    2.912677   -1.217795
     66          6           0      -15.013038    3.523442   -2.700316
     67          1           0        0.867202    2.269616    0.564068
     68          1           0        6.498300    5.305818   -0.391932
     69          1           0        9.585873   -0.057794   -0.327107
     70          1           0        1.194634   -2.426513   -0.338597
     71          1           0        0.151959   -0.215356    1.125598
     72          1           0       -0.320811   -1.227224   -1.370815
     73          1           0        0.143935    0.361160   -1.819413
     74          1           0       -1.059555    0.168587   -0.607507
     75          1           0        0.702086   -1.946660    2.451216
     76          1           0        2.301965   -2.330900    2.245751
     77          1           0        0.579120   -4.280138    2.661304
     78          1           0        1.700957   -4.556213    1.338264
     79          1           0        1.142729    5.501832    1.435559
     80          1           0        0.440761    4.243563    0.524136
     81          1           0        0.952769    5.572597   -0.458548
     82          1           0        2.203723    7.665285   -0.410915
     83          1           0        3.354531    8.571116    0.486990
     84          1           0        2.565009    7.442954    1.422985
     85          1           0        8.940204    4.447242    0.294557
     86          1           0        9.861548    2.288961   -1.432554
     87          1           0        8.216247    4.880265   -2.424926
     88          1           0        9.924324    4.488412   -2.201376
     89          1           0        9.275349    5.721618   -1.300841
     90          1           0       11.025281    3.410597    0.461311
     91          1           0       11.395793    1.744483    0.279142
     92          1           0       10.781079    1.315662    2.326156
     93          1           0        9.130518    1.912822    2.210659
     94          1           0       10.656533    2.962917    2.542642
     95          1           0        9.720207   -2.958552   -1.121600
     96          1           0        8.941365   -4.318368   -0.459347
     97          1           0        9.595994   -3.154026    0.597670
     98          1           0        3.863319   -4.113002    1.117578
     99          1           0        2.217904   -7.515493   -1.034668
    100          1           0        3.125279   -6.822746   -2.476059
    101          1           0        1.472432   -6.308734   -1.938638
    102          1           0       -3.403836   -5.160089    1.271348
    103          1           0       -2.598608   -5.468330   -0.132300
    104          1           0       -2.827539   -2.496300    0.303794
    105          1           0       -5.310091   -5.232426   -0.441575
    106          1           0       -4.522202   -5.313636   -1.989620
    107          1           0       -6.023238   -4.369035   -1.789372
    108          1           0       -4.726973   -2.019046   -2.579825
    109          1           0       -4.062262   -1.294027   -1.183538
    110          1           0       -6.696131   -2.531412   -0.861581
    111          1           0       -6.502472   -1.164692   -1.926504
    112          1           0       -6.082152    0.424817   -0.179596
    113          1           0       -5.167201   -0.814009    0.684104
    114          1           0       -7.975423   -1.506103    0.856895
    115          1           0       -6.069022   -0.395947    2.864163
    116          1           0       -6.489295   -2.040301    2.615068
    117          1           0       -7.643542   -0.986675    3.479094
    118          1           0       -7.584093    1.422829    0.707020
    119          1           0       -8.319146    0.981141    2.160903
    120          1           0       -9.176594   -0.351064   -0.424723
    121          1           0       -9.654449    1.346838   -0.256597
    122          1           0      -10.211822   -0.302618    2.222653
    123          1           0      -10.901779   -1.031739    0.764602
    124          1           0      -11.203433    1.953129    1.128442
    125          1           0      -13.396743    1.012466    2.525333
    126          1           0      -12.004166    1.832877    3.291843
    127          1           0      -12.027229   -0.009253    3.095710
    128          1           0      -13.486976    0.040720    0.540977
    129          1           0      -12.101467    0.205839   -0.585762
    130          1           0      -12.641380    2.374614   -1.077113
    131          1           0      -13.316246    2.802561    0.549979
    132          1           0      -15.148720    1.210410   -0.093113
    133          1           0      -14.605618    1.042199   -1.703446
    134          1           0      -15.298440    3.777379   -0.498954
    135          1           0      -17.305483    3.668785   -0.506798
    136          1           0      -17.203333    1.924481   -0.820986
    137          1           0      -17.426578    3.007842   -2.205208
    138          1           0      -14.125869    3.001375   -3.061197
    139          1           0      -14.694843    4.559768   -2.588431
    140          1           0      -15.657502    3.380060   -3.567397
 ---------------------------------------------------------------------

 SCF Done:  E(RZINDO/S) =  -474.354843993     A.U. after   20 cycles

 Excitation energies and oscillator strengths:

 Excited State   1:      Singlet-A      1.2306 eV 1007.53 nm  f=0.5389  <S**2>=0.000
     175 ->178         0.20451
     176 ->177         0.65891
 This state for optimization and/or second-order correction.
 Total Energy, E(CIS/TDA) =  -474.309621061
 Copying the excited state density for this state as the 1-particle RhoCI density.

 Excited State   2:      Singlet-A      1.8283 eV  678.13 nm  f=0.0688  <S**2>=0.000
     175 ->177         0.56542
     176 ->178        -0.39782

 Excited State   3:      Singlet-A      2.9582 eV  419.12 nm  f=0.4587  <S**2>=0.000
     168 ->177        -0.18802
     168 ->179         0.25846
     168 ->180         0.14715
     168 ->181        -0.18614
     168 ->186         0.18072
     171 ->177         0.16848
     175 ->177         0.23499
     176 ->178         0.35951

 Excited State   4:      Singlet-A      2.9786 eV  416.26 nm  f=0.5711  <S**2>=0.000
     168 ->177         0.17178
     168 ->179        -0.22695
     168 ->180        -0.13802
     168 ->181         0.16679
     168 ->186        -0.15437
     173 ->177        -0.13395
     175 ->177         0.25929
     176 ->178         0.38283
     176 ->179        -0.17387

 Excited State   5:      Singlet-A      3.0470 eV  406.91 nm  f=0.0328  <S**2>=0.000
     169 ->177         0.31573
     169 ->178        -0.13754
     169 ->179         0.34948
     169 ->180        -0.21865
     169 ->181         0.23888
     169 ->186         0.17199
     169 ->187        -0.14697

 The electronic state is 1-A.
 Alpha  occ. eigenvalues --   -1.83403  -1.81154  -1.79623  -1.72739  -1.71361
 Alpha  occ. eigenvalues --   -1.69490  -1.66573  -1.62408  -1.61234  -1.56577
 Alpha  occ. eigenvalues --   -1.56289  -1.51980  -1.49726  -1.48591  -1.47250
 Alpha  occ. eigenvalues --   -1.44085  -1.42772  -1.40609  -1.39557  -1.38141
 Alpha  occ. eigenvalues --   -1.36664  -1.33235  -1.32360  -1.30797  -1.28929
 Alpha  occ. eigenvalues --   -1.28169  -1.24287  -1.21690  -1.19996  -1.17148
 Alpha  occ. eigenvalues --   -1.16080  -1.15936  -1.15566  -1.14862  -1.13363
 Alpha  occ. eigenvalues --   -1.12976  -1.10823  -1.08932  -1.04551  -1.04023
 Alpha  occ. eigenvalues --   -1.03378  -1.00768  -0.99022  -0.98034  -0.96305
 Alpha  occ. eigenvalues --   -0.95801  -0.94482  -0.94188  -0.93173  -0.92327
 Alpha  occ. eigenvalues --   -0.90303  -0.89811  -0.88679  -0.87640  -0.86022
 Alpha  occ. eigenvalues --   -0.84886  -0.84385  -0.83392  -0.81697  -0.81024
 Alpha  occ. eigenvalues --   -0.80567  -0.77801  -0.77697  -0.76725  -0.76076
 Alpha  occ. eigenvalues --   -0.75809  -0.75102  -0.74492  -0.74266  -0.73465
 Alpha  occ. eigenvalues --   -0.72443  -0.72083  -0.71733  -0.71572  -0.70664
 Alpha  occ. eigenvalues --   -0.70249  -0.69260  -0.68852  -0.68321  -0.68157
 Alpha  occ. eigenvalues --   -0.67924  -0.67407  -0.66456  -0.66393  -0.65165
 Alpha  occ. eigenvalues --   -0.64555  -0.64387  -0.64073  -0.63962  -0.63692
 Alpha  occ. eigenvalues --   -0.62969  -0.62773  -0.62360  -0.62139  -0.61551
 Alpha  occ. eigenvalues --   -0.61184  -0.60887  -0.60709  -0.59880  -0.59817
 Alpha  occ. eigenvalues --   -0.59371  -0.59050  -0.58802  -0.58416  -0.58228
 Alpha  occ. eigenvalues --   -0.57760  -0.56916  -0.56664  -0.56137  -0.55789
 Alpha  occ. eigenvalues --   -0.55283  -0.55132  -0.54957  -0.54635  -0.54339
 Alpha  occ. eigenvalues --   -0.54131  -0.53893  -0.53307  -0.52951  -0.52626
 Alpha  occ. eigenvalues --   -0.52224  -0.52009  -0.51651  -0.51440  -0.51104
 Alpha  occ. eigenvalues --   -0.50366  -0.50116  -0.50002  -0.49707  -0.49217
 Alpha  occ. eigenvalues --   -0.49054  -0.48999  -0.48718  -0.48203  -0.48078
 Alpha  occ. eigenvalues --   -0.48031  -0.47997  -0.47896  -0.47794  -0.47330
 Alpha  occ. eigenvalues --   -0.47315  -0.47106  -0.46985  -0.46843  -0.46588
 Alpha  occ. eigenvalues --   -0.46184  -0.45988  -0.45870  -0.45627  -0.45498
 Alpha  occ. eigenvalues --   -0.45357  -0.44941  -0.44706  -0.44396  -0.44305
 Alpha  occ. eigenvalues --   -0.44272  -0.44132  -0.43105  -0.42637  -0.41961
 Alpha  occ. eigenvalues --   -0.41253  -0.40821  -0.40158  -0.38852  -0.37982
 Alpha  occ. eigenvalues --   -0.37608  -0.37306  -0.34984  -0.34540  -0.34047
 Alpha  occ. eigenvalues --   -0.32830  -0.32295  -0.32008  -0.31588  -0.25891
 Alpha  occ. eigenvalues --   -0.21723
 Alpha virt. eigenvalues --   -0.08375  -0.02058   0.00001   0.01407   0.01791
 Alpha virt. eigenvalues --    0.02258   0.02760   0.03344   0.04954   0.04976
 Alpha virt. eigenvalues --    0.06301   0.07340   0.07604   0.08020   0.08499

 Mulliken charges:
               1
     1  Mg   0.432347
     2  C   -0.047567
     3  C   -0.069948
     4  C   -0.080610
     5  C   -0.083213
     6  N   -0.269065
     7  C    0.111147
     8  C    0.000231
     9  C    0.008552
    10  C    0.128894
    11  C   -0.050894
    12  C   -0.017975
    13  C    0.019564
    14  C    0.473702
    15  O   -0.493622
    16  O   -0.289181
    17  N   -0.330789
    18  C    0.114416
    19  C    0.024506
    20  C   -0.058533
    21  C    0.150521
    22  C   -0.048107
    23  C    0.334276
    24  O   -0.506804
    25  C   -0.034555
    26  N   -0.263561
    27  C    0.155597
    28  C    0.006136
    29  C    0.007171
    30  C    0.118819
    31  C   -0.050189
    32  C   -0.027403
    33  C   -0.063671
    34  N   -0.313736
    35  C    0.082381
    36  C    0.014669
    37  C   -0.051359
    38  C    0.098856
    39  C   -0.033046
    40  C    0.331274
    41  O   -0.525049
    42  C    0.061082
    43  C    0.492578
    44  O   -0.519187
    45  O   -0.261191
    46  C    0.072478
    47  C    0.096480
    48  C   -0.083821
    49  C    0.002361
    50  C   -0.034203
    51  C   -0.032091
    52  C   -0.040956
    53  C   -0.027711
    54  C   -0.009893
    55  C   -0.068113
    56  C   -0.022432
    57  C   -0.034651
    58  C   -0.044785
    59  C   -0.031779
    60  C   -0.061525
    61  C   -0.052726
    62  C   -0.042596
    63  C   -0.030003
    64  C   -0.010103
    65  C   -0.063477
    66  C   -0.057513
    67  H    0.025562
    68  H    0.037147
    69  H    0.031165
    70  H    0.053685
    71  H    0.034030
    72  H    0.025528
    73  H    0.029314
    74  H    0.008475
    75  H    0.017201
    76  H    0.026820
    77  H    0.031418
    78  H    0.039405
    79  H    0.039320
    80  H    0.013736
    81  H    0.039738
    82  H    0.044955
    83  H    0.023800
    84  H    0.035140
    85  H    0.035506
    86  H    0.025521
    87  H    0.028169
    88  H    0.013526
    89  H    0.015085
    90  H    0.012931
    91  H    0.022323
    92  H    0.009753
    93  H    0.039946
    94  H    0.020422
    95  H    0.025243
    96  H    0.032756
    97  H    0.024675
    98  H    0.051148
    99  H    0.026706
   100  H    0.048719
   101  H    0.057916
   102  H    0.033954
   103  H    0.055006
   104  H    0.039406
   105  H    0.021111
   106  H    0.033443
   107  H    0.022836
   108  H    0.021975
   109  H    0.012007
   110  H    0.025228
   111  H    0.014451
   112  H    0.024228
   113  H    0.022611
   114  H    0.020452
   115  H    0.012595
   116  H    0.009636
   117  H    0.031321
   118  H    0.003035
   119  H    0.019837
   120  H    0.014859
   121  H    0.023227
   122  H    0.017195
   123  H    0.019476
   124  H    0.020046
   125  H    0.019153
   126  H    0.023034
   127  H    0.027501
   128  H    0.023192
   129  H    0.023155
   130  H    0.016246
   131  H    0.035698
   132  H    0.009781
   133  H    0.023843
   134  H    0.023196
   135  H    0.019459
   136  H    0.015945
   137  H    0.022554
   138  H    0.008241
   139  H    0.015262
   140  H    0.028615
 Sum of Mulliken charges =  -0.00000

 Dipole moment (field-independent basis, Debye):
    X=             -5.3597    Y=              3.3002    Z=              5.8026  Tot=              8.5609
 N-N= 4.333662312276D+03 E-N= 0.000000000000D+00  KE=-9.342456074738D+03
 Leave Link  601 at Wed Apr 27 00:55:32 2022, MaxMem=  6710886400 cpu:               0.8 elap:               0.1
 (Enter /sw/apps/gaussian-16.0/g16/l9999.exe)
 1\1\GINC-BP1-COMPUTE161\SP\RZINDO CIS\STO-3G\C55H74Mg1N4O6\OF15641\27-
 Apr-2022\0\\#p ZINDO=(nstates=5)\\step_101_chromophore_18 ZINDO\\0,1\M
 g,0,34.692,49.567,25.734\C,0,34.541,47.948,28.989\C,0,33.31,52.36,27.3
 37\C,0,34.119,50.88,22.747\C,0,35.523,46.568,24.259\N,0,33.992,50.078,
 27.878\C,0,34.065,49.335,29.043\C,0,33.765,50.104,30.339\C,0,33.191,51
 .453,29.788\C,0,33.389,51.262,28.226\C,0,31.717,51.733,30.063\C,0,35.,
 50.153,31.286\C,0,34.858,49.466,32.599\C,0,33.559,49.646,33.389\O,0,32

 Normal termination of Gaussian 16 at Wed Apr 27 00:55:32 2022.
