 Gaussian 16, Revision A.03,
 Gaussian 16:  ES64L-G16RevA.03 25-Dec-2016

 ------------------------------
 #p blyp/Def2SVP td=(nstates=5)
 ------------------------------

 --------------------------------------------------
 step_801_chromophore_21 TDDFT with blyp functional
 --------------------------------------------------
 Symbolic Z-matrix:
 Charge =  0 Multiplicity = 1

                         Standard orientation:
 ---------------------------------------------------------------------
 Center     Atomic      Atomic             Coordinates (Angstroms)
 Number     Number       Type             X           Y           Z
 ---------------------------------------------------------------------
      1         12           0        4.875688    1.073005    0.166559
      2          6           0        4.333010   -2.237330    0.392115
      3          6           0        1.525911    1.461266   -0.997133
      4          6           0        5.300128    4.365798   -0.166082
      5          6           0        8.258411    0.586294    0.265977
      6          7           0        3.175354   -0.248422   -0.308736
      7          6           0        3.161900   -1.533767    0.025825
      8          6           0        1.743856   -2.161980    0.210706
      9          6           0        0.969977   -1.009335   -0.484596
     10          6           0        1.903253    0.157756   -0.557965
     11          6           0        0.302577   -1.430490   -1.824063
     12          6           0        1.294690   -2.383346    1.681834
     13          6           0        0.431876   -3.668652    2.023069
     14          6           0       -0.383224   -4.281694    0.852960
     15          8           0       -0.233590   -5.406764    0.366708
     16          8           0       -1.369102   -3.354248    0.494601
     17          7           0        3.507152    2.711516   -0.283739
     18          6           0        2.165179    2.638456   -0.699855
     19          6           0        1.584419    4.035409   -0.656158
     20          6           0        2.705715    4.914698   -0.437913
     21          6           0        3.896817    4.021812   -0.239114
     22          6           0        0.081126    4.402789   -0.726545
     23          6           0        2.786985    6.459560   -0.362890
     24          8           0        3.834097    7.114349   -0.302208
     25          6           0        1.583613    7.246937   -0.433364
     26          7           0        6.554185    2.305533    0.049140
     27          6           0        6.449730    3.607178   -0.085669
     28          6           0        7.824680    4.233503   -0.077352
     29          6           0        8.820670    3.020352    0.207026
     30          6           0        7.777448    1.911002    0.172396
     31          6           0        8.218500    4.945992   -1.422524
     32          6           0        9.591976    3.291982    1.471929
     33          6           0       11.178441    3.410018    1.289275
     34          7           0        6.055340   -0.499299    0.341233
     35          6           0        7.478301   -0.599304    0.391461
     36          6           0        7.858039   -1.975740    0.597290
     37          6           0        6.638575   -2.627508    0.613749
     38          6           0        5.624377   -1.709610    0.324793
     39          6           0        9.269824   -2.499656    0.784702
     40          6           0        6.089992   -3.948362    0.774441
     41          8           0        6.623812   -5.027048    1.000868
     42          6           0        4.550768   -3.728377    0.625125
     43          6           0        4.007622   -4.533635   -0.491088
     44          8           0        3.902514   -4.278319   -1.668397
     45          8           0        3.778610   -5.775251    0.027281
     46          6           0        3.108364   -6.790968   -0.823612
     47          6           0       -2.276292   -3.830937   -0.528385
     48          6           0       -3.265964   -2.716131   -0.802015
     49          6           0       -4.055070   -2.664302   -1.916776
     50          6           0       -4.159442   -3.619594   -3.100944
     51          6           0       -4.772225   -1.329730   -2.134702
     52          6           0       -5.792444   -0.955261   -1.037584
     53          6           0       -7.054534   -1.796413   -1.195892
     54          6           0       -7.715934   -2.004197    0.175574
     55          6           0       -7.321777   -3.429612    0.650940
     56          6           0       -9.230956   -1.639910    0.078750
     57          6           0       -9.483418   -0.121406    0.116440
     58          6           0      -10.799928    0.197251    0.816141
     59          6           0      -10.462331    1.318740    1.903250
     60          6           0       -9.829346    0.590276    3.149333
     61          6           0      -11.770883    1.964080    2.283838
     62          6           0      -12.371243    2.845430    1.169142
     63          6           0      -13.954042    2.687917    0.940804
     64          6           0      -14.333282    3.028247   -0.501131
     65          6           0      -15.761341    3.693068   -0.585918
     66          6           0      -14.103619    1.649014   -1.393968
     67          1           0        0.471293    1.574397   -1.257496
     68          1           0        5.378573    5.448241   -0.287393
     69          1           0        9.332704    0.413172    0.180324
     70          1           0        1.731561   -3.107653   -0.331480
     71          1           0        0.077478   -0.663500    0.037183
     72          1           0        0.268615   -2.518461   -1.883782
     73          1           0        0.769339   -1.025914   -2.722413
     74          1           0       -0.751405   -1.152317   -1.822813
     75          1           0        0.547521   -1.608788    1.855750
     76          1           0        2.118310   -2.355035    2.395253
     77          1           0       -0.266489   -3.472115    2.836037
     78          1           0        1.120316   -4.491399    2.216192
     79          1           0       -0.138789    5.079284   -1.551998
     80          1           0       -0.119045    4.974304    0.180097
     81          1           0       -0.520264    3.499568   -0.836648
     82          1           0        0.909128    6.929080    0.361232
     83          1           0        1.047416    6.956860   -1.336507
     84          1           0        1.809915    8.311256   -0.510349
     85          1           0        7.652722    4.835176    0.814377
     86          1           0        9.519896    2.787607   -0.595732
     87          1           0        7.503894    4.713186   -2.211562
     88          1           0        9.160455    4.608835   -1.856389
     89          1           0        8.331650    6.021537   -1.287202
     90          1           0        9.380773    2.565840    2.256958
     91          1           0        9.262730    4.262241    1.844687
     92          1           0       11.633892    2.916383    2.147469
     93          1           0       11.415330    4.449246    1.059937
     94          1           0       11.475763    2.813542    0.426766
     95          1           0        9.315643   -3.220534    1.601808
     96          1           0        9.835320   -1.670215    1.210109
     97          1           0        9.700981   -2.865812   -0.147122
     98          1           0        4.044800   -4.152998    1.492716
     99          1           0        2.692822   -6.240221   -1.667159
    100          1           0        2.237308   -7.317908   -0.434016
    101          1           0        3.902667   -7.483586   -1.103269
    102          1           0       -2.828819   -4.732379   -0.262959
    103          1           0       -1.678812   -3.928820   -1.434896
    104          1           0       -3.162404   -1.874459   -0.117246
    105          1           0       -5.139523   -4.064651   -3.271291
    106          1           0       -3.376858   -4.359155   -2.926531
    107          1           0       -3.894469   -3.152455   -4.049743
    108          1           0       -5.270734   -1.398076   -3.101510
    109          1           0       -4.028163   -0.557263   -2.328503
    110          1           0       -6.010020    0.105735   -1.164170
    111          1           0       -5.383707   -1.001741   -0.027718
    112          1           0       -6.914036   -2.709572   -1.774725
    113          1           0       -7.722261   -1.220992   -1.837264
    114          1           0       -7.280089   -1.338595    0.921554
    115          1           0       -6.597327   -3.903057   -0.012053
    116          1           0       -8.194937   -4.079954    0.699689
    117          1           0       -6.949933   -3.505114    1.672059
    118          1           0       -9.701766   -2.127009    0.933174
    119          1           0       -9.693757   -2.062184   -0.813004
    120          1           0       -9.454502    0.319243   -0.879766
    121          1           0       -8.587669    0.305110    0.567980
    122          1           0      -11.223422   -0.721006    1.222607
    123          1           0      -11.478415    0.559982    0.044538
    124          1           0       -9.823242    2.146680    1.597693
    125          1           0       -8.952521    1.117231    3.526929
    126          1           0       -9.521719   -0.449229    3.035650
    127          1           0      -10.552946    0.570987    3.964372
    128          1           0      -11.624578    2.518050    3.212091
    129          1           0      -12.479887    1.154884    2.454127
    130          1           0      -11.753180    2.757780    0.274657
    131          1           0      -12.208913    3.846493    1.567804
    132          1           0      -14.361286    3.435447    1.620947
    133          1           0      -14.384512    1.709971    1.154217
    134          1           0      -13.722169    3.764976   -1.023958
    135          1           0      -16.402332    3.141248   -1.272917
    136          1           0      -15.667912    4.759328   -0.791535
    137          1           0      -16.263265    3.506412    0.363811
    138          1           0      -15.007584    1.344482   -1.920937
    139          1           0      -13.903247    0.875707   -0.652011
    140          1           0      -13.211831    1.744074   -2.013444
 ---------------------------------------------------------------------

 SCF Done:  E(RB-LYP) =  -3007.35975191     A.U. after   21 cycles

 Excitation energies and oscillator strengths:

 Excited State   1:      Singlet-A      1.7973 eV  689.83 nm  f=0.2885  <S**2>=0.000
     245 -> 248       -0.20267
     246 -> 247        0.68460
     246 <- 247       -0.14775
 This state for optimization and/or second-order correction.
 Total Energy, E(TD-HF/TD-DFT) =  -3007.29370137
 Copying the excited state density for this state as the 1-particle RhoCI density.

 Excited State   2:      Singlet-A      1.9985 eV  620.40 nm  f=0.0586  <S**2>=0.000
     244 -> 247        0.32962
     245 -> 247        0.56727
     246 -> 248        0.23045

 Excited State   3:      Singlet-A      2.0490 eV  605.10 nm  f=0.0145  <S**2>=0.000
     244 -> 247        0.62277
     245 -> 247       -0.28471
     246 -> 248       -0.13896

 Excited State   4:      Singlet-A      2.1027 eV  589.63 nm  f=0.0044  <S**2>=0.000
     243 -> 247        0.69662

 Excited State   5:      Singlet-A      2.4908 eV  497.77 nm  f=0.0001  <S**2>=0.000
     241 -> 247        0.68926
     242 -> 247        0.15744

 The electronic state is 1-A.
 Alpha  occ. eigenvalues --  -46.26802 -18.83212 -18.80281 -18.78569 -18.75869
 Alpha  occ. eigenvalues --  -18.75587 -18.75488 -14.03330 -14.02788 -14.00992
 Alpha  occ. eigenvalues --  -14.00342 -10.05267 -10.02716  -9.99914  -9.99162
 Alpha  occ. eigenvalues --   -9.98259  -9.96606  -9.96391  -9.96232  -9.96122
 Alpha  occ. eigenvalues --   -9.96043  -9.95872  -9.95659  -9.95363  -9.95174
 Alpha  occ. eigenvalues --   -9.94362  -9.94345  -9.94170  -9.94140  -9.93664
 Alpha  occ. eigenvalues --   -9.93564  -9.93531  -9.93525  -9.93290  -9.93268
 Alpha  occ. eigenvalues --   -9.93199  -9.93150  -9.93000  -9.92881  -9.92654
 Alpha  occ. eigenvalues --   -9.92544  -9.92505  -9.92462  -9.92449  -9.92363
 Alpha  occ. eigenvalues --   -9.92302  -9.92129  -9.92121  -9.92020  -9.91930
 Alpha  occ. eigenvalues --   -9.91839  -9.91786  -9.91700  -9.91668  -9.91664
 Alpha  occ. eigenvalues --   -9.91336  -9.91311  -9.91293  -9.91060  -9.90989
 Alpha  occ. eigenvalues --   -9.90951  -9.90916  -9.90807  -9.90722  -9.90438
 Alpha  occ. eigenvalues --   -9.90315  -2.91605  -1.72019  -1.71489  -1.71322
 Alpha  occ. eigenvalues --   -0.98121  -0.96754  -0.91191  -0.90903  -0.90829
 Alpha  occ. eigenvalues --   -0.88838  -0.88803  -0.87499  -0.86544  -0.83761
 Alpha  occ. eigenvalues --   -0.75242  -0.74003  -0.73187  -0.72895  -0.72263
 Alpha  occ. eigenvalues --   -0.71881  -0.71762  -0.70984  -0.70425  -0.70383
 Alpha  occ. eigenvalues --   -0.69947  -0.69347  -0.68035  -0.67114  -0.66883
 Alpha  occ. eigenvalues --   -0.66306  -0.65943  -0.65256  -0.64775  -0.64510
 Alpha  occ. eigenvalues --   -0.63895  -0.62706  -0.62417  -0.61419  -0.60674
 Alpha  occ. eigenvalues --   -0.60455  -0.60034  -0.59766  -0.59544  -0.58847
 Alpha  occ. eigenvalues --   -0.58153  -0.57627  -0.56957  -0.55695  -0.54826
 Alpha  occ. eigenvalues --   -0.53869  -0.53635  -0.52932  -0.52676  -0.52280
 Alpha  occ. eigenvalues --   -0.51544  -0.51374  -0.50585  -0.50386  -0.50193
 Alpha  occ. eigenvalues --   -0.49979  -0.49343  -0.48476  -0.47358  -0.46688
 Alpha  occ. eigenvalues --   -0.46299  -0.45866  -0.45518  -0.45175  -0.44397
 Alpha  occ. eigenvalues --   -0.43796  -0.43618  -0.43109  -0.42780  -0.42221
 Alpha  occ. eigenvalues --   -0.42109  -0.41941  -0.41769  -0.41365  -0.41059
 Alpha  occ. eigenvalues --   -0.40957  -0.40699  -0.40345  -0.39984  -0.39912
 Alpha  occ. eigenvalues --   -0.39797  -0.39692  -0.39604  -0.39368  -0.39181
 Alpha  occ. eigenvalues --   -0.38968  -0.38750  -0.38647  -0.38295  -0.37900
 Alpha  occ. eigenvalues --   -0.37883  -0.37788  -0.37434  -0.37391  -0.37012
 Alpha  occ. eigenvalues --   -0.36874  -0.36729  -0.36706  -0.36614  -0.36470
 Alpha  occ. eigenvalues --   -0.36135  -0.36082  -0.35998  -0.35769  -0.35711
 Alpha  occ. eigenvalues --   -0.35533  -0.35117  -0.35089  -0.34938  -0.34881
 Alpha  occ. eigenvalues --   -0.34774  -0.34538  -0.34476  -0.34256  -0.33996
 Alpha  occ. eigenvalues --   -0.33936  -0.33670  -0.33515  -0.33328  -0.33200
 Alpha  occ. eigenvalues --   -0.33045  -0.32945  -0.32878  -0.32663  -0.32610
 Alpha  occ. eigenvalues --   -0.32461  -0.32095  -0.31806  -0.31687  -0.31630
 Alpha  occ. eigenvalues --   -0.31470  -0.31457  -0.31314  -0.31107  -0.30879
 Alpha  occ. eigenvalues --   -0.30849  -0.30398  -0.30018  -0.30012  -0.29837
 Alpha  occ. eigenvalues --   -0.29642  -0.29590  -0.29384  -0.28934  -0.28638
 Alpha  occ. eigenvalues --   -0.28519  -0.28420  -0.27862  -0.27728  -0.27618
 Alpha  occ. eigenvalues --   -0.27514  -0.27034  -0.27002  -0.26840  -0.26571
 Alpha  occ. eigenvalues --   -0.26308  -0.26260  -0.25927  -0.25718  -0.25128
 Alpha  occ. eigenvalues --   -0.25033  -0.24720  -0.23871  -0.23760  -0.23659
 Alpha  occ. eigenvalues --   -0.23485  -0.22963  -0.21885  -0.21378  -0.20924
 Alpha  occ. eigenvalues --   -0.20328  -0.20235  -0.18799  -0.18534  -0.17086
 Alpha  occ. eigenvalues --   -0.15431
 Alpha virt. eigenvalues --   -0.11171  -0.06789  -0.06232  -0.04610  -0.04315
 Alpha virt. eigenvalues --   -0.03108  -0.02619  -0.01619  -0.01107   0.00569
 Alpha virt. eigenvalues --    0.01329   0.01763   0.02006   0.02479   0.02785

 Mulliken charges:
               1
     1  Mg   0.714308
     2  C   -0.006802
     3  C   -0.040786
     4  C   -0.035016
     5  C   -0.098129
     6  N   -0.175077
     7  C   -0.050851
     8  C   -0.009208
     9  C    0.004729
    10  C    0.020498
    11  C    0.115349
    12  C    0.129466
    13  C    0.118576
    14  C    0.075988
    15  O   -0.190997
    16  O   -0.297908
    17  N   -0.278706
    18  C    0.110560
    19  C   -0.144272
    20  C    0.015508
    21  C    0.035594
    22  C    0.164612
    23  C   -0.063063
    24  O   -0.175610
    25  C    0.163894
    26  N   -0.151489
    27  C    0.028977
    28  C    0.016393
    29  C    0.008686
    30  C    0.013999
    31  C    0.135778
    32  C    0.101301
    33  C    0.050787
    34  N   -0.302339
    35  C    0.111442
    36  C   -0.173502
    37  C    0.067549
    38  C    0.085173
    39  C    0.181616
    40  C   -0.030860
    41  O   -0.117387
    42  C    0.057029
    43  C    0.085075
    44  O   -0.170944
    45  O   -0.280083
    46  C    0.200521
    47  C    0.298433
    48  C   -0.126907
    49  C   -0.144978
    50  C    0.147044
    51  C    0.128832
    52  C    0.080651
    53  C    0.111506
    54  C   -0.087142
    55  C    0.114329
    56  C    0.095284
    57  C    0.073360
    58  C    0.101833
    59  C   -0.091847
    60  C    0.103360
    61  C    0.116681
    62  C    0.058778
    63  C    0.116875
    64  C   -0.132261
    65  C    0.111024
    66  C    0.074894
    67  H   -0.068299
    68  H   -0.050442
    69  H   -0.061567
    70  H    0.007993
    71  H   -0.027362
    72  H   -0.005115
    73  H   -0.001652
    74  H   -0.014148
    75  H   -0.015765
    76  H    0.000164
    77  H    0.011795
    78  H    0.001760
    79  H    0.004740
    80  H    0.009180
    81  H   -0.008402
    82  H   -0.001156
    83  H   -0.006579
    84  H    0.002129
    85  H   -0.008304
    86  H   -0.021376
    87  H   -0.003943
    88  H   -0.017814
    89  H    0.002625
    90  H   -0.026200
    91  H   -0.023302
    92  H    0.000538
    93  H    0.007284
    94  H   -0.016607
    95  H    0.003682
    96  H   -0.021878
    97  H    0.021271
    98  H   -0.010723
    99  H    0.011213
   100  H    0.025942
   101  H    0.021708
   102  H    0.020230
   103  H    0.010911
   104  H   -0.016568
   105  H    0.011769
   106  H   -0.020376
   107  H    0.000920
   108  H   -0.055639
   109  H   -0.029288
   110  H   -0.037069
   111  H   -0.023052
   112  H   -0.029823
   113  H   -0.045284
   114  H   -0.033079
   115  H   -0.012880
   116  H   -0.032292
   117  H   -0.024428
   118  H   -0.041443
   119  H   -0.034466
   120  H   -0.034268
   121  H   -0.031679
   122  H   -0.022011
   123  H   -0.033064
   124  H   -0.032146
   125  H   -0.020963
   126  H   -0.014065
   127  H   -0.023342
   128  H   -0.038868
   129  H   -0.045131
   130  H   -0.019448
   131  H   -0.035746
   132  H   -0.028795
   133  H   -0.014709
   134  H   -0.030673
   135  H   -0.025330
   136  H    0.001807
   137  H   -0.027181
   138  H   -0.013045
   139  H   -0.011715
   140  H    0.000711
 Sum of Mulliken charges =  -0.00000

 Dipole moment (field-independent basis, Debye):
    X=             -4.5874    Y=              3.2021    Z=              0.7302  Tot=              5.6419
 Quadrupole moment (field-independent basis, Debye-Ang):
   XX=           -391.5483   YY=           -442.4570   ZZ=           -401.6236
   XY=             20.2864   XZ=              9.1481   YZ=              3.6826

 Normal termination of Gaussian 16 at Thu May  5 11:10:43 2022.
