 Gaussian 16, Revision A.03,
 Gaussian 16:  ES64L-G16RevA.03 25-Dec-2016

 -----------------------------------
 #p cam-b3lyp/Def2SVP td=(nstates=5)
 -----------------------------------

 -------------------------------------------------------
 step_801_chromophore_21 TDDFT with cam-b3lyp functional
 -------------------------------------------------------
 Symbolic Z-matrix:
 Charge =  0 Multiplicity = 1

                         Standard orientation:
 ---------------------------------------------------------------------
 Center     Atomic      Atomic             Coordinates (Angstroms)
 Number     Number       Type             X           Y           Z
 ---------------------------------------------------------------------
      1         12           0        4.875688    1.073005    0.166559
      2          6           0        4.333010   -2.237330    0.392115
      3          6           0        1.525911    1.461266   -0.997133
      4          6           0        5.300128    4.365798   -0.166082
      5          6           0        8.258411    0.586294    0.265977
      6          7           0        3.175354   -0.248422   -0.308736
      7          6           0        3.161900   -1.533767    0.025825
      8          6           0        1.743856   -2.161980    0.210706
      9          6           0        0.969977   -1.009335   -0.484596
     10          6           0        1.903253    0.157756   -0.557965
     11          6           0        0.302577   -1.430490   -1.824063
     12          6           0        1.294690   -2.383346    1.681834
     13          6           0        0.431876   -3.668652    2.023069
     14          6           0       -0.383224   -4.281694    0.852960
     15          8           0       -0.233590   -5.406764    0.366708
     16          8           0       -1.369102   -3.354248    0.494601
     17          7           0        3.507152    2.711516   -0.283739
     18          6           0        2.165179    2.638456   -0.699855
     19          6           0        1.584419    4.035409   -0.656158
     20          6           0        2.705715    4.914698   -0.437913
     21          6           0        3.896817    4.021812   -0.239114
     22          6           0        0.081126    4.402789   -0.726545
     23          6           0        2.786985    6.459560   -0.362890
     24          8           0        3.834097    7.114349   -0.302208
     25          6           0        1.583613    7.246937   -0.433364
     26          7           0        6.554185    2.305533    0.049140
     27          6           0        6.449730    3.607178   -0.085669
     28          6           0        7.824680    4.233503   -0.077352
     29          6           0        8.820670    3.020352    0.207026
     30          6           0        7.777448    1.911002    0.172396
     31          6           0        8.218500    4.945992   -1.422524
     32          6           0        9.591976    3.291982    1.471929
     33          6           0       11.178441    3.410018    1.289275
     34          7           0        6.055340   -0.499299    0.341233
     35          6           0        7.478301   -0.599304    0.391461
     36          6           0        7.858039   -1.975740    0.597290
     37          6           0        6.638575   -2.627508    0.613749
     38          6           0        5.624377   -1.709610    0.324793
     39          6           0        9.269824   -2.499656    0.784702
     40          6           0        6.089992   -3.948362    0.774441
     41          8           0        6.623812   -5.027048    1.000868
     42          6           0        4.550768   -3.728377    0.625125
     43          6           0        4.007622   -4.533635   -0.491088
     44          8           0        3.902514   -4.278319   -1.668397
     45          8           0        3.778610   -5.775251    0.027281
     46          6           0        3.108364   -6.790968   -0.823612
     47          6           0       -2.276292   -3.830937   -0.528385
     48          6           0       -3.265964   -2.716131   -0.802015
     49          6           0       -4.055070   -2.664302   -1.916776
     50          6           0       -4.159442   -3.619594   -3.100944
     51          6           0       -4.772225   -1.329730   -2.134702
     52          6           0       -5.792444   -0.955261   -1.037584
     53          6           0       -7.054534   -1.796413   -1.195892
     54          6           0       -7.715934   -2.004197    0.175574
     55          6           0       -7.321777   -3.429612    0.650940
     56          6           0       -9.230956   -1.639910    0.078750
     57          6           0       -9.483418   -0.121406    0.116440
     58          6           0      -10.799928    0.197251    0.816141
     59          6           0      -10.462331    1.318740    1.903250
     60          6           0       -9.829346    0.590276    3.149333
     61          6           0      -11.770883    1.964080    2.283838
     62          6           0      -12.371243    2.845430    1.169142
     63          6           0      -13.954042    2.687917    0.940804
     64          6           0      -14.333282    3.028247   -0.501131
     65          6           0      -15.761341    3.693068   -0.585918
     66          6           0      -14.103619    1.649014   -1.393968
     67          1           0        0.471293    1.574397   -1.257496
     68          1           0        5.378573    5.448241   -0.287393
     69          1           0        9.332704    0.413172    0.180324
     70          1           0        1.731561   -3.107653   -0.331480
     71          1           0        0.077478   -0.663500    0.037183
     72          1           0        0.268615   -2.518461   -1.883782
     73          1           0        0.769339   -1.025914   -2.722413
     74          1           0       -0.751405   -1.152317   -1.822813
     75          1           0        0.547521   -1.608788    1.855750
     76          1           0        2.118310   -2.355035    2.395253
     77          1           0       -0.266489   -3.472115    2.836037
     78          1           0        1.120316   -4.491399    2.216192
     79          1           0       -0.138789    5.079284   -1.551998
     80          1           0       -0.119045    4.974304    0.180097
     81          1           0       -0.520264    3.499568   -0.836648
     82          1           0        0.909128    6.929080    0.361232
     83          1           0        1.047416    6.956860   -1.336507
     84          1           0        1.809915    8.311256   -0.510349
     85          1           0        7.652722    4.835176    0.814377
     86          1           0        9.519896    2.787607   -0.595732
     87          1           0        7.503894    4.713186   -2.211562
     88          1           0        9.160455    4.608835   -1.856389
     89          1           0        8.331650    6.021537   -1.287202
     90          1           0        9.380773    2.565840    2.256958
     91          1           0        9.262730    4.262241    1.844687
     92          1           0       11.633892    2.916383    2.147469
     93          1           0       11.415330    4.449246    1.059937
     94          1           0       11.475763    2.813542    0.426766
     95          1           0        9.315643   -3.220534    1.601808
     96          1           0        9.835320   -1.670215    1.210109
     97          1           0        9.700981   -2.865812   -0.147122
     98          1           0        4.044800   -4.152998    1.492716
     99          1           0        2.692822   -6.240221   -1.667159
    100          1           0        2.237308   -7.317908   -0.434016
    101          1           0        3.902667   -7.483586   -1.103269
    102          1           0       -2.828819   -4.732379   -0.262959
    103          1           0       -1.678812   -3.928820   -1.434896
    104          1           0       -3.162404   -1.874459   -0.117246
    105          1           0       -5.139523   -4.064651   -3.271291
    106          1           0       -3.376858   -4.359155   -2.926531
    107          1           0       -3.894469   -3.152455   -4.049743
    108          1           0       -5.270734   -1.398076   -3.101510
    109          1           0       -4.028163   -0.557263   -2.328503
    110          1           0       -6.010020    0.105735   -1.164170
    111          1           0       -5.383707   -1.001741   -0.027718
    112          1           0       -6.914036   -2.709572   -1.774725
    113          1           0       -7.722261   -1.220992   -1.837264
    114          1           0       -7.280089   -1.338595    0.921554
    115          1           0       -6.597327   -3.903057   -0.012053
    116          1           0       -8.194937   -4.079954    0.699689
    117          1           0       -6.949933   -3.505114    1.672059
    118          1           0       -9.701766   -2.127009    0.933174
    119          1           0       -9.693757   -2.062184   -0.813004
    120          1           0       -9.454502    0.319243   -0.879766
    121          1           0       -8.587669    0.305110    0.567980
    122          1           0      -11.223422   -0.721006    1.222607
    123          1           0      -11.478415    0.559982    0.044538
    124          1           0       -9.823242    2.146680    1.597693
    125          1           0       -8.952521    1.117231    3.526929
    126          1           0       -9.521719   -0.449229    3.035650
    127          1           0      -10.552946    0.570987    3.964372
    128          1           0      -11.624578    2.518050    3.212091
    129          1           0      -12.479887    1.154884    2.454127
    130          1           0      -11.753180    2.757780    0.274657
    131          1           0      -12.208913    3.846493    1.567804
    132          1           0      -14.361286    3.435447    1.620947
    133          1           0      -14.384512    1.709971    1.154217
    134          1           0      -13.722169    3.764976   -1.023958
    135          1           0      -16.402332    3.141248   -1.272917
    136          1           0      -15.667912    4.759328   -0.791535
    137          1           0      -16.263265    3.506412    0.363811
    138          1           0      -15.007584    1.344482   -1.920937
    139          1           0      -13.903247    0.875707   -0.652011
    140          1           0      -13.211831    1.744074   -2.013444
 ---------------------------------------------------------------------

 SCF Done:  E(RCAM-B3LYP) =  -3007.15637353     A.U. after   17 cycles

 Excitation energies and oscillator strengths:

 Excited State   1:      Singlet-A      1.7093 eV  725.33 nm  f=0.3867  <S**2>=0.000
     245 -> 248       -0.19137
     246 -> 247        0.68302
     245 <- 248       -0.10993
 This state for optimization and/or second-order correction.
 Total Energy, E(TD-HF/TD-DFT) =  -3007.09355651
 Copying the excited state density for this state as the 1-particle RhoCI density.

 Excited State   2:      Singlet-A      2.2489 eV  551.31 nm  f=0.0690  <S**2>=0.000
     245 -> 247        0.61763
     246 -> 248        0.33474

 Excited State   3:      Singlet-A      3.3877 eV  365.98 nm  f=0.6100  <S**2>=0.000
     242 -> 247       -0.20795
     245 -> 247       -0.30067
     246 -> 248        0.59127
     245 <- 247        0.10672

 Excited State   4:      Singlet-A      3.4775 eV  356.53 nm  f=0.0070  <S**2>=0.000
     241 -> 247       -0.18970
     242 -> 247       -0.14881
     242 -> 249       -0.14850
     244 -> 247        0.60679

 Excited State   5:      Singlet-A      3.5557 eV  348.69 nm  f=0.0880  <S**2>=0.000
     241 -> 247        0.31930
     241 -> 249        0.20040
     241 -> 251       -0.13852
     242 -> 247        0.39888
     242 -> 249        0.11862
     244 -> 247        0.28281
     245 -> 247       -0.11151
     246 -> 248        0.14004

 The electronic state is 1-A.
 Alpha  occ. eigenvalues --  -46.88276 -19.26143 -19.23164 -19.21652 -19.18957
 Alpha  occ. eigenvalues --  -19.18955 -19.18528 -14.42229 -14.41443 -14.39541
 Alpha  occ. eigenvalues --  -14.38627 -10.40726 -10.38128 -10.35298 -10.34398
 Alpha  occ. eigenvalues --  -10.32300 -10.31198 -10.30799 -10.30750 -10.30609
 Alpha  occ. eigenvalues --  -10.30228 -10.30185 -10.30027 -10.30012 -10.29428
 Alpha  occ. eigenvalues --  -10.28463 -10.28444 -10.28286 -10.28252 -10.28127
 Alpha  occ. eigenvalues --  -10.27737 -10.27634 -10.27612 -10.27540 -10.27430
 Alpha  occ. eigenvalues --  -10.27108 -10.27101 -10.26921 -10.26839 -10.26775
 Alpha  occ. eigenvalues --  -10.26570 -10.26501 -10.26285 -10.26136 -10.26067
 Alpha  occ. eigenvalues --  -10.26044 -10.25910 -10.25845 -10.25714 -10.25670
 Alpha  occ. eigenvalues --  -10.25622 -10.25613 -10.25550 -10.25421 -10.25386
 Alpha  occ. eigenvalues --  -10.25068 -10.25015 -10.25011 -10.24708 -10.24688
 Alpha  occ. eigenvalues --  -10.24606 -10.24578 -10.24484 -10.24340 -10.24189
 Alpha  occ. eigenvalues --  -10.24097  -3.16990  -1.91877  -1.91449  -1.91300
 Alpha  occ. eigenvalues --   -1.16586  -1.15328  -1.09743  -1.09088  -1.08837
 Alpha  occ. eigenvalues --   -1.06720  -1.06513  -1.05251  -1.04067  -1.01380
 Alpha  occ. eigenvalues --   -0.92315  -0.90940  -0.90023  -0.89693  -0.88879
 Alpha  occ. eigenvalues --   -0.88574  -0.88416  -0.87569  -0.87011  -0.86954
 Alpha  occ. eigenvalues --   -0.86680  -0.85738  -0.84322  -0.83276  -0.83112
 Alpha  occ. eigenvalues --   -0.82497  -0.81968  -0.81175  -0.80583  -0.80287
 Alpha  occ. eigenvalues --   -0.79721  -0.78406  -0.78220  -0.76834  -0.76036
 Alpha  occ. eigenvalues --   -0.75803  -0.75402  -0.75023  -0.74859  -0.74088
 Alpha  occ. eigenvalues --   -0.73208  -0.72611  -0.71888  -0.70533  -0.69343
 Alpha  occ. eigenvalues --   -0.68487  -0.68200  -0.67283  -0.67068  -0.66450
 Alpha  occ. eigenvalues --   -0.65846  -0.65687  -0.64600  -0.64416  -0.64276
 Alpha  occ. eigenvalues --   -0.63898  -0.63345  -0.62368  -0.61024  -0.60331
 Alpha  occ. eigenvalues --   -0.59927  -0.59283  -0.59073  -0.58497  -0.57816
 Alpha  occ. eigenvalues --   -0.57284  -0.57048  -0.56262  -0.56136  -0.55558
 Alpha  occ. eigenvalues --   -0.55368  -0.54959  -0.54721  -0.54086  -0.53841
 Alpha  occ. eigenvalues --   -0.53659  -0.53549  -0.53314  -0.52966  -0.52735
 Alpha  occ. eigenvalues --   -0.52667  -0.52546  -0.52258  -0.52026  -0.51812
 Alpha  occ. eigenvalues --   -0.51529  -0.51169  -0.51119  -0.50677  -0.50365
 Alpha  occ. eigenvalues --   -0.50175  -0.50048  -0.49979  -0.49740  -0.49416
 Alpha  occ. eigenvalues --   -0.49253  -0.49139  -0.49015  -0.48819  -0.48737
 Alpha  occ. eigenvalues --   -0.48611  -0.48397  -0.48132  -0.48123  -0.47901
 Alpha  occ. eigenvalues --   -0.47742  -0.47172  -0.46926  -0.46919  -0.46799
 Alpha  occ. eigenvalues --   -0.46604  -0.46448  -0.46357  -0.45946  -0.45797
 Alpha  occ. eigenvalues --   -0.45657  -0.45514  -0.45392  -0.44998  -0.44879
 Alpha  occ. eigenvalues --   -0.44755  -0.44665  -0.44486  -0.44476  -0.44298
 Alpha  occ. eigenvalues --   -0.44267  -0.43987  -0.43380  -0.43296  -0.43197
 Alpha  occ. eigenvalues --   -0.43146  -0.42865  -0.42854  -0.42726  -0.42165
 Alpha  occ. eigenvalues --   -0.42132  -0.41834  -0.41275  -0.41189  -0.41050
 Alpha  occ. eigenvalues --   -0.41021  -0.40892  -0.40742  -0.39976  -0.39871
 Alpha  occ. eigenvalues --   -0.39607  -0.39498  -0.39440  -0.38703  -0.38645
 Alpha  occ. eigenvalues --   -0.38504  -0.38263  -0.37885  -0.37825  -0.37673
 Alpha  occ. eigenvalues --   -0.37555  -0.36905  -0.36535  -0.36398  -0.35797
 Alpha  occ. eigenvalues --   -0.35748  -0.35368  -0.35185  -0.35033  -0.34208
 Alpha  occ. eigenvalues --   -0.34078  -0.33835  -0.33085  -0.31295  -0.31137
 Alpha  occ. eigenvalues --   -0.30610  -0.30148  -0.29946  -0.29566  -0.23886
 Alpha  occ. eigenvalues --   -0.20573
 Alpha virt. eigenvalues --   -0.08154  -0.01747   0.00238   0.02237   0.02620
 Alpha virt. eigenvalues --    0.03202   0.04320   0.05668   0.06521   0.06931
 Alpha virt. eigenvalues --    0.08074   0.08079   0.08670   0.08964   0.09038

 Mulliken charges:
               1
     1  Mg   0.849381
     2  C   -0.030182
     3  C   -0.051220
     4  C   -0.057561
     5  C   -0.099323
     6  N   -0.245423
     7  C   -0.006212
     8  C   -0.063836
     9  C   -0.053872
    10  C    0.043047
    11  C    0.065859
    12  C    0.081732
    13  C    0.058764
    14  C    0.149463
    15  O   -0.231276
    16  O   -0.360171
    17  N   -0.362433
    18  C    0.118672
    19  C   -0.147357
    20  C   -0.052903
    21  C    0.066387
    22  C    0.111646
    23  C    0.021984
    24  O   -0.216059
    25  C    0.074523
    26  N   -0.232622
    27  C    0.052438
    28  C   -0.045290
    29  C   -0.043295
    30  C    0.033336
    31  C    0.076771
    32  C    0.042685
    33  C   -0.006973
    34  N   -0.393730
    35  C    0.105922
    36  C   -0.169173
    37  C   -0.013205
    38  C    0.127962
    39  C    0.133758
    40  C    0.067512
    41  O   -0.157042
    42  C   -0.024402
    43  C    0.173396
    44  O   -0.208150
    45  O   -0.344016
    46  C    0.166253
    47  C    0.267698
    48  C   -0.144437
    49  C   -0.171124
    50  C    0.088302
    51  C    0.067800
    52  C    0.030275
    53  C    0.056510
    54  C   -0.144057
    55  C    0.058745
    56  C    0.041988
    57  C    0.025458
    58  C    0.047947
    59  C   -0.148226
    60  C    0.045731
    61  C    0.065533
    62  C    0.003566
    63  C    0.057056
    64  C   -0.187619
    65  C    0.052429
    66  C    0.020302
    67  H   -0.034926
    68  H   -0.008833
    69  H   -0.026655
    70  H    0.036465
    71  H    0.007705
    72  H    0.014913
    73  H    0.025257
    74  H    0.006958
    75  H    0.014549
    76  H    0.030106
    77  H    0.043933
    78  H    0.031469
    79  H    0.031146
    80  H    0.034294
    81  H    0.019090
    82  H    0.025974
    83  H    0.020606
    84  H    0.038846
    85  H    0.025631
    86  H    0.012464
    87  H    0.021803
    88  H    0.006749
    89  H    0.026229
    90  H    0.004560
    91  H    0.005424
    92  H    0.024080
    93  H    0.028986
    94  H    0.004436
    95  H    0.030773
    96  H    0.002451
    97  H    0.046662
    98  H    0.032088
    99  H    0.036403
   100  H    0.047143
   101  H    0.044150
   102  H    0.047175
   103  H    0.033986
   104  H    0.016497
   105  H    0.035308
   106  H    0.003402
   107  H    0.025852
   108  H   -0.023322
   109  H    0.001063
   110  H   -0.007789
   111  H    0.002619
   112  H   -0.003454
   113  H   -0.015107
   114  H   -0.002141
   115  H    0.009650
   116  H   -0.007044
   117  H    0.000429
   118  H   -0.013885
   119  H   -0.005350
   120  H   -0.006739
   121  H   -0.005665
   122  H    0.006797
   123  H   -0.006589
   124  H   -0.000615
   125  H    0.003702
   126  H    0.007682
   127  H    0.002423
   128  H   -0.008705
   129  H   -0.017709
   130  H    0.006273
   131  H   -0.005691
   132  H    0.000985
   133  H    0.011990
   134  H    0.001200
   135  H   -0.001003
   136  H    0.024640
   137  H   -0.002756
   138  H    0.011083
   139  H    0.008151
   140  H    0.022088
 Sum of Mulliken charges =  -0.00000

 Dipole moment (field-independent basis, Debye):
    X=             -5.2855    Y=              3.7048    Z=              0.7407  Tot=              6.4970
 Quadrupole moment (field-independent basis, Debye-Ang):
   XX=           -394.8457   YY=           -439.2358   ZZ=           -401.2415
   XY=             21.2040   XZ=              9.3598   YZ=              3.3558

 Normal termination of Gaussian 16 at Thu May  5 09:36:43 2022.
