 Gaussian 16, Revision A.03,
 Gaussian 16:  ES64L-G16RevA.03 25-Dec-2016

 ---------------------------------
 #p PBE1PBE/Def2SVP td=(nstates=5)
 ---------------------------------

 -----------------------------------------------------
 step_801_chromophore_21 TDDFT with PBE1PBE functional
 -----------------------------------------------------
 Symbolic Z-matrix:
 Charge =  0 Multiplicity = 1

                         Standard orientation:
 ---------------------------------------------------------------------
 Center     Atomic      Atomic             Coordinates (Angstroms)
 Number     Number       Type             X           Y           Z
 ---------------------------------------------------------------------
      1         12           0        4.875688    1.073005    0.166559
      2          6           0        4.333010   -2.237330    0.392115
      3          6           0        1.525911    1.461266   -0.997133
      4          6           0        5.300128    4.365798   -0.166082
      5          6           0        8.258411    0.586294    0.265977
      6          7           0        3.175354   -0.248422   -0.308736
      7          6           0        3.161900   -1.533767    0.025825
      8          6           0        1.743856   -2.161980    0.210706
      9          6           0        0.969977   -1.009335   -0.484596
     10          6           0        1.903253    0.157756   -0.557965
     11          6           0        0.302577   -1.430490   -1.824063
     12          6           0        1.294690   -2.383346    1.681834
     13          6           0        0.431876   -3.668652    2.023069
     14          6           0       -0.383224   -4.281694    0.852960
     15          8           0       -0.233590   -5.406764    0.366708
     16          8           0       -1.369102   -3.354248    0.494601
     17          7           0        3.507152    2.711516   -0.283739
     18          6           0        2.165179    2.638456   -0.699855
     19          6           0        1.584419    4.035409   -0.656158
     20          6           0        2.705715    4.914698   -0.437913
     21          6           0        3.896817    4.021812   -0.239114
     22          6           0        0.081126    4.402789   -0.726545
     23          6           0        2.786985    6.459560   -0.362890
     24          8           0        3.834097    7.114349   -0.302208
     25          6           0        1.583613    7.246937   -0.433364
     26          7           0        6.554185    2.305533    0.049140
     27          6           0        6.449730    3.607178   -0.085669
     28          6           0        7.824680    4.233503   -0.077352
     29          6           0        8.820670    3.020352    0.207026
     30          6           0        7.777448    1.911002    0.172396
     31          6           0        8.218500    4.945992   -1.422524
     32          6           0        9.591976    3.291982    1.471929
     33          6           0       11.178441    3.410018    1.289275
     34          7           0        6.055340   -0.499299    0.341233
     35          6           0        7.478301   -0.599304    0.391461
     36          6           0        7.858039   -1.975740    0.597290
     37          6           0        6.638575   -2.627508    0.613749
     38          6           0        5.624377   -1.709610    0.324793
     39          6           0        9.269824   -2.499656    0.784702
     40          6           0        6.089992   -3.948362    0.774441
     41          8           0        6.623812   -5.027048    1.000868
     42          6           0        4.550768   -3.728377    0.625125
     43          6           0        4.007622   -4.533635   -0.491088
     44          8           0        3.902514   -4.278319   -1.668397
     45          8           0        3.778610   -5.775251    0.027281
     46          6           0        3.108364   -6.790968   -0.823612
     47          6           0       -2.276292   -3.830937   -0.528385
     48          6           0       -3.265964   -2.716131   -0.802015
     49          6           0       -4.055070   -2.664302   -1.916776
     50          6           0       -4.159442   -3.619594   -3.100944
     51          6           0       -4.772225   -1.329730   -2.134702
     52          6           0       -5.792444   -0.955261   -1.037584
     53          6           0       -7.054534   -1.796413   -1.195892
     54          6           0       -7.715934   -2.004197    0.175574
     55          6           0       -7.321777   -3.429612    0.650940
     56          6           0       -9.230956   -1.639910    0.078750
     57          6           0       -9.483418   -0.121406    0.116440
     58          6           0      -10.799928    0.197251    0.816141
     59          6           0      -10.462331    1.318740    1.903250
     60          6           0       -9.829346    0.590276    3.149333
     61          6           0      -11.770883    1.964080    2.283838
     62          6           0      -12.371243    2.845430    1.169142
     63          6           0      -13.954042    2.687917    0.940804
     64          6           0      -14.333282    3.028247   -0.501131
     65          6           0      -15.761341    3.693068   -0.585918
     66          6           0      -14.103619    1.649014   -1.393968
     67          1           0        0.471293    1.574397   -1.257496
     68          1           0        5.378573    5.448241   -0.287393
     69          1           0        9.332704    0.413172    0.180324
     70          1           0        1.731561   -3.107653   -0.331480
     71          1           0        0.077478   -0.663500    0.037183
     72          1           0        0.268615   -2.518461   -1.883782
     73          1           0        0.769339   -1.025914   -2.722413
     74          1           0       -0.751405   -1.152317   -1.822813
     75          1           0        0.547521   -1.608788    1.855750
     76          1           0        2.118310   -2.355035    2.395253
     77          1           0       -0.266489   -3.472115    2.836037
     78          1           0        1.120316   -4.491399    2.216192
     79          1           0       -0.138789    5.079284   -1.551998
     80          1           0       -0.119045    4.974304    0.180097
     81          1           0       -0.520264    3.499568   -0.836648
     82          1           0        0.909128    6.929080    0.361232
     83          1           0        1.047416    6.956860   -1.336507
     84          1           0        1.809915    8.311256   -0.510349
     85          1           0        7.652722    4.835176    0.814377
     86          1           0        9.519896    2.787607   -0.595732
     87          1           0        7.503894    4.713186   -2.211562
     88          1           0        9.160455    4.608835   -1.856389
     89          1           0        8.331650    6.021537   -1.287202
     90          1           0        9.380773    2.565840    2.256958
     91          1           0        9.262730    4.262241    1.844687
     92          1           0       11.633892    2.916383    2.147469
     93          1           0       11.415330    4.449246    1.059937
     94          1           0       11.475763    2.813542    0.426766
     95          1           0        9.315643   -3.220534    1.601808
     96          1           0        9.835320   -1.670215    1.210109
     97          1           0        9.700981   -2.865812   -0.147122
     98          1           0        4.044800   -4.152998    1.492716
     99          1           0        2.692822   -6.240221   -1.667159
    100          1           0        2.237308   -7.317908   -0.434016
    101          1           0        3.902667   -7.483586   -1.103269
    102          1           0       -2.828819   -4.732379   -0.262959
    103          1           0       -1.678812   -3.928820   -1.434896
    104          1           0       -3.162404   -1.874459   -0.117246
    105          1           0       -5.139523   -4.064651   -3.271291
    106          1           0       -3.376858   -4.359155   -2.926531
    107          1           0       -3.894469   -3.152455   -4.049743
    108          1           0       -5.270734   -1.398076   -3.101510
    109          1           0       -4.028163   -0.557263   -2.328503
    110          1           0       -6.010020    0.105735   -1.164170
    111          1           0       -5.383707   -1.001741   -0.027718
    112          1           0       -6.914036   -2.709572   -1.774725
    113          1           0       -7.722261   -1.220992   -1.837264
    114          1           0       -7.280089   -1.338595    0.921554
    115          1           0       -6.597327   -3.903057   -0.012053
    116          1           0       -8.194937   -4.079954    0.699689
    117          1           0       -6.949933   -3.505114    1.672059
    118          1           0       -9.701766   -2.127009    0.933174
    119          1           0       -9.693757   -2.062184   -0.813004
    120          1           0       -9.454502    0.319243   -0.879766
    121          1           0       -8.587669    0.305110    0.567980
    122          1           0      -11.223422   -0.721006    1.222607
    123          1           0      -11.478415    0.559982    0.044538
    124          1           0       -9.823242    2.146680    1.597693
    125          1           0       -8.952521    1.117231    3.526929
    126          1           0       -9.521719   -0.449229    3.035650
    127          1           0      -10.552946    0.570987    3.964372
    128          1           0      -11.624578    2.518050    3.212091
    129          1           0      -12.479887    1.154884    2.454127
    130          1           0      -11.753180    2.757780    0.274657
    131          1           0      -12.208913    3.846493    1.567804
    132          1           0      -14.361286    3.435447    1.620947
    133          1           0      -14.384512    1.709971    1.154217
    134          1           0      -13.722169    3.764976   -1.023958
    135          1           0      -16.402332    3.141248   -1.272917
    136          1           0      -15.667912    4.759328   -0.791535
    137          1           0      -16.263265    3.506412    0.363811
    138          1           0      -15.007584    1.344482   -1.920937
    139          1           0      -13.903247    0.875707   -0.652011
    140          1           0      -13.211831    1.744074   -2.013444
 ---------------------------------------------------------------------

 SCF Done:  E(RPBE1PBE) =  -3005.34538029     A.U. after   15 cycles

 Excitation energies and oscillator strengths:

 Excited State   1:      Singlet-A      1.8582 eV  667.24 nm  f=0.3705  <S**2>=0.000
     245 -> 248       -0.18465
     246 -> 247        0.69035
     246 <- 247       -0.10640
 This state for optimization and/or second-order correction.
 Total Energy, E(TD-HF/TD-DFT) =  -3005.27709357
 Copying the excited state density for this state as the 1-particle RhoCI density.

 Excited State   2:      Singlet-A      2.2441 eV  552.48 nm  f=0.0794  <S**2>=0.000
     245 -> 247        0.63741
     246 -> 248        0.29712

 Excited State   3:      Singlet-A      3.0321 eV  408.90 nm  f=0.0022  <S**2>=0.000
     242 -> 247        0.43917
     242 -> 249        0.12508
     243 -> 247        0.13682
     244 -> 247        0.48247

 Excited State   4:      Singlet-A      3.1697 eV  391.16 nm  f=0.0024  <S**2>=0.000
     242 -> 247        0.49275
     244 -> 247       -0.46472
     246 -> 248       -0.11294

 Excited State   5:      Singlet-A      3.2319 eV  383.62 nm  f=0.1843  <S**2>=0.000
     240 -> 247       -0.15467
     241 -> 247        0.49190
     241 -> 249       -0.14831
     245 -> 247       -0.17009
     246 -> 248        0.40557

 The electronic state is 1-A.
 Alpha  occ. eigenvalues --  -46.91703 -19.26825 -19.23844 -19.21929 -19.19178
 Alpha  occ. eigenvalues --  -19.19082 -19.18842 -14.41700 -14.40951 -14.39181
 Alpha  occ. eigenvalues --  -14.38345 -10.37807 -10.35116 -10.32305 -10.31591
 Alpha  occ. eigenvalues --  -10.29695 -10.28842 -10.28605 -10.28368 -10.28211
 Alpha  occ. eigenvalues --  -10.27827 -10.27743 -10.27678 -10.27462 -10.27328
 Alpha  occ. eigenvalues --  -10.26280 -10.25956 -10.25859 -10.25770 -10.25616
 Alpha  occ. eigenvalues --  -10.25420 -10.25397 -10.25365 -10.25337 -10.25083
 Alpha  occ. eigenvalues --  -10.24988 -10.24682 -10.24677 -10.24658 -10.24316
 Alpha  occ. eigenvalues --  -10.24235 -10.24138 -10.23989 -10.23848 -10.23605
 Alpha  occ. eigenvalues --  -10.23564 -10.23374 -10.23295 -10.23254 -10.23232
 Alpha  occ. eigenvalues --  -10.23213 -10.23171 -10.23124 -10.22992 -10.22927
 Alpha  occ. eigenvalues --  -10.22627 -10.22599 -10.22441 -10.22242 -10.22156
 Alpha  occ. eigenvalues --  -10.22104 -10.22009 -10.22008 -10.21973 -10.21711
 Alpha  occ. eigenvalues --  -10.21626  -3.13990  -1.86819  -1.86370  -1.86225
 Alpha  occ. eigenvalues --   -1.11383  -1.10083  -1.04361  -1.03902  -1.03700
 Alpha  occ. eigenvalues --   -1.01549  -1.01223  -0.99910  -0.98841  -0.95958
 Alpha  occ. eigenvalues --   -0.86716  -0.85042  -0.84151  -0.83865  -0.83219
 Alpha  occ. eigenvalues --   -0.82786  -0.82658  -0.81911  -0.81322  -0.81048
 Alpha  occ. eigenvalues --   -0.80905  -0.79969  -0.78485  -0.77585  -0.77326
 Alpha  occ. eigenvalues --   -0.76653  -0.76213  -0.75438  -0.74848  -0.74659
 Alpha  occ. eigenvalues --   -0.73826  -0.72672  -0.72439  -0.71178  -0.70306
 Alpha  occ. eigenvalues --   -0.70040  -0.69481  -0.69352  -0.68968  -0.68251
 Alpha  occ. eigenvalues --   -0.67584  -0.67010  -0.66338  -0.64858  -0.63773
 Alpha  occ. eigenvalues --   -0.62928  -0.62436  -0.61664  -0.61312  -0.60932
 Alpha  occ. eigenvalues --   -0.60142  -0.59995  -0.59112  -0.58884  -0.58490
 Alpha  occ. eigenvalues --   -0.58401  -0.57479  -0.56588  -0.55610  -0.54832
 Alpha  occ. eigenvalues --   -0.54448  -0.53804  -0.53668  -0.53129  -0.52385
 Alpha  occ. eigenvalues --   -0.51657  -0.51446  -0.50881  -0.50661  -0.50134
 Alpha  occ. eigenvalues --   -0.49849  -0.49469  -0.49055  -0.48576  -0.48341
 Alpha  occ. eigenvalues --   -0.48116  -0.48069  -0.47933  -0.47529  -0.47246
 Alpha  occ. eigenvalues --   -0.47071  -0.46972  -0.46760  -0.46608  -0.46354
 Alpha  occ. eigenvalues --   -0.46050  -0.45715  -0.45674  -0.45247  -0.44941
 Alpha  occ. eigenvalues --   -0.44789  -0.44645  -0.44519  -0.44383  -0.43948
 Alpha  occ. eigenvalues --   -0.43802  -0.43746  -0.43593  -0.43382  -0.43363
 Alpha  occ. eigenvalues --   -0.43220  -0.43012  -0.42792  -0.42727  -0.42549
 Alpha  occ. eigenvalues --   -0.42410  -0.41840  -0.41605  -0.41473  -0.41342
 Alpha  occ. eigenvalues --   -0.41300  -0.41243  -0.41071  -0.40599  -0.40517
 Alpha  occ. eigenvalues --   -0.40284  -0.40266  -0.40161  -0.39820  -0.39632
 Alpha  occ. eigenvalues --   -0.39475  -0.39411  -0.39243  -0.39112  -0.39074
 Alpha  occ. eigenvalues --   -0.39027  -0.38727  -0.38225  -0.38055  -0.37955
 Alpha  occ. eigenvalues --   -0.37859  -0.37734  -0.37629  -0.37543  -0.37095
 Alpha  occ. eigenvalues --   -0.36878  -0.36685  -0.35990  -0.35979  -0.35907
 Alpha  occ. eigenvalues --   -0.35766  -0.35679  -0.35509  -0.34757  -0.34712
 Alpha  occ. eigenvalues --   -0.34491  -0.34329  -0.34202  -0.33723  -0.33391
 Alpha  occ. eigenvalues --   -0.33299  -0.33159  -0.32876  -0.32631  -0.32577
 Alpha  occ. eigenvalues --   -0.32528  -0.32006  -0.31412  -0.31226  -0.30906
 Alpha  occ. eigenvalues --   -0.30644  -0.30287  -0.30159  -0.29888  -0.29452
 Alpha  occ. eigenvalues --   -0.29027  -0.29026  -0.28282  -0.26802  -0.26050
 Alpha  occ. eigenvalues --   -0.25932  -0.25350  -0.25219  -0.25134  -0.20796
 Alpha  occ. eigenvalues --   -0.18285
 Alpha virt. eigenvalues --   -0.10693  -0.05206  -0.03960  -0.01886  -0.01344
 Alpha virt. eigenvalues --   -0.00430  -0.00075   0.01279   0.01940   0.03561
 Alpha virt. eigenvalues --    0.03967   0.04588   0.05000   0.05347   0.05720

 Mulliken charges:
               1
     1  Mg   1.000543
     2  C   -0.044819
     3  C   -0.043149
     4  C   -0.047768
     5  C   -0.085023
     6  N   -0.353832
     7  C    0.062087
     8  C   -0.138145
     9  C   -0.137388
    10  C    0.085618
    11  C    0.009712
    12  C    0.034492
    13  C   -0.015166
    14  C    0.208273
    15  O   -0.263917
    16  O   -0.388105
    17  N   -0.467057
    18  C    0.131438
    19  C   -0.164569
    20  C   -0.104594
    21  C    0.107621
    22  C    0.048953
    23  C    0.071913
    24  O   -0.254774
    25  C   -0.002462
    26  N   -0.352335
    27  C    0.083369
    28  C   -0.130420
    29  C   -0.114427
    30  C    0.075062
    31  C    0.021080
    32  C   -0.013248
    33  C   -0.080206
    34  N   -0.520220
    35  C    0.119316
    36  C   -0.180217
    37  C   -0.067149
    38  C    0.198591
    39  C    0.081911
    40  C    0.162952
    41  O   -0.204003
    42  C   -0.132315
    43  C    0.263272
    44  O   -0.243959
    45  O   -0.376308
    46  C    0.114412
    47  C    0.232457
    48  C   -0.157768
    49  C   -0.210237
    50  C    0.022594
    51  C    0.000483
    52  C   -0.032145
    53  C    0.003628
    54  C   -0.231106
    55  C    0.002171
    56  C   -0.017629
    57  C   -0.026417
    58  C   -0.012699
    59  C   -0.240982
    60  C   -0.009774
    61  C    0.011565
    62  C   -0.055505
    63  C   -0.008486
    64  C   -0.269420
    65  C   -0.008973
    66  C   -0.041235
    67  H   -0.002299
    68  H    0.024277
    69  H    0.005116
    70  H    0.079443
    71  H    0.044808
    72  H    0.043470
    73  H    0.052418
    74  H    0.036333
    75  H    0.047291
    76  H    0.061502
    77  H    0.075086
    78  H    0.064348
    79  H    0.057999
    80  H    0.061961
    81  H    0.045956
    82  H    0.053451
    83  H    0.048825
    84  H    0.065311
    85  H    0.061423
    86  H    0.047863
    87  H    0.049357
    88  H    0.033731
    89  H    0.053327
    90  H    0.036990
    91  H    0.039103
    92  H    0.051697
    93  H    0.056615
    94  H    0.032004
    95  H    0.058525
    96  H    0.029631
    97  H    0.073871
    98  H    0.070150
    99  H    0.056380
   100  H    0.068072
   101  H    0.065986
   102  H    0.073453
   103  H    0.060143
   104  H    0.044618
   105  H    0.061548
   106  H    0.031824
   107  H    0.053144
   108  H    0.010382
   109  H    0.034195
   110  H    0.025541
   111  H    0.033750
   112  H    0.029668
   113  H    0.019035
   114  H    0.034710
   115  H    0.037072
   116  H    0.020619
   117  H    0.027750
   118  H    0.018670
   119  H    0.028157
   120  H    0.024781
   121  H    0.026649
   122  H    0.037307
   123  H    0.031597
   124  H    0.035594
   125  H    0.031538
   126  H    0.035789
   127  H    0.029511
   128  H    0.024185
   129  H    0.016468
   130  H    0.037138
   131  H    0.028965
   132  H    0.034730
   133  H    0.042565
   134  H    0.038099
   135  H    0.026604
   136  H    0.051293
   137  H    0.025106
   138  H    0.038454
   139  H    0.035379
   140  H    0.048389
 Sum of Mulliken charges =  -0.00000

 Dipole moment (field-independent basis, Debye):
    X=             -5.0508    Y=              3.5684    Z=              0.7678  Tot=              6.2317
 Quadrupole moment (field-independent basis, Debye-Ang):
   XX=           -387.3728   YY=           -436.9851   ZZ=           -398.6907
   XY=             21.5171   XZ=              9.8298   YZ=              3.4804

 Normal termination of Gaussian 16 at Thu May  5 10:10:09 2022.
