 Gaussian 16, Revision A.03,
 Gaussian 16:  ES64L-G16RevA.03 25-Dec-2016

 --------------------------------
 #p wB97XD/Def2SVP td=(nstates=5)
 --------------------------------

 ----------------------------------------------------
 step_801_chromophore_21 TDDFT with wB97XD functional
 ----------------------------------------------------
 Symbolic Z-matrix:
 Charge =  0 Multiplicity = 1

                         Standard orientation:
 ---------------------------------------------------------------------
 Center     Atomic      Atomic             Coordinates (Angstroms)
 Number     Number       Type             X           Y           Z
 ---------------------------------------------------------------------
      1         12           0        4.875688    1.073005    0.166559
      2          6           0        4.333010   -2.237330    0.392115
      3          6           0        1.525911    1.461266   -0.997133
      4          6           0        5.300128    4.365798   -0.166082
      5          6           0        8.258411    0.586294    0.265977
      6          7           0        3.175354   -0.248422   -0.308736
      7          6           0        3.161900   -1.533767    0.025825
      8          6           0        1.743856   -2.161980    0.210706
      9          6           0        0.969977   -1.009335   -0.484596
     10          6           0        1.903253    0.157756   -0.557965
     11          6           0        0.302577   -1.430490   -1.824063
     12          6           0        1.294690   -2.383346    1.681834
     13          6           0        0.431876   -3.668652    2.023069
     14          6           0       -0.383224   -4.281694    0.852960
     15          8           0       -0.233590   -5.406764    0.366708
     16          8           0       -1.369102   -3.354248    0.494601
     17          7           0        3.507152    2.711516   -0.283739
     18          6           0        2.165179    2.638456   -0.699855
     19          6           0        1.584419    4.035409   -0.656158
     20          6           0        2.705715    4.914698   -0.437913
     21          6           0        3.896817    4.021812   -0.239114
     22          6           0        0.081126    4.402789   -0.726545
     23          6           0        2.786985    6.459560   -0.362890
     24          8           0        3.834097    7.114349   -0.302208
     25          6           0        1.583613    7.246937   -0.433364
     26          7           0        6.554185    2.305533    0.049140
     27          6           0        6.449730    3.607178   -0.085669
     28          6           0        7.824680    4.233503   -0.077352
     29          6           0        8.820670    3.020352    0.207026
     30          6           0        7.777448    1.911002    0.172396
     31          6           0        8.218500    4.945992   -1.422524
     32          6           0        9.591976    3.291982    1.471929
     33          6           0       11.178441    3.410018    1.289275
     34          7           0        6.055340   -0.499299    0.341233
     35          6           0        7.478301   -0.599304    0.391461
     36          6           0        7.858039   -1.975740    0.597290
     37          6           0        6.638575   -2.627508    0.613749
     38          6           0        5.624377   -1.709610    0.324793
     39          6           0        9.269824   -2.499656    0.784702
     40          6           0        6.089992   -3.948362    0.774441
     41          8           0        6.623812   -5.027048    1.000868
     42          6           0        4.550768   -3.728377    0.625125
     43          6           0        4.007622   -4.533635   -0.491088
     44          8           0        3.902514   -4.278319   -1.668397
     45          8           0        3.778610   -5.775251    0.027281
     46          6           0        3.108364   -6.790968   -0.823612
     47          6           0       -2.276292   -3.830937   -0.528385
     48          6           0       -3.265964   -2.716131   -0.802015
     49          6           0       -4.055070   -2.664302   -1.916776
     50          6           0       -4.159442   -3.619594   -3.100944
     51          6           0       -4.772225   -1.329730   -2.134702
     52          6           0       -5.792444   -0.955261   -1.037584
     53          6           0       -7.054534   -1.796413   -1.195892
     54          6           0       -7.715934   -2.004197    0.175574
     55          6           0       -7.321777   -3.429612    0.650940
     56          6           0       -9.230956   -1.639910    0.078750
     57          6           0       -9.483418   -0.121406    0.116440
     58          6           0      -10.799928    0.197251    0.816141
     59          6           0      -10.462331    1.318740    1.903250
     60          6           0       -9.829346    0.590276    3.149333
     61          6           0      -11.770883    1.964080    2.283838
     62          6           0      -12.371243    2.845430    1.169142
     63          6           0      -13.954042    2.687917    0.940804
     64          6           0      -14.333282    3.028247   -0.501131
     65          6           0      -15.761341    3.693068   -0.585918
     66          6           0      -14.103619    1.649014   -1.393968
     67          1           0        0.471293    1.574397   -1.257496
     68          1           0        5.378573    5.448241   -0.287393
     69          1           0        9.332704    0.413172    0.180324
     70          1           0        1.731561   -3.107653   -0.331480
     71          1           0        0.077478   -0.663500    0.037183
     72          1           0        0.268615   -2.518461   -1.883782
     73          1           0        0.769339   -1.025914   -2.722413
     74          1           0       -0.751405   -1.152317   -1.822813
     75          1           0        0.547521   -1.608788    1.855750
     76          1           0        2.118310   -2.355035    2.395253
     77          1           0       -0.266489   -3.472115    2.836037
     78          1           0        1.120316   -4.491399    2.216192
     79          1           0       -0.138789    5.079284   -1.551998
     80          1           0       -0.119045    4.974304    0.180097
     81          1           0       -0.520264    3.499568   -0.836648
     82          1           0        0.909128    6.929080    0.361232
     83          1           0        1.047416    6.956860   -1.336507
     84          1           0        1.809915    8.311256   -0.510349
     85          1           0        7.652722    4.835176    0.814377
     86          1           0        9.519896    2.787607   -0.595732
     87          1           0        7.503894    4.713186   -2.211562
     88          1           0        9.160455    4.608835   -1.856389
     89          1           0        8.331650    6.021537   -1.287202
     90          1           0        9.380773    2.565840    2.256958
     91          1           0        9.262730    4.262241    1.844687
     92          1           0       11.633892    2.916383    2.147469
     93          1           0       11.415330    4.449246    1.059937
     94          1           0       11.475763    2.813542    0.426766
     95          1           0        9.315643   -3.220534    1.601808
     96          1           0        9.835320   -1.670215    1.210109
     97          1           0        9.700981   -2.865812   -0.147122
     98          1           0        4.044800   -4.152998    1.492716
     99          1           0        2.692822   -6.240221   -1.667159
    100          1           0        2.237308   -7.317908   -0.434016
    101          1           0        3.902667   -7.483586   -1.103269
    102          1           0       -2.828819   -4.732379   -0.262959
    103          1           0       -1.678812   -3.928820   -1.434896
    104          1           0       -3.162404   -1.874459   -0.117246
    105          1           0       -5.139523   -4.064651   -3.271291
    106          1           0       -3.376858   -4.359155   -2.926531
    107          1           0       -3.894469   -3.152455   -4.049743
    108          1           0       -5.270734   -1.398076   -3.101510
    109          1           0       -4.028163   -0.557263   -2.328503
    110          1           0       -6.010020    0.105735   -1.164170
    111          1           0       -5.383707   -1.001741   -0.027718
    112          1           0       -6.914036   -2.709572   -1.774725
    113          1           0       -7.722261   -1.220992   -1.837264
    114          1           0       -7.280089   -1.338595    0.921554
    115          1           0       -6.597327   -3.903057   -0.012053
    116          1           0       -8.194937   -4.079954    0.699689
    117          1           0       -6.949933   -3.505114    1.672059
    118          1           0       -9.701766   -2.127009    0.933174
    119          1           0       -9.693757   -2.062184   -0.813004
    120          1           0       -9.454502    0.319243   -0.879766
    121          1           0       -8.587669    0.305110    0.567980
    122          1           0      -11.223422   -0.721006    1.222607
    123          1           0      -11.478415    0.559982    0.044538
    124          1           0       -9.823242    2.146680    1.597693
    125          1           0       -8.952521    1.117231    3.526929
    126          1           0       -9.521719   -0.449229    3.035650
    127          1           0      -10.552946    0.570987    3.964372
    128          1           0      -11.624578    2.518050    3.212091
    129          1           0      -12.479887    1.154884    2.454127
    130          1           0      -11.753180    2.757780    0.274657
    131          1           0      -12.208913    3.846493    1.567804
    132          1           0      -14.361286    3.435447    1.620947
    133          1           0      -14.384512    1.709971    1.154217
    134          1           0      -13.722169    3.764976   -1.023958
    135          1           0      -16.402332    3.141248   -1.272917
    136          1           0      -15.667912    4.759328   -0.791535
    137          1           0      -16.263265    3.506412    0.363811
    138          1           0      -15.007584    1.344482   -1.920937
    139          1           0      -13.903247    0.875707   -0.652011
    140          1           0      -13.211831    1.744074   -2.013444
 ---------------------------------------------------------------------

 SCF Done:  E(RwB97XD) =  -3007.85825261     A.U. after   20 cycles

 Excitation energies and oscillator strengths:

 Excited State   1:      Singlet-A      1.6517 eV  750.64 nm  f=0.3841  <S**2>=0.000
     245 -> 248       -0.19667
     246 -> 247        0.68080
     245 <- 248       -0.11912
 This state for optimization and/or second-order correction.
 Total Energy, E(TD-HF/TD-DFT) =  -3007.79755308
 Copying the excited state density for this state as the 1-particle RhoCI density.

 Excited State   2:      Singlet-A      2.1919 eV  565.64 nm  f=0.0671  <S**2>=0.000
     245 -> 247        0.61603
     246 -> 248        0.33623

 Excited State   3:      Singlet-A      3.3923 eV  365.49 nm  f=0.6043  <S**2>=0.000
     241 -> 247        0.10755
     242 -> 247       -0.20259
     245 -> 247       -0.29569
     246 -> 248        0.58782
     245 <- 247        0.11154

 Excited State   4:      Singlet-A      3.4960 eV  354.64 nm  f=0.0197  <S**2>=0.000
     241 -> 247       -0.11005
     242 -> 249       -0.16396
     244 -> 247        0.63128

 Excited State   5:      Singlet-A      3.5870 eV  345.65 nm  f=0.0853  <S**2>=0.000
     241 -> 247        0.23960
     241 -> 249        0.19084
     241 -> 250        0.14215
     242 -> 247        0.48064
     242 -> 249        0.17360
     242 -> 250        0.14824
     244 -> 247        0.17053
     245 -> 247       -0.10977
     246 -> 248        0.13645

 The electronic state is 1-A.
 Alpha  occ. eigenvalues --  -46.94615 -19.31370 -19.28384 -19.26571 -19.24021
 Alpha  occ. eigenvalues --  -19.23869 -19.23572 -14.46813 -14.45978 -14.44169
 Alpha  occ. eigenvalues --  -14.43214 -10.44560 -10.41939 -10.39286 -10.38400
 Alpha  occ. eigenvalues --  -10.36191 -10.35239 -10.34845 -10.34806 -10.34703
 Alpha  occ. eigenvalues --  -10.34420 -10.34039 -10.33952 -10.33941 -10.33435
 Alpha  occ. eigenvalues --  -10.32541 -10.32423 -10.32354 -10.32269 -10.32106
 Alpha  occ. eigenvalues --  -10.31756 -10.31656 -10.31626 -10.31565 -10.31457
 Alpha  occ. eigenvalues --  -10.31161 -10.31154 -10.30968 -10.30811 -10.30767
 Alpha  occ. eigenvalues --  -10.30527 -10.30520 -10.30256 -10.30131 -10.29923
 Alpha  occ. eigenvalues --  -10.29921 -10.29830 -10.29744 -10.29716 -10.29556
 Alpha  occ. eigenvalues --  -10.29549 -10.29536 -10.29480 -10.29361 -10.29328
 Alpha  occ. eigenvalues --  -10.29010 -10.28976 -10.28858 -10.28626 -10.28545
 Alpha  occ. eigenvalues --  -10.28545 -10.28408 -10.28391 -10.28191 -10.28160
 Alpha  occ. eigenvalues --  -10.28007  -3.20747  -1.94330  -1.93879  -1.93728
 Alpha  occ. eigenvalues --   -1.18750  -1.17467  -1.11983  -1.11313  -1.11027
 Alpha  occ. eigenvalues --   -1.08896  -1.08502  -1.07256  -1.06097  -1.03444
 Alpha  occ. eigenvalues --   -0.94283  -0.92730  -0.91814  -0.91514  -0.90761
 Alpha  occ. eigenvalues --   -0.90383  -0.90302  -0.89496  -0.88959  -0.88731
 Alpha  occ. eigenvalues --   -0.88633  -0.87619  -0.86160  -0.85208  -0.85033
 Alpha  occ. eigenvalues --   -0.84389  -0.83845  -0.83058  -0.82478  -0.82244
 Alpha  occ. eigenvalues --   -0.81523  -0.80376  -0.80134  -0.78741  -0.77919
 Alpha  occ. eigenvalues --   -0.77692  -0.77196  -0.76933  -0.76673  -0.75928
 Alpha  occ. eigenvalues --   -0.75150  -0.74569  -0.73861  -0.72468  -0.71260
 Alpha  occ. eigenvalues --   -0.70476  -0.70079  -0.69213  -0.68951  -0.68381
 Alpha  occ. eigenvalues --   -0.67697  -0.67670  -0.66587  -0.66363  -0.66105
 Alpha  occ. eigenvalues --   -0.65892  -0.65162  -0.64221  -0.63003  -0.62288
 Alpha  occ. eigenvalues --   -0.61942  -0.61232  -0.61061  -0.60485  -0.59776
 Alpha  occ. eigenvalues --   -0.59196  -0.58923  -0.58264  -0.58098  -0.57562
 Alpha  occ. eigenvalues --   -0.57280  -0.56871  -0.56578  -0.55976  -0.55751
 Alpha  occ. eigenvalues --   -0.55524  -0.55479  -0.55271  -0.54914  -0.54688
 Alpha  occ. eigenvalues --   -0.54595  -0.54428  -0.54174  -0.53889  -0.53701
 Alpha  occ. eigenvalues --   -0.53420  -0.53081  -0.53029  -0.52586  -0.52338
 Alpha  occ. eigenvalues --   -0.52086  -0.51942  -0.51870  -0.51654  -0.51380
 Alpha  occ. eigenvalues --   -0.51231  -0.51032  -0.50932  -0.50718  -0.50684
 Alpha  occ. eigenvalues --   -0.50518  -0.50298  -0.50035  -0.50018  -0.49802
 Alpha  occ. eigenvalues --   -0.49644  -0.49142  -0.48842  -0.48756  -0.48641
 Alpha  occ. eigenvalues --   -0.48510  -0.48355  -0.48252  -0.47804  -0.47734
 Alpha  occ. eigenvalues --   -0.47516  -0.47424  -0.47323  -0.46924  -0.46791
 Alpha  occ. eigenvalues --   -0.46646  -0.46583  -0.46403  -0.46330  -0.46206
 Alpha  occ. eigenvalues --   -0.46163  -0.45926  -0.45319  -0.45213  -0.45123
 Alpha  occ. eigenvalues --   -0.45039  -0.44749  -0.44739  -0.44653  -0.44069
 Alpha  occ. eigenvalues --   -0.44019  -0.43762  -0.43247  -0.43133  -0.42941
 Alpha  occ. eigenvalues --   -0.42876  -0.42744  -0.42591  -0.41828  -0.41768
 Alpha  occ. eigenvalues --   -0.41520  -0.41414  -0.41301  -0.40589  -0.40477
 Alpha  occ. eigenvalues --   -0.40360  -0.40234  -0.39785  -0.39667  -0.39534
 Alpha  occ. eigenvalues --   -0.39492  -0.39052  -0.38389  -0.38248  -0.37769
 Alpha  occ. eigenvalues --   -0.37604  -0.37356  -0.37023  -0.36933  -0.36195
 Alpha  occ. eigenvalues --   -0.35926  -0.35866  -0.35224  -0.33359  -0.33248
 Alpha  occ. eigenvalues --   -0.32672  -0.32224  -0.31976  -0.31759  -0.25817
 Alpha  occ. eigenvalues --   -0.22378
 Alpha virt. eigenvalues --   -0.06513   0.00155   0.02283   0.04616   0.05417
 Alpha virt. eigenvalues --    0.05524   0.06615   0.08009   0.08760   0.09877
 Alpha virt. eigenvalues --    0.10530   0.11271   0.11824   0.12067   0.12433

 Mulliken charges:
               1
     1  Mg   0.989920
     2  C   -0.040916
     3  C   -0.059645
     4  C   -0.067132
     5  C   -0.103371
     6  N   -0.317562
     7  C    0.032467
     8  C   -0.105876
     9  C   -0.106692
    10  C    0.068162
    11  C    0.023978
    12  C    0.042112
    13  C    0.002907
    14  C    0.196334
    15  O   -0.261068
    16  O   -0.385835
    17  N   -0.438213
    18  C    0.131098
    19  C   -0.159816
    20  C   -0.096948
    21  C    0.095591
    22  C    0.064267
    23  C    0.070791
    24  O   -0.247634
    25  C    0.010339
    26  N   -0.312765
    27  C    0.074102
    28  C   -0.099921
    29  C   -0.087351
    30  C    0.056785
    31  C    0.030654
    32  C   -0.003436
    33  C   -0.061715
    34  N   -0.485194
    35  C    0.112864
    36  C   -0.179772
    37  C   -0.061924
    38  C    0.172036
    39  C    0.093737
    40  C    0.143027
    41  O   -0.194123
    42  C   -0.094832
    43  C    0.240290
    44  O   -0.238257
    45  O   -0.375757
    46  C    0.130008
    47  C    0.241595
    48  C   -0.163341
    49  C   -0.201088
    50  C    0.038357
    51  C    0.022301
    52  C   -0.014107
    53  C    0.018131
    54  C   -0.197982
    55  C    0.014274
    56  C    0.000869
    57  C   -0.012881
    58  C    0.008677
    59  C   -0.207057
    60  C   -0.001129
    61  C    0.028907
    62  C   -0.042555
    63  C    0.011917
    64  C   -0.247480
    65  C    0.004215
    66  C   -0.026082
    67  H   -0.009166
    68  H    0.018160
    69  H   -0.000699
    70  H    0.058790
    71  H    0.032599
    72  H    0.033758
    73  H    0.048426
    74  H    0.026685
    75  H    0.038323
    76  H    0.054718
    77  H    0.070784
    78  H    0.058015
    79  H    0.053317
    80  H    0.055852
    81  H    0.042479
    82  H    0.047218
    83  H    0.041137
    84  H    0.065591
    85  H    0.049886
    86  H    0.034854
    87  H    0.043242
    88  H    0.027998
    89  H    0.048258
    90  H    0.029594
    91  H    0.029571
    92  H    0.046471
    93  H    0.050592
    94  H    0.024198
    95  H    0.054284
    96  H    0.022594
    97  H    0.069825
    98  H    0.062665
    99  H    0.051883
   100  H    0.065866
   101  H    0.062307
   102  H    0.069510
   103  H    0.051648
   104  H    0.041148
   105  H    0.057131
   106  H    0.025207
   107  H    0.047861
   108  H    0.001193
   109  H    0.027016
   110  H    0.018466
   111  H    0.022344
   112  H    0.017107
   113  H    0.008631
   114  H    0.019924
   115  H    0.027995
   116  H    0.014816
   117  H    0.022990
   118  H    0.007425
   119  H    0.020031
   120  H    0.017715
   121  H    0.012516
   122  H    0.028342
   123  H    0.015468
   124  H    0.024964
   125  H    0.026502
   126  H    0.028055
   127  H    0.023646
   128  H    0.016740
   129  H    0.003368
   130  H    0.025875
   131  H    0.021386
   132  H    0.026093
   133  H    0.033109
   134  H    0.027926
   135  H    0.020414
   136  H    0.046624
   137  H    0.017895
   138  H    0.033434
   139  H    0.025049
   140  H    0.043115
 Sum of Mulliken charges =  -0.00000

 Dipole moment (field-independent basis, Debye):
    X=             -5.4067    Y=              3.8203    Z=              0.7620  Tot=              6.6639
 Quadrupole moment (field-independent basis, Debye-Ang):
   XX=           -390.5189   YY=           -434.8747   ZZ=           -398.2896
   XY=             21.3788   XZ=              9.8076   YZ=              3.2437

 Normal termination of Gaussian 16 at Thu May  5 10:52:19 2022.
