 Gaussian 16, Revision A.03,
 Gaussian 16:  ES64L-G16RevA.03 25-Dec-2016

 --------------------
 #p ZINDO=(nstates=5)
 --------------------

 -----------------------------
 step_801_chromophore_21 ZINDO
 -----------------------------
 Symbolic Z-matrix:
 Charge =  0 Multiplicity = 1

                         Standard orientation:
 ---------------------------------------------------------------------
 Center     Atomic      Atomic             Coordinates (Angstroms)
 Number     Number       Type             X           Y           Z
 ---------------------------------------------------------------------
      1         12           0        4.875688    1.073005    0.166559
      2          6           0        4.333010   -2.237330    0.392115
      3          6           0        1.525911    1.461266   -0.997133
      4          6           0        5.300128    4.365798   -0.166082
      5          6           0        8.258411    0.586294    0.265977
      6          7           0        3.175354   -0.248422   -0.308736
      7          6           0        3.161900   -1.533767    0.025825
      8          6           0        1.743856   -2.161980    0.210706
      9          6           0        0.969977   -1.009335   -0.484596
     10          6           0        1.903253    0.157756   -0.557965
     11          6           0        0.302577   -1.430490   -1.824063
     12          6           0        1.294690   -2.383346    1.681834
     13          6           0        0.431876   -3.668652    2.023069
     14          6           0       -0.383224   -4.281694    0.852960
     15          8           0       -0.233590   -5.406764    0.366708
     16          8           0       -1.369102   -3.354248    0.494601
     17          7           0        3.507152    2.711516   -0.283739
     18          6           0        2.165179    2.638456   -0.699855
     19          6           0        1.584419    4.035409   -0.656158
     20          6           0        2.705715    4.914698   -0.437913
     21          6           0        3.896817    4.021812   -0.239114
     22          6           0        0.081126    4.402789   -0.726545
     23          6           0        2.786985    6.459560   -0.362890
     24          8           0        3.834097    7.114349   -0.302208
     25          6           0        1.583613    7.246937   -0.433364
     26          7           0        6.554185    2.305533    0.049140
     27          6           0        6.449730    3.607178   -0.085669
     28          6           0        7.824680    4.233503   -0.077352
     29          6           0        8.820670    3.020352    0.207026
     30          6           0        7.777448    1.911002    0.172396
     31          6           0        8.218500    4.945992   -1.422524
     32          6           0        9.591976    3.291982    1.471929
     33          6           0       11.178441    3.410018    1.289275
     34          7           0        6.055340   -0.499299    0.341233
     35          6           0        7.478301   -0.599304    0.391461
     36          6           0        7.858039   -1.975740    0.597290
     37          6           0        6.638575   -2.627508    0.613749
     38          6           0        5.624377   -1.709610    0.324793
     39          6           0        9.269824   -2.499656    0.784702
     40          6           0        6.089992   -3.948362    0.774441
     41          8           0        6.623812   -5.027048    1.000868
     42          6           0        4.550768   -3.728377    0.625125
     43          6           0        4.007622   -4.533635   -0.491088
     44          8           0        3.902514   -4.278319   -1.668397
     45          8           0        3.778610   -5.775251    0.027281
     46          6           0        3.108364   -6.790968   -0.823612
     47          6           0       -2.276292   -3.830937   -0.528385
     48          6           0       -3.265964   -2.716131   -0.802015
     49          6           0       -4.055070   -2.664302   -1.916776
     50          6           0       -4.159442   -3.619594   -3.100944
     51          6           0       -4.772225   -1.329730   -2.134702
     52          6           0       -5.792444   -0.955261   -1.037584
     53          6           0       -7.054534   -1.796413   -1.195892
     54          6           0       -7.715934   -2.004197    0.175574
     55          6           0       -7.321777   -3.429612    0.650940
     56          6           0       -9.230956   -1.639910    0.078750
     57          6           0       -9.483418   -0.121406    0.116440
     58          6           0      -10.799928    0.197251    0.816141
     59          6           0      -10.462331    1.318740    1.903250
     60          6           0       -9.829346    0.590276    3.149333
     61          6           0      -11.770883    1.964080    2.283838
     62          6           0      -12.371243    2.845430    1.169142
     63          6           0      -13.954042    2.687917    0.940804
     64          6           0      -14.333282    3.028247   -0.501131
     65          6           0      -15.761341    3.693068   -0.585918
     66          6           0      -14.103619    1.649014   -1.393968
     67          1           0        0.471293    1.574397   -1.257496
     68          1           0        5.378573    5.448241   -0.287393
     69          1           0        9.332704    0.413172    0.180324
     70          1           0        1.731561   -3.107653   -0.331480
     71          1           0        0.077478   -0.663500    0.037183
     72          1           0        0.268615   -2.518461   -1.883782
     73          1           0        0.769339   -1.025914   -2.722413
     74          1           0       -0.751405   -1.152317   -1.822813
     75          1           0        0.547521   -1.608788    1.855750
     76          1           0        2.118310   -2.355035    2.395253
     77          1           0       -0.266489   -3.472115    2.836037
     78          1           0        1.120316   -4.491399    2.216192
     79          1           0       -0.138789    5.079284   -1.551998
     80          1           0       -0.119045    4.974304    0.180097
     81          1           0       -0.520264    3.499568   -0.836648
     82          1           0        0.909128    6.929080    0.361232
     83          1           0        1.047416    6.956860   -1.336507
     84          1           0        1.809915    8.311256   -0.510349
     85          1           0        7.652722    4.835176    0.814377
     86          1           0        9.519896    2.787607   -0.595732
     87          1           0        7.503894    4.713186   -2.211562
     88          1           0        9.160455    4.608835   -1.856389
     89          1           0        8.331650    6.021537   -1.287202
     90          1           0        9.380773    2.565840    2.256958
     91          1           0        9.262730    4.262241    1.844687
     92          1           0       11.633892    2.916383    2.147469
     93          1           0       11.415330    4.449246    1.059937
     94          1           0       11.475763    2.813542    0.426766
     95          1           0        9.315643   -3.220534    1.601808
     96          1           0        9.835320   -1.670215    1.210109
     97          1           0        9.700981   -2.865812   -0.147122
     98          1           0        4.044800   -4.152998    1.492716
     99          1           0        2.692822   -6.240221   -1.667159
    100          1           0        2.237308   -7.317908   -0.434016
    101          1           0        3.902667   -7.483586   -1.103269
    102          1           0       -2.828819   -4.732379   -0.262959
    103          1           0       -1.678812   -3.928820   -1.434896
    104          1           0       -3.162404   -1.874459   -0.117246
    105          1           0       -5.139523   -4.064651   -3.271291
    106          1           0       -3.376858   -4.359155   -2.926531
    107          1           0       -3.894469   -3.152455   -4.049743
    108          1           0       -5.270734   -1.398076   -3.101510
    109          1           0       -4.028163   -0.557263   -2.328503
    110          1           0       -6.010020    0.105735   -1.164170
    111          1           0       -5.383707   -1.001741   -0.027718
    112          1           0       -6.914036   -2.709572   -1.774725
    113          1           0       -7.722261   -1.220992   -1.837264
    114          1           0       -7.280089   -1.338595    0.921554
    115          1           0       -6.597327   -3.903057   -0.012053
    116          1           0       -8.194937   -4.079954    0.699689
    117          1           0       -6.949933   -3.505114    1.672059
    118          1           0       -9.701766   -2.127009    0.933174
    119          1           0       -9.693757   -2.062184   -0.813004
    120          1           0       -9.454502    0.319243   -0.879766
    121          1           0       -8.587669    0.305110    0.567980
    122          1           0      -11.223422   -0.721006    1.222607
    123          1           0      -11.478415    0.559982    0.044538
    124          1           0       -9.823242    2.146680    1.597693
    125          1           0       -8.952521    1.117231    3.526929
    126          1           0       -9.521719   -0.449229    3.035650
    127          1           0      -10.552946    0.570987    3.964372
    128          1           0      -11.624578    2.518050    3.212091
    129          1           0      -12.479887    1.154884    2.454127
    130          1           0      -11.753180    2.757780    0.274657
    131          1           0      -12.208913    3.846493    1.567804
    132          1           0      -14.361286    3.435447    1.620947
    133          1           0      -14.384512    1.709971    1.154217
    134          1           0      -13.722169    3.764976   -1.023958
    135          1           0      -16.402332    3.141248   -1.272917
    136          1           0      -15.667912    4.759328   -0.791535
    137          1           0      -16.263265    3.506412    0.363811
    138          1           0      -15.007584    1.344482   -1.920937
    139          1           0      -13.903247    0.875707   -0.652011
    140          1           0      -13.211831    1.744074   -2.013444
 ---------------------------------------------------------------------

 SCF Done:  E(RZINDO/S) =  -474.333618789     A.U. after   19 cycles

 Excitation energies and oscillator strengths:

 Excited State   1:      Singlet-A      1.2580 eV  985.54 nm  f=0.5873  <S**2>=0.000
     175 ->178        -0.20109
     176 ->177         0.66016
 This state for optimization and/or second-order correction.
 Total Energy, E(CIS/TDA) =  -474.287386802
 Copying the excited state density for this state as the 1-particle RhoCI density.

 Excited State   2:      Singlet-A      1.8956 eV  654.07 nm  f=0.0055  <S**2>=0.000
     175 ->177         0.49976
     176 ->178         0.47575

 Excited State   3:      Singlet-A      2.8688 eV  432.18 nm  f=0.4980  <S**2>=0.000
     175 ->177        -0.32820
     176 ->178         0.40073
     176 ->179        -0.38730
     176 ->181        -0.13328

 Excited State   4:      Singlet-A      2.9484 eV  420.51 nm  f=0.0242  <S**2>=0.000
     168 ->177         0.29186
     168 ->179        -0.42496
     168 ->180        -0.10391
     168 ->181         0.25700
     168 ->183        -0.10484
     168 ->184         0.13595
     168 ->186        -0.18335
     168 ->188         0.11755

 Excited State   5:      Singlet-A      3.0018 eV  413.03 nm  f=0.5892  <S**2>=0.000
     171 ->177        -0.10685
     175 ->177        -0.29003
     176 ->178         0.25590
     176 ->179         0.53635

 The electronic state is 1-A.
 Alpha  occ. eigenvalues --   -1.87551  -1.84860  -1.79941  -1.72706  -1.72627
 Alpha  occ. eigenvalues --   -1.69983  -1.66715  -1.61558  -1.59893  -1.57200
 Alpha  occ. eigenvalues --   -1.54016  -1.50631  -1.48570  -1.47832  -1.47103
 Alpha  occ. eigenvalues --   -1.45248  -1.42763  -1.39820  -1.38569  -1.38101
 Alpha  occ. eigenvalues --   -1.36047  -1.33374  -1.33063  -1.30941  -1.27898
 Alpha  occ. eigenvalues --   -1.27211  -1.24449  -1.22269  -1.20661  -1.18851
 Alpha  occ. eigenvalues --   -1.18328  -1.16212  -1.15602  -1.14751  -1.13106
 Alpha  occ. eigenvalues --   -1.12828  -1.11060  -1.09992  -1.05870  -1.03146
 Alpha  occ. eigenvalues --   -1.02336  -1.01154  -0.98001  -0.97541  -0.96806
 Alpha  occ. eigenvalues --   -0.96579  -0.95412  -0.94630  -0.93487  -0.92699
 Alpha  occ. eigenvalues --   -0.92062  -0.90033  -0.89297  -0.88016  -0.86199
 Alpha  occ. eigenvalues --   -0.85869  -0.85234  -0.83081  -0.82025  -0.79861
 Alpha  occ. eigenvalues --   -0.79396  -0.78619  -0.77339  -0.76178  -0.75684
 Alpha  occ. eigenvalues --   -0.75357  -0.74380  -0.74214  -0.73744  -0.73030
 Alpha  occ. eigenvalues --   -0.72705  -0.71921  -0.71563  -0.70601  -0.70587
 Alpha  occ. eigenvalues --   -0.70146  -0.69266  -0.69073  -0.68595  -0.67932
 Alpha  occ. eigenvalues --   -0.67405  -0.66980  -0.66511  -0.66195  -0.65829
 Alpha  occ. eigenvalues --   -0.65349  -0.64889  -0.64305  -0.63913  -0.63752
 Alpha  occ. eigenvalues --   -0.63481  -0.62760  -0.62417  -0.62212  -0.61701
 Alpha  occ. eigenvalues --   -0.60642  -0.60612  -0.60391  -0.60218  -0.60178
 Alpha  occ. eigenvalues --   -0.59794  -0.59393  -0.59034  -0.58825  -0.58577
 Alpha  occ. eigenvalues --   -0.58159  -0.57876  -0.57237  -0.57067  -0.56839
 Alpha  occ. eigenvalues --   -0.56175  -0.55640  -0.55350  -0.55180  -0.55056
 Alpha  occ. eigenvalues --   -0.54383  -0.54314  -0.53985  -0.53491  -0.52941
 Alpha  occ. eigenvalues --   -0.52878  -0.52484  -0.52223  -0.51751  -0.51524
 Alpha  occ. eigenvalues --   -0.51347  -0.51010  -0.50995  -0.50768  -0.50723
 Alpha  occ. eigenvalues --   -0.50308  -0.50131  -0.50087  -0.49874  -0.49123
 Alpha  occ. eigenvalues --   -0.48630  -0.48326  -0.48129  -0.47741  -0.47701
 Alpha  occ. eigenvalues --   -0.47655  -0.47320  -0.47124  -0.46632  -0.46485
 Alpha  occ. eigenvalues --   -0.46386  -0.46135  -0.45818  -0.45297  -0.45106
 Alpha  occ. eigenvalues --   -0.44996  -0.44897  -0.44466  -0.44041  -0.43730
 Alpha  occ. eigenvalues --   -0.43368  -0.43271  -0.43036  -0.42803  -0.41845
 Alpha  occ. eigenvalues --   -0.41532  -0.41037  -0.40543  -0.39567  -0.38609
 Alpha  occ. eigenvalues --   -0.37725  -0.36976  -0.35433  -0.34754  -0.34384
 Alpha  occ. eigenvalues --   -0.33280  -0.32419  -0.32068  -0.31931  -0.26426
 Alpha  occ. eigenvalues --   -0.21213
 Alpha virt. eigenvalues --   -0.07908  -0.02217  -0.00439   0.01220   0.01381
 Alpha virt. eigenvalues --    0.02314   0.03063   0.03554   0.03826   0.05022
 Alpha virt. eigenvalues --    0.06131   0.06724   0.07512   0.07715   0.08087

 Mulliken charges:
               1
     1  Mg   0.428380
     2  C   -0.063474
     3  C   -0.080678
     4  C   -0.082892
     5  C   -0.076389
     6  N   -0.264473
     7  C    0.115983
     8  C    0.003293
     9  C    0.013385
    10  C    0.156544
    11  C   -0.050526
    12  C   -0.022823
    13  C   -0.003271
    14  C    0.459384
    15  O   -0.506405
    16  O   -0.279122
    17  N   -0.345727
    18  C    0.123444
    19  C    0.005964
    20  C   -0.049138
    21  C    0.137619
    22  C   -0.038394
    23  C    0.336427
    24  O   -0.529401
    25  C   -0.023162
    26  N   -0.238106
    27  C    0.157356
    28  C   -0.006383
    29  C   -0.004885
    30  C    0.118168
    31  C   -0.049426
    32  C   -0.032949
    33  C   -0.066563
    34  N   -0.315260
    35  C    0.054755
    36  C    0.027630
    37  C   -0.055687
    38  C    0.130136
    39  C   -0.037574
    40  C    0.331718
    41  O   -0.522825
    42  C    0.055156
    43  C    0.492329
    44  O   -0.525909
    45  O   -0.276896
    46  C    0.066536
    47  C    0.101367
    48  C   -0.089525
    49  C   -0.017908
    50  C   -0.038563
    51  C   -0.028068
    52  C   -0.025685
    53  C   -0.027923
    54  C   -0.013940
    55  C   -0.061521
    56  C   -0.033094
    57  C   -0.038468
    58  C   -0.032728
    59  C   -0.010334
    60  C   -0.063715
    61  C   -0.036116
    62  C   -0.047579
    63  C   -0.026659
    64  C   -0.025700
    65  C   -0.063792
    66  C   -0.071896
    67  H    0.017720
    68  H    0.040768
    69  H    0.026782
    70  H    0.049848
    71  H    0.023982
    72  H    0.025431
    73  H    0.029059
    74  H    0.014770
    75  H    0.022712
    76  H    0.033625
    77  H    0.048791
    78  H    0.036294
    79  H    0.032620
    80  H    0.034039
    81  H    0.030658
    82  H    0.038765
    83  H    0.030952
    84  H    0.045681
    85  H    0.047367
    86  H    0.036362
    87  H    0.025880
    88  H    0.018110
    89  H    0.023696
    90  H    0.022051
    91  H    0.017270
    92  H    0.027715
    93  H    0.030191
    94  H    0.015329
    95  H    0.033712
    96  H    0.015576
    97  H    0.044513
    98  H    0.054803
    99  H    0.043481
   100  H    0.045414
   101  H    0.043443
   102  H    0.059027
   103  H    0.050864
   104  H    0.040999
   105  H    0.036859
   106  H    0.018240
   107  H    0.027972
   108  H    0.009187
   109  H    0.016998
   110  H    0.010001
   111  H    0.023865
   112  H    0.026903
   113  H    0.007659
   114  H    0.021284
   115  H    0.021303
   116  H    0.012144
   117  H    0.015285
   118  H    0.012621
   119  H    0.019368
   120  H    0.014516
   121  H    0.017724
   122  H    0.031891
   123  H    0.018493
   124  H    0.031795
   125  H    0.012848
   126  H    0.020828
   127  H    0.015132
   128  H    0.014491
   129  H    0.013387
   130  H    0.026738
   131  H    0.012003
   132  H    0.014128
   133  H    0.032953
   134  H    0.019906
   135  H    0.019999
   136  H    0.028599
   137  H    0.014570
   138  H    0.026350
   139  H    0.016305
   140  H    0.025336
 Sum of Mulliken charges =  -0.00000

 Dipole moment (field-independent basis, Debye):
    X=             -8.2047    Y=              5.9731    Z=              1.5732  Tot=             10.2699
 N-N= 4.381929427367D+03 E-N= 0.000000000000D+00  KE=-9.438223826040D+03
 Leave Link  601 at Thu May  5 11:10:51 2022, MaxMem=  6710886400 cpu:               1.6 elap:               0.1
 (Enter /sw/apps/gaussian-16.0/g16/l9999.exe)
 1\1\GINC-BP1-COMPUTE183\SP\RZINDO CIS\STO-3G\C55H74Mg1N4O6\OF15641\05-
 May-2022\0\\#p ZINDO=(nstates=5)\\step_801_chromophore_21 ZINDO\\0,1\M
 g,0,16.442,51.518,25.203\C,0,18.027,50.463,27.974\C,0,13.528,52.082,27
 .182\C,0,14.732,52.526,22.521\C,0,18.801,50.04,23.218\N,0,15.847,51.23
 1,27.307\C,0,16.727,50.942,28.259\C,0,16.319,51.379,29.702\C,0,14.823,
 51.632,29.372\C,0,14.715,51.714,27.882\C,0,13.857,50.633,30.069\C,0,17
 .035,52.646,30.247\C,0,17.407,52.7,31.787\C,0,16.555,51.812,32.733\O,0

 Normal termination of Gaussian 16 at Thu May  5 11:10:52 2022.
