 Gaussian 16, Revision A.03,
 Gaussian 16:  ES64L-G16RevA.03 25-Dec-2016

 ------------------------------
 #p blyp/Def2SVP td=(nstates=5)
 ------------------------------

 --------------------------------------------------
 step_651_chromophore_19 TDDFT with blyp functional
 --------------------------------------------------
 Symbolic Z-matrix:
 Charge =  0 Multiplicity = 1

                         Standard orientation:
 ---------------------------------------------------------------------
 Center     Atomic      Atomic             Coordinates (Angstroms)
 Number     Number       Type             X           Y           Z
 ---------------------------------------------------------------------
      1         12           0       -6.003972    0.393709    0.089951
      2          6           0       -3.540354   -2.224213   -0.112494
      3          6           0       -3.592985    2.670977    0.340863
      4          6           0       -8.461880    2.759398    0.405902
      5          6           0       -8.432928   -2.037812   -0.358699
      6          7           0       -3.786021    0.139304    0.228307
      7          6           0       -2.996626   -0.939913    0.040890
      8          6           0       -1.458604   -0.519018   -0.142282
      9          6           0       -1.548729    1.091781    0.122103
     10          6           0       -3.062829    1.354032    0.203187
     11          6           0       -0.821046    1.600274    1.438445
     12          6           0       -0.901824   -0.971434   -1.505192
     13          6           0        0.425923   -1.725289   -1.564392
     14          6           0        1.531720   -1.439031   -0.496919
     15          8           0        1.271644   -1.444219    0.702864
     16          8           0        2.809474   -1.363569   -1.052454
     17          7           0       -6.016489    2.484497    0.346995
     18          6           0       -4.886779    3.220981    0.402549
     19          6           0       -5.253514    4.573459    0.551363
     20          6           0       -6.696780    4.593694    0.634475
     21          6           0       -7.087518    3.272652    0.462943
     22          6           0       -4.229863    5.732695    0.705481
     23          6           0       -7.622717    5.698114    0.791943
     24          8           0       -8.817779    5.517115    0.925476
     25          6           0       -7.163980    7.041695    1.198380
     26          7           0       -8.056500    0.377663    0.260806
     27          6           0       -8.871590    1.443538    0.381720
     28          6           0      -10.366212    1.071704    0.225200
     29          6           0      -10.341315   -0.384472   -0.274539
     30          6           0       -8.838263   -0.753606   -0.048484
     31          6           0      -11.149834    1.330984    1.491613
     32          6           0      -10.848756   -0.561557   -1.739803
     33          6           0      -12.194310   -1.201419   -1.909185
     34          7           0       -6.016561   -1.667075   -0.158406
     35          6           0       -7.117433   -2.531391   -0.285392
     36          6           0       -6.676782   -3.872237   -0.468647
     37          6           0       -5.310620   -3.790247   -0.427671
     38          6           0       -4.925000   -2.462749   -0.232450
     39          6           0       -7.491779   -5.179712   -0.472317
     40          6           0       -4.048815   -4.537098   -0.413402
     41          8           0       -3.875228   -5.781697   -0.398079
     42          6           0       -2.854273   -3.562283   -0.361648
     43          6           0       -2.013930   -3.915176    0.720569
     44          8           0       -2.040485   -3.446726    1.849007
     45          8           0       -0.963149   -4.623585    0.178649
     46          6           0        0.271411   -4.853708    0.963656
     47          6           0        3.828657   -1.390806    0.004120
     48          6           0        5.153851   -1.167539   -0.737480
     49          6           0        6.331830   -1.008266   -0.098607
     50          6           0        6.526060   -0.984922    1.431830
     51          6           0        7.569400   -0.777638   -1.044357
     52          6           0        8.291994    0.631992   -1.013856
     53          6           0        8.290731    1.324765   -2.375352
     54          6           0        9.414116    2.339044   -2.549361
     55          6           0        8.946316    3.573759   -3.301413
     56          6           0       10.634954    1.707180   -3.308140
     57          6           0       12.101376    2.059726   -2.861381
     58          6           0       12.786459    0.757223   -2.308096
     59          6           0       13.638911    1.139814   -1.108126
     60          6           0       15.006915    0.444711   -1.135678
     61          6           0       12.829570    0.716679    0.229646
     62          6           0       13.476676    1.175702    1.627044
     63          6           0       13.955038    0.018077    2.569838
     64          6           0       12.920529   -0.443932    3.582838
     65          6           0       13.276433   -0.167255    5.068176
     66          6           0       12.377823   -1.836627    3.463270
     67          1           0       -2.850088    3.465156    0.245711
     68          1           0       -9.350357    3.376785    0.557045
     69          1           0       -9.210089   -2.725244   -0.699189
     70          1           0       -0.953632   -1.066117    0.653914
     71          1           0       -1.122886    1.679311   -0.692152
     72          1           0        0.092410    2.159327    1.238510
     73          1           0       -0.507500    0.846947    2.161732
     74          1           0       -1.406357    2.264584    2.074660
     75          1           0       -0.793184   -0.021325   -2.028634
     76          1           0       -1.706189   -1.554189   -1.955444
     77          1           0        0.920326   -1.699650   -2.535661
     78          1           0        0.208671   -2.789118   -1.472202
     79          1           0       -3.211980    5.473487    0.414422
     80          1           0       -4.311081    6.012245    1.756028
     81          1           0       -4.676046    6.441688    0.008685
     82          1           0       -6.623606    7.525544    0.384145
     83          1           0       -6.540819    6.798391    2.059307
     84          1           0       -8.024375    7.626789    1.524345
     85          1           0      -10.720662    1.809871   -0.493841
     86          1           0      -10.855656   -1.027603    0.439629
     87          1           0      -12.019645    1.917541    1.195679
     88          1           0      -10.706655    2.054515    2.175771
     89          1           0      -11.445177    0.424054    2.019902
     90          1           0      -10.113662   -1.184822   -2.249985
     91          1           0      -10.782692    0.405116   -2.237909
     92          1           0      -12.779079   -0.498380   -2.503514
     93          1           0      -12.673566   -1.420080   -0.954771
     94          1           0      -12.080009   -2.040663   -2.595881
     95          1           0       -8.533057   -4.945660   -0.695578
     96          1           0       -7.462374   -5.754970    0.452812
     97          1           0       -7.136753   -5.833269   -1.269112
     98          1           0       -2.413281   -3.612730   -1.356982
     99          1           0       -0.057455   -5.103971    1.971920
    100          1           0        0.978083   -4.023451    0.942748
    101          1           0        0.773048   -5.752001    0.604311
    102          1           0        3.734701   -2.332195    0.544484
    103          1           0        3.713131   -0.524767    0.656443
    104          1           0        5.142216   -1.242414   -1.824864
    105          1           0        7.569083   -1.132623    1.711255
    106          1           0        5.815636   -1.717854    1.815258
    107          1           0        6.133529   -0.031181    1.784223
    108          1           0        7.439765   -1.122039   -2.069924
    109          1           0        8.328572   -1.448650   -0.642163
    110          1           0        9.238715    0.590376   -0.475767
    111          1           0        7.644441    1.232919   -0.374529
    112          1           0        7.368338    1.904611   -2.361880
    113          1           0        8.221071    0.663916   -3.239064
    114          1           0        9.916161    2.589604   -1.614574
    115          1           0        9.805330    4.187424   -3.573671
    116          1           0        8.178505    4.156514   -2.792493
    117          1           0        8.473533    3.216185   -4.215783
    118          1           0       10.598267    1.988384   -4.359903
    119          1           0       10.534478    0.624216   -3.383539
    120          1           0       12.033660    2.879093   -2.146834
    121          1           0       12.640224    2.492222   -3.704796
    122          1           0       13.354314    0.423456   -3.177568
    123          1           0       12.066893    0.033733   -1.925797
    124          1           0       13.903178    2.197196   -1.104352
    125          1           0       15.288212    0.095184   -0.142600
    126          1           0       15.802945    1.134091   -1.417948
    127          1           0       15.105191   -0.371598   -1.851549
    128          1           0       12.775631   -0.372232    0.229032
    129          1           0       11.798996    1.038534    0.080087
    130          1           0       12.814043    1.794648    2.231817
    131          1           0       14.355281    1.785028    1.414068
    132          1           0       14.917177    0.185794    3.054455
    133          1           0       14.112562   -0.907643    2.017197
    134          1           0       12.079534    0.222693    3.393729
    135          1           0       12.509137    0.543594    5.374954
    136          1           0       14.294869    0.153058    5.289913
    137          1           0       13.153789   -1.075077    5.658332
    138          1           0       12.125285   -2.046754    2.423863
    139          1           0       11.416450   -2.009706    3.947093
    140          1           0       13.120426   -2.581453    3.749870
 ---------------------------------------------------------------------

 SCF Done:  E(RB-LYP) =  -3007.37517306     A.U. after   23 cycles

 Excitation energies and oscillator strengths:

 Excited State   1:      Singlet-A      1.5440 eV  803.01 nm  f=0.0010  <S**2>=0.000
     244 -> 247        0.68230
     245 -> 247        0.17020
 This state for optimization and/or second-order correction.
 Total Energy, E(TD-HF/TD-DFT) =  -3007.31843243
 Copying the excited state density for this state as the 1-particle RhoCI density.

 Excited State   2:      Singlet-A      1.8330 eV  676.42 nm  f=0.3151  <S**2>=0.000
     245 -> 248       -0.17803
     246 -> 247        0.68090
     246 <- 247       -0.15219

 Excited State   3:      Singlet-A      1.8486 eV  670.70 nm  f=0.0241  <S**2>=0.000
     243 -> 247        0.65277
     245 -> 247        0.23471
     246 -> 247       -0.11042

 Excited State   4:      Singlet-A      1.9933 eV  622.00 nm  f=0.1050  <S**2>=0.000
     243 -> 247       -0.25308
     244 -> 247       -0.14591
     245 -> 247        0.60221
     246 -> 248        0.18382
     245 <- 247       -0.10047

 Excited State   5:      Singlet-A      2.4245 eV  511.38 nm  f=0.0000  <S**2>=0.000
     241 -> 247        0.70705

 The electronic state is 1-A.
 Alpha  occ. eigenvalues --  -46.26306 -18.83531 -18.81229 -18.78473 -18.76496
 Alpha  occ. eigenvalues --  -18.75382 -18.74006 -14.03362 -14.02655 -14.00471
 Alpha  occ. eigenvalues --  -14.00166 -10.05489 -10.03408  -9.99666  -9.98710
 Alpha  occ. eigenvalues --   -9.98107  -9.97219  -9.96996  -9.96684  -9.96170
 Alpha  occ. eigenvalues --   -9.95256  -9.95152  -9.94921  -9.94787  -9.94589
 Alpha  occ. eigenvalues --   -9.94306  -9.94125  -9.93882  -9.93730  -9.93689
 Alpha  occ. eigenvalues --   -9.93675  -9.93553  -9.93544  -9.93397  -9.93364
 Alpha  occ. eigenvalues --   -9.93296  -9.93186  -9.93129  -9.92795  -9.92403
 Alpha  occ. eigenvalues --   -9.92396  -9.92336  -9.92284  -9.92213  -9.92211
 Alpha  occ. eigenvalues --   -9.92086  -9.92063  -9.92054  -9.91942  -9.91754
 Alpha  occ. eigenvalues --   -9.91643  -9.91437  -9.91423  -9.91417  -9.91380
 Alpha  occ. eigenvalues --   -9.91348  -9.91245  -9.91186  -9.91087  -9.91080
 Alpha  occ. eigenvalues --   -9.91051  -9.90913  -9.90691  -9.90660  -9.90595
 Alpha  occ. eigenvalues --   -9.90390  -2.90971  -1.71407  -1.70852  -1.70676
 Alpha  occ. eigenvalues --   -0.98515  -0.96840  -0.91305  -0.91251  -0.89533
 Alpha  occ. eigenvalues --   -0.89337  -0.86597  -0.85855  -0.84691  -0.84075
 Alpha  occ. eigenvalues --   -0.75795  -0.73516  -0.72851  -0.72440  -0.72301
 Alpha  occ. eigenvalues --   -0.72044  -0.71410  -0.71361  -0.70655  -0.70048
 Alpha  occ. eigenvalues --   -0.69672  -0.68603  -0.68106  -0.67922  -0.67036
 Alpha  occ. eigenvalues --   -0.66437  -0.65851  -0.65196  -0.64840  -0.64407
 Alpha  occ. eigenvalues --   -0.64213  -0.62495  -0.62148  -0.61752  -0.60982
 Alpha  occ. eigenvalues --   -0.60750  -0.60203  -0.59773  -0.59699  -0.58878
 Alpha  occ. eigenvalues --   -0.58252  -0.57872  -0.56464  -0.55544  -0.54198
 Alpha  occ. eigenvalues --   -0.54005  -0.53842  -0.52752  -0.52597  -0.51386
 Alpha  occ. eigenvalues --   -0.51272  -0.51084  -0.50527  -0.50440  -0.49999
 Alpha  occ. eigenvalues --   -0.49941  -0.49194  -0.48952  -0.48068  -0.46340
 Alpha  occ. eigenvalues --   -0.46246  -0.45867  -0.45513  -0.45212  -0.44513
 Alpha  occ. eigenvalues --   -0.43798  -0.43741  -0.42815  -0.42597  -0.42333
 Alpha  occ. eigenvalues --   -0.41635  -0.41352  -0.41112  -0.40931  -0.40870
 Alpha  occ. eigenvalues --   -0.40575  -0.40517  -0.40369  -0.40271  -0.40132
 Alpha  occ. eigenvalues --   -0.40011  -0.39957  -0.39877  -0.39589  -0.39366
 Alpha  occ. eigenvalues --   -0.39090  -0.38710  -0.38512  -0.38450  -0.38179
 Alpha  occ. eigenvalues --   -0.37947  -0.37881  -0.37746  -0.37408  -0.37230
 Alpha  occ. eigenvalues --   -0.37124  -0.36899  -0.36867  -0.36599  -0.36295
 Alpha  occ. eigenvalues --   -0.36160  -0.35929  -0.35818  -0.35469  -0.35424
 Alpha  occ. eigenvalues --   -0.35268  -0.35008  -0.34857  -0.34669  -0.34555
 Alpha  occ. eigenvalues --   -0.34519  -0.34323  -0.34150  -0.33969  -0.33806
 Alpha  occ. eigenvalues --   -0.33758  -0.33506  -0.33484  -0.32981  -0.32956
 Alpha  occ. eigenvalues --   -0.32869  -0.32843  -0.32510  -0.32443  -0.32231
 Alpha  occ. eigenvalues --   -0.32089  -0.31812  -0.31747  -0.31501  -0.31388
 Alpha  occ. eigenvalues --   -0.31137  -0.31005  -0.30962  -0.30906  -0.30574
 Alpha  occ. eigenvalues --   -0.30567  -0.30246  -0.30175  -0.29984  -0.29749
 Alpha  occ. eigenvalues --   -0.29624  -0.29219  -0.29212  -0.28934  -0.28764
 Alpha  occ. eigenvalues --   -0.28396  -0.28298  -0.28088  -0.27776  -0.27478
 Alpha  occ. eigenvalues --   -0.27420  -0.27326  -0.27289  -0.26928  -0.26762
 Alpha  occ. eigenvalues --   -0.26683  -0.26260  -0.26010  -0.25851  -0.25355
 Alpha  occ. eigenvalues --   -0.25040  -0.24952  -0.24575  -0.23852  -0.23761
 Alpha  occ. eigenvalues --   -0.23187  -0.22651  -0.21894  -0.21664  -0.20730
 Alpha  occ. eigenvalues --   -0.20606  -0.20045  -0.18419  -0.17325  -0.16927
 Alpha  occ. eigenvalues --   -0.15971
 Alpha virt. eigenvalues --   -0.11696  -0.05997  -0.05856  -0.04574  -0.04271
 Alpha virt. eigenvalues --   -0.02971  -0.02072  -0.01460  -0.00954   0.00585
 Alpha virt. eigenvalues --    0.01477   0.01640   0.01951   0.02724   0.02967

 Mulliken charges:
               1
     1  Mg   0.688701
     2  C   -0.004953
     3  C   -0.038856
     4  C   -0.045189
     5  C   -0.095041
     6  N   -0.215879
     7  C   -0.112764
     8  C    0.015198
     9  C    0.016647
    10  C    0.025526
    11  C    0.099416
    12  C    0.137790
    13  C    0.129711
    14  C    0.102570
    15  O   -0.204279
    16  O   -0.273293
    17  N   -0.243398
    18  C    0.123152
    19  C   -0.172021
    20  C    0.068553
    21  C    0.074204
    22  C    0.181460
    23  C   -0.129731
    24  O   -0.172651
    25  C    0.147118
    26  N   -0.251354
    27  C    0.012798
    28  C   -0.005596
    29  C    0.050690
    30  C    0.036762
    31  C    0.138072
    32  C    0.089977
    33  C    0.100017
    34  N   -0.266956
    35  C    0.142287
    36  C   -0.203473
    37  C    0.159330
    38  C    0.054603
    39  C    0.166616
    40  C   -0.102760
    41  O   -0.168659
    42  C    0.133439
    43  C    0.143691
    44  O   -0.172578
    45  O   -0.292526
    46  C    0.203423
    47  C    0.297130
    48  C   -0.116228
    49  C   -0.167918
    50  C    0.161138
    51  C    0.126313
    52  C    0.066421
    53  C    0.119052
    54  C   -0.047855
    55  C    0.114393
    56  C    0.060411
    57  C    0.046911
    58  C    0.133225
    59  C   -0.083279
    60  C    0.096785
    61  C    0.062492
    62  C    0.093511
    63  C    0.107708
    64  C   -0.102815
    65  C    0.104765
    66  C    0.113862
    67  H   -0.071622
    68  H   -0.041767
    69  H   -0.051946
    70  H    0.022003
    71  H   -0.020013
    72  H   -0.021260
    73  H    0.002767
    74  H   -0.015240
    75  H   -0.024334
    76  H   -0.016776
    77  H   -0.017440
    78  H    0.005381
    79  H   -0.006598
    80  H    0.019782
    81  H    0.005848
    82  H   -0.001270
    83  H    0.005645
    84  H   -0.008760
    85  H   -0.022049
    86  H   -0.033622
    87  H   -0.020697
    88  H   -0.007700
    89  H   -0.008350
    90  H   -0.029877
    91  H   -0.023015
    92  H   -0.017090
    93  H    0.003020
    94  H   -0.011234
    95  H   -0.027819
    96  H    0.019619
    97  H    0.003303
    98  H    0.019434
    99  H    0.018196
   100  H    0.026770
   101  H    0.008533
   102  H    0.017827
   103  H    0.007684
   104  H   -0.025991
   105  H    0.004359
   106  H    0.000899
   107  H    0.008625
   108  H   -0.030329
   109  H   -0.041524
   110  H   -0.020832
   111  H   -0.033686
   112  H   -0.042524
   113  H   -0.023339
   114  H   -0.039637
   115  H   -0.016646
   116  H   -0.015311
   117  H   -0.021691
   118  H   -0.055669
   119  H   -0.040277
   120  H   -0.027414
   121  H   -0.029769
   122  H   -0.025094
   123  H   -0.019407
   124  H   -0.029257
   125  H   -0.018402
   126  H   -0.028564
   127  H   -0.020605
   128  H   -0.021661
   129  H   -0.023449
   130  H   -0.024257
   131  H   -0.028157
   132  H   -0.039193
   133  H   -0.045352
   134  H   -0.047100
   135  H   -0.012994
   136  H   -0.015120
   137  H   -0.027707
   138  H   -0.035678
   139  H   -0.017268
   140  H   -0.013134
 Sum of Mulliken charges =  -0.00000

 Dipole moment (field-independent basis, Debye):
    X=              4.1777    Y=              2.4874    Z=             -2.7027  Tot=              5.5628
 Quadrupole moment (field-independent basis, Debye-Ang):
   XX=           -381.1755   YY=           -427.2445   ZZ=           -406.7651
   XY=              8.8079   XZ=             14.7205   YZ=              1.3875

 Normal termination of Gaussian 16 at Thu May  5 06:10:17 2022.
