 Gaussian 16, Revision A.03,
 Gaussian 16:  ES64L-G16RevA.03 25-Dec-2016

 -----------------------------------
 #p cam-b3lyp/Def2SVP td=(nstates=5)
 -----------------------------------

 -------------------------------------------------------
 step_651_chromophore_19 TDDFT with cam-b3lyp functional
 -------------------------------------------------------
 Symbolic Z-matrix:
 Charge =  0 Multiplicity = 1

                         Standard orientation:
 ---------------------------------------------------------------------
 Center     Atomic      Atomic             Coordinates (Angstroms)
 Number     Number       Type             X           Y           Z
 ---------------------------------------------------------------------
      1         12           0       -6.003972    0.393709    0.089951
      2          6           0       -3.540354   -2.224213   -0.112494
      3          6           0       -3.592985    2.670977    0.340863
      4          6           0       -8.461880    2.759398    0.405902
      5          6           0       -8.432928   -2.037812   -0.358699
      6          7           0       -3.786021    0.139304    0.228307
      7          6           0       -2.996626   -0.939913    0.040890
      8          6           0       -1.458604   -0.519018   -0.142282
      9          6           0       -1.548729    1.091781    0.122103
     10          6           0       -3.062829    1.354032    0.203187
     11          6           0       -0.821046    1.600274    1.438445
     12          6           0       -0.901824   -0.971434   -1.505192
     13          6           0        0.425923   -1.725289   -1.564392
     14          6           0        1.531720   -1.439031   -0.496919
     15          8           0        1.271644   -1.444219    0.702864
     16          8           0        2.809474   -1.363569   -1.052454
     17          7           0       -6.016489    2.484497    0.346995
     18          6           0       -4.886779    3.220981    0.402549
     19          6           0       -5.253514    4.573459    0.551363
     20          6           0       -6.696780    4.593694    0.634475
     21          6           0       -7.087518    3.272652    0.462943
     22          6           0       -4.229863    5.732695    0.705481
     23          6           0       -7.622717    5.698114    0.791943
     24          8           0       -8.817779    5.517115    0.925476
     25          6           0       -7.163980    7.041695    1.198380
     26          7           0       -8.056500    0.377663    0.260806
     27          6           0       -8.871590    1.443538    0.381720
     28          6           0      -10.366212    1.071704    0.225200
     29          6           0      -10.341315   -0.384472   -0.274539
     30          6           0       -8.838263   -0.753606   -0.048484
     31          6           0      -11.149834    1.330984    1.491613
     32          6           0      -10.848756   -0.561557   -1.739803
     33          6           0      -12.194310   -1.201419   -1.909185
     34          7           0       -6.016561   -1.667075   -0.158406
     35          6           0       -7.117433   -2.531391   -0.285392
     36          6           0       -6.676782   -3.872237   -0.468647
     37          6           0       -5.310620   -3.790247   -0.427671
     38          6           0       -4.925000   -2.462749   -0.232450
     39          6           0       -7.491779   -5.179712   -0.472317
     40          6           0       -4.048815   -4.537098   -0.413402
     41          8           0       -3.875228   -5.781697   -0.398079
     42          6           0       -2.854273   -3.562283   -0.361648
     43          6           0       -2.013930   -3.915176    0.720569
     44          8           0       -2.040485   -3.446726    1.849007
     45          8           0       -0.963149   -4.623585    0.178649
     46          6           0        0.271411   -4.853708    0.963656
     47          6           0        3.828657   -1.390806    0.004120
     48          6           0        5.153851   -1.167539   -0.737480
     49          6           0        6.331830   -1.008266   -0.098607
     50          6           0        6.526060   -0.984922    1.431830
     51          6           0        7.569400   -0.777638   -1.044357
     52          6           0        8.291994    0.631992   -1.013856
     53          6           0        8.290731    1.324765   -2.375352
     54          6           0        9.414116    2.339044   -2.549361
     55          6           0        8.946316    3.573759   -3.301413
     56          6           0       10.634954    1.707180   -3.308140
     57          6           0       12.101376    2.059726   -2.861381
     58          6           0       12.786459    0.757223   -2.308096
     59          6           0       13.638911    1.139814   -1.108126
     60          6           0       15.006915    0.444711   -1.135678
     61          6           0       12.829570    0.716679    0.229646
     62          6           0       13.476676    1.175702    1.627044
     63          6           0       13.955038    0.018077    2.569838
     64          6           0       12.920529   -0.443932    3.582838
     65          6           0       13.276433   -0.167255    5.068176
     66          6           0       12.377823   -1.836627    3.463270
     67          1           0       -2.850088    3.465156    0.245711
     68          1           0       -9.350357    3.376785    0.557045
     69          1           0       -9.210089   -2.725244   -0.699189
     70          1           0       -0.953632   -1.066117    0.653914
     71          1           0       -1.122886    1.679311   -0.692152
     72          1           0        0.092410    2.159327    1.238510
     73          1           0       -0.507500    0.846947    2.161732
     74          1           0       -1.406357    2.264584    2.074660
     75          1           0       -0.793184   -0.021325   -2.028634
     76          1           0       -1.706189   -1.554189   -1.955444
     77          1           0        0.920326   -1.699650   -2.535661
     78          1           0        0.208671   -2.789118   -1.472202
     79          1           0       -3.211980    5.473487    0.414422
     80          1           0       -4.311081    6.012245    1.756028
     81          1           0       -4.676046    6.441688    0.008685
     82          1           0       -6.623606    7.525544    0.384145
     83          1           0       -6.540819    6.798391    2.059307
     84          1           0       -8.024375    7.626789    1.524345
     85          1           0      -10.720662    1.809871   -0.493841
     86          1           0      -10.855656   -1.027603    0.439629
     87          1           0      -12.019645    1.917541    1.195679
     88          1           0      -10.706655    2.054515    2.175771
     89          1           0      -11.445177    0.424054    2.019902
     90          1           0      -10.113662   -1.184822   -2.249985
     91          1           0      -10.782692    0.405116   -2.237909
     92          1           0      -12.779079   -0.498380   -2.503514
     93          1           0      -12.673566   -1.420080   -0.954771
     94          1           0      -12.080009   -2.040663   -2.595881
     95          1           0       -8.533057   -4.945660   -0.695578
     96          1           0       -7.462374   -5.754970    0.452812
     97          1           0       -7.136753   -5.833269   -1.269112
     98          1           0       -2.413281   -3.612730   -1.356982
     99          1           0       -0.057455   -5.103971    1.971920
    100          1           0        0.978083   -4.023451    0.942748
    101          1           0        0.773048   -5.752001    0.604311
    102          1           0        3.734701   -2.332195    0.544484
    103          1           0        3.713131   -0.524767    0.656443
    104          1           0        5.142216   -1.242414   -1.824864
    105          1           0        7.569083   -1.132623    1.711255
    106          1           0        5.815636   -1.717854    1.815258
    107          1           0        6.133529   -0.031181    1.784223
    108          1           0        7.439765   -1.122039   -2.069924
    109          1           0        8.328572   -1.448650   -0.642163
    110          1           0        9.238715    0.590376   -0.475767
    111          1           0        7.644441    1.232919   -0.374529
    112          1           0        7.368338    1.904611   -2.361880
    113          1           0        8.221071    0.663916   -3.239064
    114          1           0        9.916161    2.589604   -1.614574
    115          1           0        9.805330    4.187424   -3.573671
    116          1           0        8.178505    4.156514   -2.792493
    117          1           0        8.473533    3.216185   -4.215783
    118          1           0       10.598267    1.988384   -4.359903
    119          1           0       10.534478    0.624216   -3.383539
    120          1           0       12.033660    2.879093   -2.146834
    121          1           0       12.640224    2.492222   -3.704796
    122          1           0       13.354314    0.423456   -3.177568
    123          1           0       12.066893    0.033733   -1.925797
    124          1           0       13.903178    2.197196   -1.104352
    125          1           0       15.288212    0.095184   -0.142600
    126          1           0       15.802945    1.134091   -1.417948
    127          1           0       15.105191   -0.371598   -1.851549
    128          1           0       12.775631   -0.372232    0.229032
    129          1           0       11.798996    1.038534    0.080087
    130          1           0       12.814043    1.794648    2.231817
    131          1           0       14.355281    1.785028    1.414068
    132          1           0       14.917177    0.185794    3.054455
    133          1           0       14.112562   -0.907643    2.017197
    134          1           0       12.079534    0.222693    3.393729
    135          1           0       12.509137    0.543594    5.374954
    136          1           0       14.294869    0.153058    5.289913
    137          1           0       13.153789   -1.075077    5.658332
    138          1           0       12.125285   -2.046754    2.423863
    139          1           0       11.416450   -2.009706    3.947093
    140          1           0       13.120426   -2.581453    3.749870
 ---------------------------------------------------------------------

 SCF Done:  E(RCAM-B3LYP) =  -3007.17053415     A.U. after   17 cycles

 Excitation energies and oscillator strengths:

 Excited State   1:      Singlet-A      1.7063 eV  726.62 nm  f=0.4059  <S**2>=0.000
     245 -> 248       -0.17399
     246 -> 247        0.68761
     245 <- 248       -0.10866
 This state for optimization and/or second-order correction.
 Total Energy, E(TD-HF/TD-DFT) =  -3007.10782851
 Copying the excited state density for this state as the 1-particle RhoCI density.

 Excited State   2:      Singlet-A      2.1493 eV  576.86 nm  f=0.1978  <S**2>=0.000
     245 -> 247        0.66737
     246 -> 248        0.22058

 Excited State   3:      Singlet-A      3.2205 eV  384.99 nm  f=0.0060  <S**2>=0.000
     242 -> 247       -0.24344
     244 -> 247        0.64394

 Excited State   4:      Singlet-A      3.3383 eV  371.40 nm  f=0.0018  <S**2>=0.000
     239 -> 247        0.36015
     239 -> 249       -0.21991
     240 -> 247        0.26676
     240 -> 249       -0.17297
     242 -> 247        0.35439
     244 -> 247        0.20874

 Excited State   5:      Singlet-A      3.3813 eV  366.68 nm  f=0.0010  <S**2>=0.000
     243 -> 247        0.60534
     243 -> 249        0.21575
     243 -> 250        0.24456

 The electronic state is 1-A.
 Alpha  occ. eigenvalues --  -46.87771 -19.26464 -19.24289 -19.21546 -19.19749
 Alpha  occ. eigenvalues --  -19.18964 -19.16973 -14.42441 -14.41344 -14.39011
 Alpha  occ. eigenvalues --  -14.38380 -10.40963 -10.39017 -10.35368 -10.32972
 Alpha  occ. eigenvalues --  -10.32801 -10.31396 -10.31384 -10.31359 -10.30778
 Alpha  occ. eigenvalues --  -10.29801 -10.29334 -10.29050 -10.28834 -10.28625
 Alpha  occ. eigenvalues --  -10.28498 -10.28399 -10.28264 -10.28097 -10.28077
 Alpha  occ. eigenvalues --  -10.27883 -10.27770 -10.27768 -10.27680 -10.27463
 Alpha  occ. eigenvalues --  -10.27275 -10.27249 -10.27101 -10.26552 -10.26430
 Alpha  occ. eigenvalues --  -10.26269 -10.26201 -10.26073 -10.26070 -10.25935
 Alpha  occ. eigenvalues --  -10.25878 -10.25811 -10.25794 -10.25636 -10.25424
 Alpha  occ. eigenvalues --  -10.25197 -10.25123 -10.25114 -10.25097 -10.25095
 Alpha  occ. eigenvalues --  -10.25063 -10.25013 -10.25001 -10.24957 -10.24884
 Alpha  occ. eigenvalues --  -10.24751 -10.24634 -10.24504 -10.24356 -10.24178
 Alpha  occ. eigenvalues --  -10.23980  -3.16343  -1.91256  -1.90805  -1.90642
 Alpha  occ. eigenvalues --   -1.17008  -1.15548  -1.09523  -1.09170  -1.08194
 Alpha  occ. eigenvalues --   -1.07412  -1.04100  -1.03662  -1.02238  -1.01675
 Alpha  occ. eigenvalues --   -0.93189  -0.90373  -0.89653  -0.89198  -0.88940
 Alpha  occ. eigenvalues --   -0.88814  -0.88012  -0.87977  -0.87274  -0.86597
 Alpha  occ. eigenvalues --   -0.86288  -0.84950  -0.84370  -0.84121  -0.83175
 Alpha  occ. eigenvalues --   -0.82499  -0.81911  -0.81173  -0.80653  -0.80290
 Alpha  occ. eigenvalues --   -0.80019  -0.78196  -0.77783  -0.77255  -0.76423
 Alpha  occ. eigenvalues --   -0.76201  -0.75565  -0.75062  -0.75013  -0.74095
 Alpha  occ. eigenvalues --   -0.73368  -0.72955  -0.71338  -0.70357  -0.68818
 Alpha  occ. eigenvalues --   -0.68589  -0.68474  -0.67149  -0.66974  -0.65588
 Alpha  occ. eigenvalues --   -0.65399  -0.65239  -0.64495  -0.64391  -0.64034
 Alpha  occ. eigenvalues --   -0.64016  -0.63140  -0.62890  -0.61884  -0.59982
 Alpha  occ. eigenvalues --   -0.59862  -0.59491  -0.59148  -0.58830  -0.57819
 Alpha  occ. eigenvalues --   -0.57191  -0.57110  -0.56322  -0.55907  -0.55445
 Alpha  occ. eigenvalues --   -0.54892  -0.54418  -0.54090  -0.53843  -0.53555
 Alpha  occ. eigenvalues --   -0.53215  -0.53182  -0.53128  -0.53036  -0.52835
 Alpha  occ. eigenvalues --   -0.52687  -0.52586  -0.52473  -0.52305  -0.51846
 Alpha  occ. eigenvalues --   -0.51801  -0.51216  -0.51079  -0.50898  -0.50563
 Alpha  occ. eigenvalues --   -0.50434  -0.50107  -0.50066  -0.49794  -0.49631
 Alpha  occ. eigenvalues --   -0.49495  -0.49438  -0.49000  -0.48890  -0.48720
 Alpha  occ. eigenvalues --   -0.48387  -0.48258  -0.48103  -0.47789  -0.47654
 Alpha  occ. eigenvalues --   -0.47305  -0.47067  -0.46961  -0.46492  -0.46459
 Alpha  occ. eigenvalues --   -0.46303  -0.46221  -0.46081  -0.45898  -0.45502
 Alpha  occ. eigenvalues --   -0.45438  -0.45316  -0.45155  -0.44844  -0.44728
 Alpha  occ. eigenvalues --   -0.44597  -0.44527  -0.44456  -0.44298  -0.43927
 Alpha  occ. eigenvalues --   -0.43780  -0.43488  -0.43303  -0.43233  -0.43012
 Alpha  occ. eigenvalues --   -0.42727  -0.42468  -0.42330  -0.42328  -0.41896
 Alpha  occ. eigenvalues --   -0.41750  -0.41707  -0.41380  -0.41296  -0.41203
 Alpha  occ. eigenvalues --   -0.40762  -0.40591  -0.40526  -0.40310  -0.40180
 Alpha  occ. eigenvalues --   -0.39763  -0.39235  -0.39189  -0.38636  -0.38526
 Alpha  occ. eigenvalues --   -0.38381  -0.38318  -0.38261  -0.38088  -0.37520
 Alpha  occ. eigenvalues --   -0.37460  -0.37450  -0.36718  -0.36507  -0.36363
 Alpha  occ. eigenvalues --   -0.35965  -0.35868  -0.35555  -0.34682  -0.34418
 Alpha  occ. eigenvalues --   -0.34283  -0.33923  -0.33039  -0.31062  -0.30914
 Alpha  occ. eigenvalues --   -0.30261  -0.30143  -0.29504  -0.29185  -0.23599
 Alpha  occ. eigenvalues --   -0.21436
 Alpha virt. eigenvalues --   -0.09069  -0.00683   0.00673   0.02631   0.03318
 Alpha virt. eigenvalues --    0.03743   0.04597   0.05357   0.05876   0.06910
 Alpha virt. eigenvalues --    0.07530   0.08610   0.08765   0.08992   0.09440

 Mulliken charges:
               1
     1  Mg   0.823679
     2  C   -0.029744
     3  C   -0.047429
     4  C   -0.057307
     5  C   -0.108421
     6  N   -0.283034
     7  C   -0.057954
     8  C   -0.036140
     9  C   -0.031515
    10  C    0.038373
    11  C    0.040857
    12  C    0.082340
    13  C    0.065256
    14  C    0.179590
    15  O   -0.245261
    16  O   -0.338806
    17  N   -0.334483
    18  C    0.124177
    19  C   -0.174242
    20  C   -0.013269
    21  C    0.099027
    22  C    0.130524
    23  C   -0.045358
    24  O   -0.215933
    25  C    0.063624
    26  N   -0.328578
    27  C    0.034994
    28  C   -0.060851
    29  C   -0.012144
    30  C    0.063374
    31  C    0.078127
    32  C    0.033900
    33  C    0.033966
    34  N   -0.356078
    35  C    0.147427
    36  C   -0.201653
    37  C    0.080676
    38  C    0.089301
    39  C    0.123384
    40  C    0.004266
    41  O   -0.203519
    42  C    0.043382
    43  C    0.234051
    44  O   -0.207664
    45  O   -0.357960
    46  C    0.171401
    47  C    0.265041
    48  C   -0.135219
    49  C   -0.189213
    50  C    0.097643
    51  C    0.069349
    52  C    0.016901
    53  C    0.060937
    54  C   -0.103869
    55  C    0.056212
    56  C    0.006856
    57  C   -0.002653
    58  C    0.074876
    59  C   -0.137323
    60  C    0.040035
    61  C    0.019124
    62  C    0.034267
    63  C    0.050902
    64  C   -0.160232
    65  C    0.043575
    66  C    0.052973
    67  H   -0.037830
    68  H   -0.003073
    69  H   -0.017903
    70  H    0.057687
    71  H    0.013223
    72  H    0.003228
    73  H    0.028400
    74  H    0.011171
    75  H    0.006772
    76  H    0.013819
    77  H    0.019731
    78  H    0.034034
    79  H    0.019323
    80  H    0.044069
    81  H    0.027958
    82  H    0.026051
    83  H    0.030873
    84  H    0.026915
    85  H    0.013955
    86  H    0.002139
    87  H    0.004370
    88  H    0.019859
    89  H    0.015321
    90  H    0.000660
    91  H    0.006607
    92  H    0.007903
    93  H    0.025712
    94  H    0.012835
    95  H   -0.002886
    96  H    0.046049
    97  H    0.029784
    98  H    0.061623
    99  H    0.043575
   100  H    0.043023
   101  H    0.032180
   102  H    0.042662
   103  H    0.035360
   104  H    0.010013
   105  H    0.029271
   106  H    0.023996
   107  H    0.032484
   108  H    0.000007
   109  H   -0.011705
   110  H    0.003049
   111  H   -0.004895
   112  H   -0.011457
   113  H    0.003292
   114  H   -0.009679
   115  H    0.007401
   116  H    0.009815
   117  H    0.001656
   118  H   -0.024702
   119  H   -0.011074
   120  H   -0.001405
   121  H   -0.000318
   122  H    0.005597
   123  H    0.007166
   124  H    0.001987
   125  H    0.003268
   126  H   -0.003029
   127  H    0.004197
   128  H    0.002638
   129  H   -0.000461
   130  H    0.004062
   131  H    0.000976
   132  H   -0.008287
   133  H   -0.016766
   134  H   -0.014726
   135  H    0.010554
   136  H    0.008825
   137  H   -0.002238
   138  H   -0.011885
   139  H    0.008158
   140  H    0.010496
 Sum of Mulliken charges =  -0.00000

 Dipole moment (field-independent basis, Debye):
    X=              4.4446    Y=              2.2901    Z=             -2.8931  Tot=              5.7766
 Quadrupole moment (field-independent basis, Debye-Ang):
   XX=           -381.8694   YY=           -423.2432   ZZ=           -406.6554
   XY=              9.8785   XZ=             15.6342   YZ=              1.8855

 Normal termination of Gaussian 16 at Thu May  5 04:40:29 2022.
