 Gaussian 16, Revision A.03,
 Gaussian 16:  ES64L-G16RevA.03 25-Dec-2016

 ---------------------------------
 #p PBE1PBE/Def2SVP td=(nstates=5)
 ---------------------------------

 -----------------------------------------------------
 step_651_chromophore_19 TDDFT with PBE1PBE functional
 -----------------------------------------------------
 Symbolic Z-matrix:
 Charge =  0 Multiplicity = 1

                         Standard orientation:
 ---------------------------------------------------------------------
 Center     Atomic      Atomic             Coordinates (Angstroms)
 Number     Number       Type             X           Y           Z
 ---------------------------------------------------------------------
      1         12           0       -6.003972    0.393709    0.089951
      2          6           0       -3.540354   -2.224213   -0.112494
      3          6           0       -3.592985    2.670977    0.340863
      4          6           0       -8.461880    2.759398    0.405902
      5          6           0       -8.432928   -2.037812   -0.358699
      6          7           0       -3.786021    0.139304    0.228307
      7          6           0       -2.996626   -0.939913    0.040890
      8          6           0       -1.458604   -0.519018   -0.142282
      9          6           0       -1.548729    1.091781    0.122103
     10          6           0       -3.062829    1.354032    0.203187
     11          6           0       -0.821046    1.600274    1.438445
     12          6           0       -0.901824   -0.971434   -1.505192
     13          6           0        0.425923   -1.725289   -1.564392
     14          6           0        1.531720   -1.439031   -0.496919
     15          8           0        1.271644   -1.444219    0.702864
     16          8           0        2.809474   -1.363569   -1.052454
     17          7           0       -6.016489    2.484497    0.346995
     18          6           0       -4.886779    3.220981    0.402549
     19          6           0       -5.253514    4.573459    0.551363
     20          6           0       -6.696780    4.593694    0.634475
     21          6           0       -7.087518    3.272652    0.462943
     22          6           0       -4.229863    5.732695    0.705481
     23          6           0       -7.622717    5.698114    0.791943
     24          8           0       -8.817779    5.517115    0.925476
     25          6           0       -7.163980    7.041695    1.198380
     26          7           0       -8.056500    0.377663    0.260806
     27          6           0       -8.871590    1.443538    0.381720
     28          6           0      -10.366212    1.071704    0.225200
     29          6           0      -10.341315   -0.384472   -0.274539
     30          6           0       -8.838263   -0.753606   -0.048484
     31          6           0      -11.149834    1.330984    1.491613
     32          6           0      -10.848756   -0.561557   -1.739803
     33          6           0      -12.194310   -1.201419   -1.909185
     34          7           0       -6.016561   -1.667075   -0.158406
     35          6           0       -7.117433   -2.531391   -0.285392
     36          6           0       -6.676782   -3.872237   -0.468647
     37          6           0       -5.310620   -3.790247   -0.427671
     38          6           0       -4.925000   -2.462749   -0.232450
     39          6           0       -7.491779   -5.179712   -0.472317
     40          6           0       -4.048815   -4.537098   -0.413402
     41          8           0       -3.875228   -5.781697   -0.398079
     42          6           0       -2.854273   -3.562283   -0.361648
     43          6           0       -2.013930   -3.915176    0.720569
     44          8           0       -2.040485   -3.446726    1.849007
     45          8           0       -0.963149   -4.623585    0.178649
     46          6           0        0.271411   -4.853708    0.963656
     47          6           0        3.828657   -1.390806    0.004120
     48          6           0        5.153851   -1.167539   -0.737480
     49          6           0        6.331830   -1.008266   -0.098607
     50          6           0        6.526060   -0.984922    1.431830
     51          6           0        7.569400   -0.777638   -1.044357
     52          6           0        8.291994    0.631992   -1.013856
     53          6           0        8.290731    1.324765   -2.375352
     54          6           0        9.414116    2.339044   -2.549361
     55          6           0        8.946316    3.573759   -3.301413
     56          6           0       10.634954    1.707180   -3.308140
     57          6           0       12.101376    2.059726   -2.861381
     58          6           0       12.786459    0.757223   -2.308096
     59          6           0       13.638911    1.139814   -1.108126
     60          6           0       15.006915    0.444711   -1.135678
     61          6           0       12.829570    0.716679    0.229646
     62          6           0       13.476676    1.175702    1.627044
     63          6           0       13.955038    0.018077    2.569838
     64          6           0       12.920529   -0.443932    3.582838
     65          6           0       13.276433   -0.167255    5.068176
     66          6           0       12.377823   -1.836627    3.463270
     67          1           0       -2.850088    3.465156    0.245711
     68          1           0       -9.350357    3.376785    0.557045
     69          1           0       -9.210089   -2.725244   -0.699189
     70          1           0       -0.953632   -1.066117    0.653914
     71          1           0       -1.122886    1.679311   -0.692152
     72          1           0        0.092410    2.159327    1.238510
     73          1           0       -0.507500    0.846947    2.161732
     74          1           0       -1.406357    2.264584    2.074660
     75          1           0       -0.793184   -0.021325   -2.028634
     76          1           0       -1.706189   -1.554189   -1.955444
     77          1           0        0.920326   -1.699650   -2.535661
     78          1           0        0.208671   -2.789118   -1.472202
     79          1           0       -3.211980    5.473487    0.414422
     80          1           0       -4.311081    6.012245    1.756028
     81          1           0       -4.676046    6.441688    0.008685
     82          1           0       -6.623606    7.525544    0.384145
     83          1           0       -6.540819    6.798391    2.059307
     84          1           0       -8.024375    7.626789    1.524345
     85          1           0      -10.720662    1.809871   -0.493841
     86          1           0      -10.855656   -1.027603    0.439629
     87          1           0      -12.019645    1.917541    1.195679
     88          1           0      -10.706655    2.054515    2.175771
     89          1           0      -11.445177    0.424054    2.019902
     90          1           0      -10.113662   -1.184822   -2.249985
     91          1           0      -10.782692    0.405116   -2.237909
     92          1           0      -12.779079   -0.498380   -2.503514
     93          1           0      -12.673566   -1.420080   -0.954771
     94          1           0      -12.080009   -2.040663   -2.595881
     95          1           0       -8.533057   -4.945660   -0.695578
     96          1           0       -7.462374   -5.754970    0.452812
     97          1           0       -7.136753   -5.833269   -1.269112
     98          1           0       -2.413281   -3.612730   -1.356982
     99          1           0       -0.057455   -5.103971    1.971920
    100          1           0        0.978083   -4.023451    0.942748
    101          1           0        0.773048   -5.752001    0.604311
    102          1           0        3.734701   -2.332195    0.544484
    103          1           0        3.713131   -0.524767    0.656443
    104          1           0        5.142216   -1.242414   -1.824864
    105          1           0        7.569083   -1.132623    1.711255
    106          1           0        5.815636   -1.717854    1.815258
    107          1           0        6.133529   -0.031181    1.784223
    108          1           0        7.439765   -1.122039   -2.069924
    109          1           0        8.328572   -1.448650   -0.642163
    110          1           0        9.238715    0.590376   -0.475767
    111          1           0        7.644441    1.232919   -0.374529
    112          1           0        7.368338    1.904611   -2.361880
    113          1           0        8.221071    0.663916   -3.239064
    114          1           0        9.916161    2.589604   -1.614574
    115          1           0        9.805330    4.187424   -3.573671
    116          1           0        8.178505    4.156514   -2.792493
    117          1           0        8.473533    3.216185   -4.215783
    118          1           0       10.598267    1.988384   -4.359903
    119          1           0       10.534478    0.624216   -3.383539
    120          1           0       12.033660    2.879093   -2.146834
    121          1           0       12.640224    2.492222   -3.704796
    122          1           0       13.354314    0.423456   -3.177568
    123          1           0       12.066893    0.033733   -1.925797
    124          1           0       13.903178    2.197196   -1.104352
    125          1           0       15.288212    0.095184   -0.142600
    126          1           0       15.802945    1.134091   -1.417948
    127          1           0       15.105191   -0.371598   -1.851549
    128          1           0       12.775631   -0.372232    0.229032
    129          1           0       11.798996    1.038534    0.080087
    130          1           0       12.814043    1.794648    2.231817
    131          1           0       14.355281    1.785028    1.414068
    132          1           0       14.917177    0.185794    3.054455
    133          1           0       14.112562   -0.907643    2.017197
    134          1           0       12.079534    0.222693    3.393729
    135          1           0       12.509137    0.543594    5.374954
    136          1           0       14.294869    0.153058    5.289913
    137          1           0       13.153789   -1.075077    5.658332
    138          1           0       12.125285   -2.046754    2.423863
    139          1           0       11.416450   -2.009706    3.947093
    140          1           0       13.120426   -2.581453    3.749870
 ---------------------------------------------------------------------

 SCF Done:  E(RPBE1PBE) =  -3005.35763480     A.U. after   16 cycles

 Excitation energies and oscillator strengths:

 Excited State   1:      Singlet-A      1.8673 eV  663.96 nm  f=0.3899  <S**2>=0.000
     245 -> 248       -0.17008
     246 -> 247        0.69481
     246 <- 247       -0.11234
 This state for optimization and/or second-order correction.
 Total Energy, E(TD-HF/TD-DFT) =  -3005.28901165
 Copying the excited state density for this state as the 1-particle RhoCI density.

 Excited State   2:      Singlet-A      2.1646 eV  572.79 nm  f=0.1757  <S**2>=0.000
     245 -> 247        0.67276
     246 -> 248        0.20424

 Excited State   3:      Singlet-A      2.7041 eV  458.51 nm  f=0.0009  <S**2>=0.000
     244 -> 247        0.68881
     244 -> 249        0.10912
     244 -> 250        0.10282

 Excited State   4:      Singlet-A      2.8617 eV  433.25 nm  f=0.0008  <S**2>=0.000
     240 -> 247       -0.16030
     242 -> 247        0.52033
     242 -> 249       -0.13041
     243 -> 247       -0.41256

 Excited State   5:      Singlet-A      2.9328 eV  422.76 nm  f=0.0101  <S**2>=0.000
     240 -> 247       -0.20545
     242 -> 247        0.34863
     243 -> 247        0.56235

 The electronic state is 1-A.
 Alpha  occ. eigenvalues --  -46.91195 -19.27140 -19.24852 -19.21793 -19.19854
 Alpha  occ. eigenvalues --  -19.19023 -19.17365 -14.41876 -14.40986 -14.38630
 Alpha  occ. eigenvalues --  -14.38142 -10.37982 -10.35864 -10.32382 -10.30209
 Alpha  occ. eigenvalues --  -10.30195 -10.29287 -10.29059 -10.28500 -10.28468
 Alpha  occ. eigenvalues --  -10.27347 -10.27186 -10.26859 -10.26693 -10.26375
 Alpha  occ. eigenvalues --  -10.26186 -10.25912 -10.25838 -10.25757 -10.25731
 Alpha  occ. eigenvalues --  -10.25631 -10.25569 -10.25304 -10.25233 -10.25138
 Alpha  occ. eigenvalues --  -10.25073 -10.24642 -10.24623 -10.24435 -10.24090
 Alpha  occ. eigenvalues --  -10.23785 -10.23673 -10.23620 -10.23593 -10.23513
 Alpha  occ. eigenvalues --  -10.23508 -10.23505 -10.23332 -10.23320 -10.22995
 Alpha  occ. eigenvalues --  -10.22943 -10.22902 -10.22740 -10.22690 -10.22626
 Alpha  occ. eigenvalues --  -10.22616 -10.22613 -10.22583 -10.22434 -10.22325
 Alpha  occ. eigenvalues --  -10.22304 -10.22010 -10.21946 -10.21871 -10.21568
 Alpha  occ. eigenvalues --  -10.21352  -3.13348  -1.86203  -1.85730  -1.85569
 Alpha  occ. eigenvalues --   -1.11773  -1.10176  -1.04402  -1.03999  -1.02736
 Alpha  occ. eigenvalues --   -1.02118  -0.98918  -0.98265  -0.96871  -0.96267
 Alpha  occ. eigenvalues --   -0.87435  -0.84466  -0.83750  -0.83318  -0.83252
 Alpha  occ. eigenvalues --   -0.82954  -0.82387  -0.82101  -0.81609  -0.80956
 Alpha  occ. eigenvalues --   -0.80619  -0.79226  -0.78597  -0.78349  -0.77415
 Alpha  occ. eigenvalues --   -0.76685  -0.76142  -0.75455  -0.74945  -0.74603
 Alpha  occ. eigenvalues --   -0.74188  -0.72536  -0.72014  -0.71571  -0.70641
 Alpha  occ. eigenvalues --   -0.70410  -0.69648  -0.69417  -0.69120  -0.68267
 Alpha  occ. eigenvalues --   -0.67753  -0.67282  -0.65750  -0.64718  -0.63149
 Alpha  occ. eigenvalues --   -0.62925  -0.62846  -0.61699  -0.61223  -0.59876
 Alpha  occ. eigenvalues --   -0.59805  -0.59610  -0.59019  -0.58884  -0.58576
 Alpha  occ. eigenvalues --   -0.58142  -0.57306  -0.57059  -0.56394  -0.54457
 Alpha  occ. eigenvalues --   -0.54339  -0.54057  -0.53532  -0.53324  -0.52417
 Alpha  occ. eigenvalues --   -0.51801  -0.51404  -0.50880  -0.50379  -0.50050
 Alpha  occ. eigenvalues --   -0.49469  -0.49028  -0.48590  -0.48286  -0.48001
 Alpha  occ. eigenvalues --   -0.47765  -0.47694  -0.47592  -0.47488  -0.47283
 Alpha  occ. eigenvalues --   -0.47226  -0.47133  -0.46933  -0.46850  -0.46494
 Alpha  occ. eigenvalues --   -0.46286  -0.45764  -0.45682  -0.45434  -0.45054
 Alpha  occ. eigenvalues --   -0.44939  -0.44746  -0.44627  -0.44407  -0.44179
 Alpha  occ. eigenvalues --   -0.44109  -0.43978  -0.43584  -0.43506  -0.43258
 Alpha  occ. eigenvalues --   -0.43055  -0.42923  -0.42780  -0.42451  -0.42352
 Alpha  occ. eigenvalues --   -0.41971  -0.41705  -0.41580  -0.41164  -0.41055
 Alpha  occ. eigenvalues --   -0.40857  -0.40845  -0.40758  -0.40609  -0.40320
 Alpha  occ. eigenvalues --   -0.40117  -0.40044  -0.39810  -0.39543  -0.39477
 Alpha  occ. eigenvalues --   -0.39316  -0.39254  -0.39198  -0.38971  -0.38751
 Alpha  occ. eigenvalues --   -0.38554  -0.38265  -0.38116  -0.37950  -0.37853
 Alpha  occ. eigenvalues --   -0.37503  -0.37258  -0.37218  -0.37010  -0.36737
 Alpha  occ. eigenvalues --   -0.36603  -0.36516  -0.36271  -0.36056  -0.36032
 Alpha  occ. eigenvalues --   -0.35662  -0.35455  -0.35306  -0.35072  -0.35035
 Alpha  occ. eigenvalues --   -0.34538  -0.34155  -0.34059  -0.33445  -0.33413
 Alpha  occ. eigenvalues --   -0.33344  -0.33258  -0.33072  -0.32865  -0.32460
 Alpha  occ. eigenvalues --   -0.32420  -0.32284  -0.31816  -0.31318  -0.31227
 Alpha  occ. eigenvalues --   -0.30888  -0.30792  -0.30439  -0.29622  -0.29249
 Alpha  occ. eigenvalues --   -0.29232  -0.28943  -0.28637  -0.26670  -0.25920
 Alpha  occ. eigenvalues --   -0.25526  -0.25448  -0.24958  -0.24347  -0.20600
 Alpha  occ. eigenvalues --   -0.19014
 Alpha virt. eigenvalues --   -0.11436  -0.04279  -0.03553  -0.01802  -0.01198
 Alpha virt. eigenvalues --    0.00018   0.00939   0.01020   0.01659   0.03356
 Alpha virt. eigenvalues --    0.04318   0.04496   0.04925   0.05711   0.05930

 Mulliken charges:
               1
     1  Mg   0.976801
     2  C   -0.040698
     3  C   -0.045694
     4  C   -0.040953
     5  C   -0.097789
     6  N   -0.385365
     7  C    0.029356
     8  C   -0.100822
     9  C   -0.107933
    10  C    0.073970
    11  C   -0.012648
    12  C    0.030117
    13  C   -0.014900
    14  C    0.240523
    15  O   -0.275348
    16  O   -0.370477
    17  N   -0.458510
    18  C    0.151417
    19  C   -0.198458
    20  C   -0.074619
    21  C    0.138730
    22  C    0.068376
    23  C    0.014483
    24  O   -0.252127
    25  C   -0.014887
    26  N   -0.434279
    27  C    0.072602
    28  C   -0.140627
    29  C   -0.087322
    30  C    0.093684
    31  C    0.025302
    32  C   -0.024707
    33  C   -0.038943
    34  N   -0.481712
    35  C    0.157398
    36  C   -0.210844
    37  C    0.026947
    38  C    0.138711
    39  C    0.071956
    40  C    0.102882
    41  O   -0.248050
    42  C   -0.086474
    43  C    0.333161
    44  O   -0.244121
    45  O   -0.391169
    46  C    0.114845
    47  C    0.225011
    48  C   -0.143937
    49  C   -0.232551
    50  C    0.029891
    51  C    0.009785
    52  C   -0.048736
    53  C    0.004136
    54  C   -0.194534
    55  C   -0.008134
    56  C   -0.038547
    57  C   -0.061446
    58  C    0.016290
    59  C   -0.222536
    60  C   -0.017601
    61  C   -0.043290
    62  C   -0.034760
    63  C   -0.000477
    64  C   -0.249516
    65  C   -0.015000
    66  C   -0.015317
    67  H   -0.004426
    68  H    0.028723
    69  H    0.013818
    70  H    0.098047
    71  H    0.048716
    72  H    0.030999
    73  H    0.055051
    74  H    0.038460
    75  H    0.040225
    76  H    0.049179
    77  H    0.051389
    78  H    0.070175
    79  H    0.046817
    80  H    0.072156
    81  H    0.057409
    82  H    0.052977
    83  H    0.058904
    84  H    0.055005
    85  H    0.050169
    86  H    0.039256
    87  H    0.032524
    88  H    0.046884
    89  H    0.042748
    90  H    0.034351
    91  H    0.038538
    92  H    0.036231
    93  H    0.052155
    94  H    0.040636
    95  H    0.024270
    96  H    0.072099
    97  H    0.056631
    98  H    0.096629
    99  H    0.064386
   100  H    0.068291
   101  H    0.053819
   102  H    0.068536
   103  H    0.062508
   104  H    0.039181
   105  H    0.055180
   106  H    0.051897
   107  H    0.059662
   108  H    0.030184
   109  H    0.023546
   110  H    0.037938
   111  H    0.030353
   112  H    0.023216
   113  H    0.033129
   114  H    0.029175
   115  H    0.036348
   116  H    0.038125
   117  H    0.030141
   118  H    0.008431
   119  H    0.021207
   120  H    0.029775
   121  H    0.032032
   122  H    0.038647
   123  H    0.039023
   124  H    0.038387
   125  H    0.033050
   126  H    0.024942
   127  H    0.031062
   128  H    0.035432
   129  H    0.039218
   130  H    0.036303
   131  H    0.033914
   132  H    0.023325
   133  H    0.016284
   134  H    0.024979
   135  H    0.037644
   136  H    0.035050
   137  H    0.025469
   138  H    0.017834
   139  H    0.036262
   140  H    0.038851
 Sum of Mulliken charges =  -0.00000

 Dipole moment (field-independent basis, Debye):
    X=              4.2599    Y=              2.6557    Z=             -2.8568  Tot=              5.7759
 Quadrupole moment (field-independent basis, Debye-Ang):
   XX=           -374.3789   YY=           -420.6987   ZZ=           -403.9264
   XY=              8.5472   XZ=             15.4247   YZ=              2.1301

 Normal termination of Gaussian 16 at Thu May  5 05:07:18 2022.
