 Gaussian 16, Revision A.03,
 Gaussian 16:  ES64L-G16RevA.03 25-Dec-2016

 --------------------------------
 #p wB97XD/Def2SVP td=(nstates=5)
 --------------------------------

 ----------------------------------------------------
 step_651_chromophore_19 TDDFT with wB97XD functional
 ----------------------------------------------------
 Symbolic Z-matrix:
 Charge =  0 Multiplicity = 1

                         Standard orientation:
 ---------------------------------------------------------------------
 Center     Atomic      Atomic             Coordinates (Angstroms)
 Number     Number       Type             X           Y           Z
 ---------------------------------------------------------------------
      1         12           0       -6.003972    0.393709    0.089951
      2          6           0       -3.540354   -2.224213   -0.112494
      3          6           0       -3.592985    2.670977    0.340863
      4          6           0       -8.461880    2.759398    0.405902
      5          6           0       -8.432928   -2.037812   -0.358699
      6          7           0       -3.786021    0.139304    0.228307
      7          6           0       -2.996626   -0.939913    0.040890
      8          6           0       -1.458604   -0.519018   -0.142282
      9          6           0       -1.548729    1.091781    0.122103
     10          6           0       -3.062829    1.354032    0.203187
     11          6           0       -0.821046    1.600274    1.438445
     12          6           0       -0.901824   -0.971434   -1.505192
     13          6           0        0.425923   -1.725289   -1.564392
     14          6           0        1.531720   -1.439031   -0.496919
     15          8           0        1.271644   -1.444219    0.702864
     16          8           0        2.809474   -1.363569   -1.052454
     17          7           0       -6.016489    2.484497    0.346995
     18          6           0       -4.886779    3.220981    0.402549
     19          6           0       -5.253514    4.573459    0.551363
     20          6           0       -6.696780    4.593694    0.634475
     21          6           0       -7.087518    3.272652    0.462943
     22          6           0       -4.229863    5.732695    0.705481
     23          6           0       -7.622717    5.698114    0.791943
     24          8           0       -8.817779    5.517115    0.925476
     25          6           0       -7.163980    7.041695    1.198380
     26          7           0       -8.056500    0.377663    0.260806
     27          6           0       -8.871590    1.443538    0.381720
     28          6           0      -10.366212    1.071704    0.225200
     29          6           0      -10.341315   -0.384472   -0.274539
     30          6           0       -8.838263   -0.753606   -0.048484
     31          6           0      -11.149834    1.330984    1.491613
     32          6           0      -10.848756   -0.561557   -1.739803
     33          6           0      -12.194310   -1.201419   -1.909185
     34          7           0       -6.016561   -1.667075   -0.158406
     35          6           0       -7.117433   -2.531391   -0.285392
     36          6           0       -6.676782   -3.872237   -0.468647
     37          6           0       -5.310620   -3.790247   -0.427671
     38          6           0       -4.925000   -2.462749   -0.232450
     39          6           0       -7.491779   -5.179712   -0.472317
     40          6           0       -4.048815   -4.537098   -0.413402
     41          8           0       -3.875228   -5.781697   -0.398079
     42          6           0       -2.854273   -3.562283   -0.361648
     43          6           0       -2.013930   -3.915176    0.720569
     44          8           0       -2.040485   -3.446726    1.849007
     45          8           0       -0.963149   -4.623585    0.178649
     46          6           0        0.271411   -4.853708    0.963656
     47          6           0        3.828657   -1.390806    0.004120
     48          6           0        5.153851   -1.167539   -0.737480
     49          6           0        6.331830   -1.008266   -0.098607
     50          6           0        6.526060   -0.984922    1.431830
     51          6           0        7.569400   -0.777638   -1.044357
     52          6           0        8.291994    0.631992   -1.013856
     53          6           0        8.290731    1.324765   -2.375352
     54          6           0        9.414116    2.339044   -2.549361
     55          6           0        8.946316    3.573759   -3.301413
     56          6           0       10.634954    1.707180   -3.308140
     57          6           0       12.101376    2.059726   -2.861381
     58          6           0       12.786459    0.757223   -2.308096
     59          6           0       13.638911    1.139814   -1.108126
     60          6           0       15.006915    0.444711   -1.135678
     61          6           0       12.829570    0.716679    0.229646
     62          6           0       13.476676    1.175702    1.627044
     63          6           0       13.955038    0.018077    2.569838
     64          6           0       12.920529   -0.443932    3.582838
     65          6           0       13.276433   -0.167255    5.068176
     66          6           0       12.377823   -1.836627    3.463270
     67          1           0       -2.850088    3.465156    0.245711
     68          1           0       -9.350357    3.376785    0.557045
     69          1           0       -9.210089   -2.725244   -0.699189
     70          1           0       -0.953632   -1.066117    0.653914
     71          1           0       -1.122886    1.679311   -0.692152
     72          1           0        0.092410    2.159327    1.238510
     73          1           0       -0.507500    0.846947    2.161732
     74          1           0       -1.406357    2.264584    2.074660
     75          1           0       -0.793184   -0.021325   -2.028634
     76          1           0       -1.706189   -1.554189   -1.955444
     77          1           0        0.920326   -1.699650   -2.535661
     78          1           0        0.208671   -2.789118   -1.472202
     79          1           0       -3.211980    5.473487    0.414422
     80          1           0       -4.311081    6.012245    1.756028
     81          1           0       -4.676046    6.441688    0.008685
     82          1           0       -6.623606    7.525544    0.384145
     83          1           0       -6.540819    6.798391    2.059307
     84          1           0       -8.024375    7.626789    1.524345
     85          1           0      -10.720662    1.809871   -0.493841
     86          1           0      -10.855656   -1.027603    0.439629
     87          1           0      -12.019645    1.917541    1.195679
     88          1           0      -10.706655    2.054515    2.175771
     89          1           0      -11.445177    0.424054    2.019902
     90          1           0      -10.113662   -1.184822   -2.249985
     91          1           0      -10.782692    0.405116   -2.237909
     92          1           0      -12.779079   -0.498380   -2.503514
     93          1           0      -12.673566   -1.420080   -0.954771
     94          1           0      -12.080009   -2.040663   -2.595881
     95          1           0       -8.533057   -4.945660   -0.695578
     96          1           0       -7.462374   -5.754970    0.452812
     97          1           0       -7.136753   -5.833269   -1.269112
     98          1           0       -2.413281   -3.612730   -1.356982
     99          1           0       -0.057455   -5.103971    1.971920
    100          1           0        0.978083   -4.023451    0.942748
    101          1           0        0.773048   -5.752001    0.604311
    102          1           0        3.734701   -2.332195    0.544484
    103          1           0        3.713131   -0.524767    0.656443
    104          1           0        5.142216   -1.242414   -1.824864
    105          1           0        7.569083   -1.132623    1.711255
    106          1           0        5.815636   -1.717854    1.815258
    107          1           0        6.133529   -0.031181    1.784223
    108          1           0        7.439765   -1.122039   -2.069924
    109          1           0        8.328572   -1.448650   -0.642163
    110          1           0        9.238715    0.590376   -0.475767
    111          1           0        7.644441    1.232919   -0.374529
    112          1           0        7.368338    1.904611   -2.361880
    113          1           0        8.221071    0.663916   -3.239064
    114          1           0        9.916161    2.589604   -1.614574
    115          1           0        9.805330    4.187424   -3.573671
    116          1           0        8.178505    4.156514   -2.792493
    117          1           0        8.473533    3.216185   -4.215783
    118          1           0       10.598267    1.988384   -4.359903
    119          1           0       10.534478    0.624216   -3.383539
    120          1           0       12.033660    2.879093   -2.146834
    121          1           0       12.640224    2.492222   -3.704796
    122          1           0       13.354314    0.423456   -3.177568
    123          1           0       12.066893    0.033733   -1.925797
    124          1           0       13.903178    2.197196   -1.104352
    125          1           0       15.288212    0.095184   -0.142600
    126          1           0       15.802945    1.134091   -1.417948
    127          1           0       15.105191   -0.371598   -1.851549
    128          1           0       12.775631   -0.372232    0.229032
    129          1           0       11.798996    1.038534    0.080087
    130          1           0       12.814043    1.794648    2.231817
    131          1           0       14.355281    1.785028    1.414068
    132          1           0       14.917177    0.185794    3.054455
    133          1           0       14.112562   -0.907643    2.017197
    134          1           0       12.079534    0.222693    3.393729
    135          1           0       12.509137    0.543594    5.374954
    136          1           0       14.294869    0.153058    5.289913
    137          1           0       13.153789   -1.075077    5.658332
    138          1           0       12.125285   -2.046754    2.423863
    139          1           0       11.416450   -2.009706    3.947093
    140          1           0       13.120426   -2.581453    3.749870
 ---------------------------------------------------------------------

 SCF Done:  E(RwB97XD) =  -3007.86665664     A.U. after   19 cycles

 Excitation energies and oscillator strengths:

 Excited State   1:      Singlet-A      1.6482 eV  752.24 nm  f=0.4052  <S**2>=0.000
     245 -> 248       -0.17904
     246 -> 247        0.68532
     245 <- 248       -0.11746
 This state for optimization and/or second-order correction.
 Total Energy, E(TD-HF/TD-DFT) =  -3007.80608676
 Copying the excited state density for this state as the 1-particle RhoCI density.

 Excited State   2:      Singlet-A      2.0949 eV  591.84 nm  f=0.1924  <S**2>=0.000
     245 -> 247        0.66469
     246 -> 248        0.22430
     246 <- 248        0.10001

 Excited State   3:      Singlet-A      3.2478 eV  381.75 nm  f=0.0043  <S**2>=0.000
     241 -> 247       -0.32059
     243 -> 247       -0.31264
     244 -> 247        0.51707

 Excited State   4:      Singlet-A      3.3617 eV  368.82 nm  f=0.0013  <S**2>=0.000
     239 -> 247        0.17166
     239 -> 249       -0.11104
     240 -> 247        0.38728
     240 -> 249       -0.26221
     241 -> 247        0.33738
     241 -> 249       -0.12163
     243 -> 247       -0.10553
     244 -> 247        0.23343

 Excited State   5:      Singlet-A      3.4240 eV  362.10 nm  f=0.0010  <S**2>=0.000
     243 -> 247        0.50192
     243 -> 249        0.20341
     243 -> 250        0.23753
     244 -> 247        0.29773
     244 -> 249        0.12505
     244 -> 250        0.15115

 The electronic state is 1-A.
 Alpha  occ. eigenvalues --  -46.94128 -19.31717 -19.29545 -19.26471 -19.24712
 Alpha  occ. eigenvalues --  -19.24103 -19.21952 -14.47076 -14.45949 -14.43666
 Alpha  occ. eigenvalues --  -14.42948 -10.44790 -10.42868 -10.39465 -10.36858
 Alpha  occ. eigenvalues --  -10.36703 -10.35450 -10.35435 -10.35130 -10.34849
 Alpha  occ. eigenvalues --  -10.33886 -10.33322 -10.33037 -10.32907 -10.32675
 Alpha  occ. eigenvalues --  -10.32471 -10.32346 -10.32331 -10.32266 -10.32202
 Alpha  occ. eigenvalues --  -10.31942 -10.31911 -10.31887 -10.31666 -10.31547
 Alpha  occ. eigenvalues --  -10.31337 -10.31085 -10.31021 -10.30571 -10.30460
 Alpha  occ. eigenvalues --  -10.30186 -10.30160 -10.30034 -10.30022 -10.29873
 Alpha  occ. eigenvalues --  -10.29809 -10.29797 -10.29719 -10.29608 -10.29285
 Alpha  occ. eigenvalues --  -10.29211 -10.29114 -10.29052 -10.29029 -10.29026
 Alpha  occ. eigenvalues --  -10.28999 -10.28993 -10.28948 -10.28782 -10.28722
 Alpha  occ. eigenvalues --  -10.28668 -10.28461 -10.28319 -10.28296 -10.27986
 Alpha  occ. eigenvalues --  -10.27799  -3.20127  -1.93731  -1.93260  -1.93099
 Alpha  occ. eigenvalues --   -1.19177  -1.17728  -1.11682  -1.11366  -1.10486
 Alpha  occ. eigenvalues --   -1.09630  -1.06126  -1.05741  -1.04238  -1.03711
 Alpha  occ. eigenvalues --   -0.95235  -0.92153  -0.91437  -0.90999  -0.90805
 Alpha  occ. eigenvalues --   -0.90643  -0.89932  -0.89767  -0.89217  -0.88536
 Alpha  occ. eigenvalues --   -0.88258  -0.86859  -0.86258  -0.85970  -0.85071
 Alpha  occ. eigenvalues --   -0.84359  -0.83809  -0.83072  -0.82566  -0.82230
 Alpha  occ. eigenvalues --   -0.81865  -0.80150  -0.79687  -0.79185  -0.78329
 Alpha  occ. eigenvalues --   -0.78095  -0.77348  -0.77002  -0.76815  -0.75933
 Alpha  occ. eigenvalues --   -0.75337  -0.74904  -0.73292  -0.72313  -0.70748
 Alpha  occ. eigenvalues --   -0.70541  -0.70392  -0.69132  -0.68855  -0.67472
 Alpha  occ. eigenvalues --   -0.67328  -0.67183  -0.66495  -0.66375  -0.66025
 Alpha  occ. eigenvalues --   -0.65832  -0.64953  -0.64719  -0.63910  -0.61946
 Alpha  occ. eigenvalues --   -0.61834  -0.61473  -0.61140  -0.60825  -0.59800
 Alpha  occ. eigenvalues --   -0.59200  -0.58955  -0.58286  -0.57850  -0.57432
 Alpha  occ. eigenvalues --   -0.56848  -0.56403  -0.56055  -0.55722  -0.55438
 Alpha  occ. eigenvalues --   -0.55133  -0.55076  -0.55037  -0.54943  -0.54703
 Alpha  occ. eigenvalues --   -0.54580  -0.54513  -0.54326  -0.54218  -0.53766
 Alpha  occ. eigenvalues --   -0.53674  -0.53156  -0.53008  -0.52784  -0.52501
 Alpha  occ. eigenvalues --   -0.52326  -0.52036  -0.51954  -0.51708  -0.51591
 Alpha  occ. eigenvalues --   -0.51428  -0.51332  -0.50878  -0.50797  -0.50687
 Alpha  occ. eigenvalues --   -0.50296  -0.50158  -0.50045  -0.49719  -0.49598
 Alpha  occ. eigenvalues --   -0.49214  -0.48982  -0.48860  -0.48424  -0.48316
 Alpha  occ. eigenvalues --   -0.48162  -0.48127  -0.47988  -0.47802  -0.47438
 Alpha  occ. eigenvalues --   -0.47320  -0.47248  -0.47011  -0.46798  -0.46663
 Alpha  occ. eigenvalues --   -0.46507  -0.46416  -0.46357  -0.46173  -0.45848
 Alpha  occ. eigenvalues --   -0.45747  -0.45485  -0.45221  -0.45099  -0.44912
 Alpha  occ. eigenvalues --   -0.44711  -0.44340  -0.44243  -0.44184  -0.43902
 Alpha  occ. eigenvalues --   -0.43617  -0.43607  -0.43369  -0.43150  -0.43124
 Alpha  occ. eigenvalues --   -0.42649  -0.42539  -0.42459  -0.42153  -0.42118
 Alpha  occ. eigenvalues --   -0.41604  -0.41124  -0.41066  -0.40528  -0.40465
 Alpha  occ. eigenvalues --   -0.40269  -0.40238  -0.40113  -0.39934  -0.39382
 Alpha  occ. eigenvalues --   -0.39374  -0.39300  -0.38896  -0.38381  -0.38338
 Alpha  occ. eigenvalues --   -0.37814  -0.37800  -0.37398  -0.36617  -0.36357
 Alpha  occ. eigenvalues --   -0.36119  -0.35930  -0.35290  -0.33258  -0.33012
 Alpha  occ. eigenvalues --   -0.32335  -0.32297  -0.31391  -0.31336  -0.25526
 Alpha  occ. eigenvalues --   -0.23252
 Alpha virt. eigenvalues --   -0.07446   0.01220   0.02704   0.04790   0.05621
 Alpha virt. eigenvalues --    0.06542   0.06949   0.07642   0.08334   0.09634
 Alpha virt. eigenvalues --    0.10973   0.11084   0.11792   0.12484   0.12708

 Mulliken charges:
               1
     1  Mg   0.966075
     2  C   -0.040918
     3  C   -0.055878
     4  C   -0.062433
     5  C   -0.119046
     6  N   -0.351537
     7  C   -0.005696
     8  C   -0.079282
     9  C   -0.081006
    10  C    0.058816
    11  C   -0.004172
    12  C    0.042028
    13  C    0.008996
    14  C    0.228565
    15  O   -0.271697
    16  O   -0.369913
    17  N   -0.421735
    18  C    0.139059
    19  C   -0.190330
    20  C   -0.065492
    21  C    0.126188
    22  C    0.083969
    23  C    0.006849
    24  O   -0.247906
    25  C   -0.001262
    26  N   -0.404867
    27  C    0.061116
    28  C   -0.112271
    29  C   -0.061461
    30  C    0.087314
    31  C    0.031510
    32  C   -0.010277
    33  C   -0.024133
    34  N   -0.445893
    35  C    0.158236
    36  C   -0.212725
    37  C    0.034303
    38  C    0.123713
    39  C    0.084701
    40  C    0.083031
    41  O   -0.236706
    42  C   -0.038934
    43  C    0.303454
    44  O   -0.236185
    45  O   -0.388449
    46  C    0.134088
    47  C    0.237651
    48  C   -0.152935
    49  C   -0.220280
    50  C    0.045455
    51  C    0.026772
    52  C   -0.029888
    53  C    0.019451
    54  C   -0.161130
    55  C    0.006807
    56  C   -0.027954
    57  C   -0.046264
    58  C    0.033354
    59  C   -0.194010
    60  C   -0.005586
    61  C   -0.016910
    62  C   -0.015684
    63  C    0.011886
    64  C   -0.220103
    65  C   -0.004885
    66  C    0.000544
    67  H   -0.014031
    68  H    0.022949
    69  H    0.006935
    70  H    0.081678
    71  H    0.039211
    72  H    0.025444
    73  H    0.050792
    74  H    0.031636
    75  H    0.032508
    76  H    0.038063
    77  H    0.047901
    78  H    0.057030
    79  H    0.043103
    80  H    0.066282
    81  H    0.048495
    82  H    0.048071
    83  H    0.051285
    84  H    0.053446
    85  H    0.039674
    86  H    0.026708
    87  H    0.026725
    88  H    0.041461
    89  H    0.037122
    90  H    0.024291
    91  H    0.031396
    92  H    0.030473
    93  H    0.046586
    94  H    0.035052
    95  H    0.018780
    96  H    0.068661
    97  H    0.052613
    98  H    0.089858
    99  H    0.060833
   100  H    0.060002
   101  H    0.050838
   102  H    0.062918
   103  H    0.056624
   104  H    0.037070
   105  H    0.051709
   106  H    0.045402
   107  H    0.053755
   108  H    0.022902
   109  H    0.014284
   110  H    0.027323
   111  H    0.020066
   112  H    0.013948
   113  H    0.024378
   114  H    0.013489
   115  H    0.029839
   116  H    0.032812
   117  H    0.022152
   118  H   -0.000400
   119  H    0.010452
   120  H    0.018564
   121  H    0.025944
   122  H    0.031503
   123  H    0.026359
   124  H    0.026863
   125  H    0.022871
   126  H    0.019843
   127  H    0.025563
   128  H    0.021878
   129  H    0.022553
   130  H    0.028068
   131  H    0.025789
   132  H    0.016956
   133  H    0.003674
   134  H    0.010645
   135  H    0.032286
   136  H    0.029892
   137  H    0.019109
   138  H    0.009670
   139  H    0.030964
   140  H    0.032311
 Sum of Mulliken charges =  -0.00000

 Dipole moment (field-independent basis, Debye):
    X=              4.4783    Y=              2.2634    Z=             -2.9187  Tot=              5.8049
 Quadrupole moment (field-independent basis, Debye-Ang):
   XX=           -376.8547   YY=           -419.0041   ZZ=           -403.6090
   XY=             10.4628   XZ=             15.9010   YZ=              2.0846

 Normal termination of Gaussian 16 at Thu May  5 05:47:12 2022.
