 Gaussian 16, Revision A.03,
 Gaussian 16:  ES64L-G16RevA.03 25-Dec-2016

 --------------------
 #p ZINDO=(nstates=5)
 --------------------

 -----------------------------
 step_651_chromophore_19 ZINDO
 -----------------------------
 Symbolic Z-matrix:
 Charge =  0 Multiplicity = 1

                         Standard orientation:
 ---------------------------------------------------------------------
 Center     Atomic      Atomic             Coordinates (Angstroms)
 Number     Number       Type             X           Y           Z
 ---------------------------------------------------------------------
      1         12           0       -6.003972    0.393709    0.089951
      2          6           0       -3.540354   -2.224213   -0.112494
      3          6           0       -3.592985    2.670977    0.340863
      4          6           0       -8.461880    2.759398    0.405902
      5          6           0       -8.432928   -2.037812   -0.358699
      6          7           0       -3.786021    0.139304    0.228307
      7          6           0       -2.996626   -0.939913    0.040890
      8          6           0       -1.458604   -0.519018   -0.142282
      9          6           0       -1.548729    1.091781    0.122103
     10          6           0       -3.062829    1.354032    0.203187
     11          6           0       -0.821046    1.600274    1.438445
     12          6           0       -0.901824   -0.971434   -1.505192
     13          6           0        0.425923   -1.725289   -1.564392
     14          6           0        1.531720   -1.439031   -0.496919
     15          8           0        1.271644   -1.444219    0.702864
     16          8           0        2.809474   -1.363569   -1.052454
     17          7           0       -6.016489    2.484497    0.346995
     18          6           0       -4.886779    3.220981    0.402549
     19          6           0       -5.253514    4.573459    0.551363
     20          6           0       -6.696780    4.593694    0.634475
     21          6           0       -7.087518    3.272652    0.462943
     22          6           0       -4.229863    5.732695    0.705481
     23          6           0       -7.622717    5.698114    0.791943
     24          8           0       -8.817779    5.517115    0.925476
     25          6           0       -7.163980    7.041695    1.198380
     26          7           0       -8.056500    0.377663    0.260806
     27          6           0       -8.871590    1.443538    0.381720
     28          6           0      -10.366212    1.071704    0.225200
     29          6           0      -10.341315   -0.384472   -0.274539
     30          6           0       -8.838263   -0.753606   -0.048484
     31          6           0      -11.149834    1.330984    1.491613
     32          6           0      -10.848756   -0.561557   -1.739803
     33          6           0      -12.194310   -1.201419   -1.909185
     34          7           0       -6.016561   -1.667075   -0.158406
     35          6           0       -7.117433   -2.531391   -0.285392
     36          6           0       -6.676782   -3.872237   -0.468647
     37          6           0       -5.310620   -3.790247   -0.427671
     38          6           0       -4.925000   -2.462749   -0.232450
     39          6           0       -7.491779   -5.179712   -0.472317
     40          6           0       -4.048815   -4.537098   -0.413402
     41          8           0       -3.875228   -5.781697   -0.398079
     42          6           0       -2.854273   -3.562283   -0.361648
     43          6           0       -2.013930   -3.915176    0.720569
     44          8           0       -2.040485   -3.446726    1.849007
     45          8           0       -0.963149   -4.623585    0.178649
     46          6           0        0.271411   -4.853708    0.963656
     47          6           0        3.828657   -1.390806    0.004120
     48          6           0        5.153851   -1.167539   -0.737480
     49          6           0        6.331830   -1.008266   -0.098607
     50          6           0        6.526060   -0.984922    1.431830
     51          6           0        7.569400   -0.777638   -1.044357
     52          6           0        8.291994    0.631992   -1.013856
     53          6           0        8.290731    1.324765   -2.375352
     54          6           0        9.414116    2.339044   -2.549361
     55          6           0        8.946316    3.573759   -3.301413
     56          6           0       10.634954    1.707180   -3.308140
     57          6           0       12.101376    2.059726   -2.861381
     58          6           0       12.786459    0.757223   -2.308096
     59          6           0       13.638911    1.139814   -1.108126
     60          6           0       15.006915    0.444711   -1.135678
     61          6           0       12.829570    0.716679    0.229646
     62          6           0       13.476676    1.175702    1.627044
     63          6           0       13.955038    0.018077    2.569838
     64          6           0       12.920529   -0.443932    3.582838
     65          6           0       13.276433   -0.167255    5.068176
     66          6           0       12.377823   -1.836627    3.463270
     67          1           0       -2.850088    3.465156    0.245711
     68          1           0       -9.350357    3.376785    0.557045
     69          1           0       -9.210089   -2.725244   -0.699189
     70          1           0       -0.953632   -1.066117    0.653914
     71          1           0       -1.122886    1.679311   -0.692152
     72          1           0        0.092410    2.159327    1.238510
     73          1           0       -0.507500    0.846947    2.161732
     74          1           0       -1.406357    2.264584    2.074660
     75          1           0       -0.793184   -0.021325   -2.028634
     76          1           0       -1.706189   -1.554189   -1.955444
     77          1           0        0.920326   -1.699650   -2.535661
     78          1           0        0.208671   -2.789118   -1.472202
     79          1           0       -3.211980    5.473487    0.414422
     80          1           0       -4.311081    6.012245    1.756028
     81          1           0       -4.676046    6.441688    0.008685
     82          1           0       -6.623606    7.525544    0.384145
     83          1           0       -6.540819    6.798391    2.059307
     84          1           0       -8.024375    7.626789    1.524345
     85          1           0      -10.720662    1.809871   -0.493841
     86          1           0      -10.855656   -1.027603    0.439629
     87          1           0      -12.019645    1.917541    1.195679
     88          1           0      -10.706655    2.054515    2.175771
     89          1           0      -11.445177    0.424054    2.019902
     90          1           0      -10.113662   -1.184822   -2.249985
     91          1           0      -10.782692    0.405116   -2.237909
     92          1           0      -12.779079   -0.498380   -2.503514
     93          1           0      -12.673566   -1.420080   -0.954771
     94          1           0      -12.080009   -2.040663   -2.595881
     95          1           0       -8.533057   -4.945660   -0.695578
     96          1           0       -7.462374   -5.754970    0.452812
     97          1           0       -7.136753   -5.833269   -1.269112
     98          1           0       -2.413281   -3.612730   -1.356982
     99          1           0       -0.057455   -5.103971    1.971920
    100          1           0        0.978083   -4.023451    0.942748
    101          1           0        0.773048   -5.752001    0.604311
    102          1           0        3.734701   -2.332195    0.544484
    103          1           0        3.713131   -0.524767    0.656443
    104          1           0        5.142216   -1.242414   -1.824864
    105          1           0        7.569083   -1.132623    1.711255
    106          1           0        5.815636   -1.717854    1.815258
    107          1           0        6.133529   -0.031181    1.784223
    108          1           0        7.439765   -1.122039   -2.069924
    109          1           0        8.328572   -1.448650   -0.642163
    110          1           0        9.238715    0.590376   -0.475767
    111          1           0        7.644441    1.232919   -0.374529
    112          1           0        7.368338    1.904611   -2.361880
    113          1           0        8.221071    0.663916   -3.239064
    114          1           0        9.916161    2.589604   -1.614574
    115          1           0        9.805330    4.187424   -3.573671
    116          1           0        8.178505    4.156514   -2.792493
    117          1           0        8.473533    3.216185   -4.215783
    118          1           0       10.598267    1.988384   -4.359903
    119          1           0       10.534478    0.624216   -3.383539
    120          1           0       12.033660    2.879093   -2.146834
    121          1           0       12.640224    2.492222   -3.704796
    122          1           0       13.354314    0.423456   -3.177568
    123          1           0       12.066893    0.033733   -1.925797
    124          1           0       13.903178    2.197196   -1.104352
    125          1           0       15.288212    0.095184   -0.142600
    126          1           0       15.802945    1.134091   -1.417948
    127          1           0       15.105191   -0.371598   -1.851549
    128          1           0       12.775631   -0.372232    0.229032
    129          1           0       11.798996    1.038534    0.080087
    130          1           0       12.814043    1.794648    2.231817
    131          1           0       14.355281    1.785028    1.414068
    132          1           0       14.917177    0.185794    3.054455
    133          1           0       14.112562   -0.907643    2.017197
    134          1           0       12.079534    0.222693    3.393729
    135          1           0       12.509137    0.543594    5.374954
    136          1           0       14.294869    0.153058    5.289913
    137          1           0       13.153789   -1.075077    5.658332
    138          1           0       12.125285   -2.046754    2.423863
    139          1           0       11.416450   -2.009706    3.947093
    140          1           0       13.120426   -2.581453    3.749870
 ---------------------------------------------------------------------

 SCF Done:  E(RZINDO/S) =  -474.304487609     A.U. after   20 cycles

 Excitation energies and oscillator strengths:

 Excited State   1:      Singlet-A      1.2384 eV 1001.18 nm  f=0.6258  <S**2>=0.000
     175 ->178        -0.17097
     176 ->177         0.66505
 This state for optimization and/or second-order correction.
 Total Energy, E(CIS/TDA) =  -474.258977788
 Copying the excited state density for this state as the 1-particle RhoCI density.

 Excited State   2:      Singlet-A      1.8685 eV  663.56 nm  f=0.1758  <S**2>=0.000
     175 ->177         0.60889
     176 ->178         0.30703
     176 ->179        -0.11723

 Excited State   3:      Singlet-A      2.7502 eV  450.82 nm  f=0.0014  <S**2>=0.000
     171 ->177         0.30657
     171 ->179         0.22014
     171 ->181         0.41250
     171 ->182        -0.23608
     171 ->186         0.14689
     171 ->187        -0.20921
     171 ->202         0.10994

 Excited State   4:      Singlet-A      2.8623 eV  433.16 nm  f=0.0025  <S**2>=0.000
     167 ->179         0.13980
     168 ->177         0.37120
     168 ->178        -0.22252
     168 ->179        -0.38211
     168 ->182        -0.16741
     168 ->186        -0.17424

 Excited State   5:      Singlet-A      3.0654 eV  404.47 nm  f=0.4692  <S**2>=0.000
     170 ->177         0.17446
     173 ->177         0.31449
     174 ->177         0.25686
     175 ->177        -0.19453
     176 ->178         0.44699
     176 ->179         0.17180

 The electronic state is 1-A.
 Alpha  occ. eigenvalues --   -1.85180  -1.82913  -1.78397  -1.73237  -1.72270
 Alpha  occ. eigenvalues --   -1.69268  -1.64802  -1.61500  -1.60619  -1.58089
 Alpha  occ. eigenvalues --   -1.55388  -1.52412  -1.48821  -1.48545  -1.47430
 Alpha  occ. eigenvalues --   -1.43488  -1.41758  -1.40079  -1.38522  -1.38189
 Alpha  occ. eigenvalues --   -1.35928  -1.32978  -1.32546  -1.30746  -1.29424
 Alpha  occ. eigenvalues --   -1.27398  -1.24848  -1.21173  -1.20560  -1.18165
 Alpha  occ. eigenvalues --   -1.17768  -1.15437  -1.15315  -1.14767  -1.13630
 Alpha  occ. eigenvalues --   -1.12882  -1.10564  -1.09992  -1.05138  -1.04104
 Alpha  occ. eigenvalues --   -1.02831  -1.02179  -0.99409  -0.97804  -0.97028
 Alpha  occ. eigenvalues --   -0.94989  -0.94391  -0.93571  -0.92196  -0.91696
 Alpha  occ. eigenvalues --   -0.91647  -0.90509  -0.89639  -0.88406  -0.86600
 Alpha  occ. eigenvalues --   -0.85645  -0.84939  -0.83233  -0.81883  -0.79677
 Alpha  occ. eigenvalues --   -0.78861  -0.78550  -0.76985  -0.76154  -0.75765
 Alpha  occ. eigenvalues --   -0.75540  -0.74907  -0.73866  -0.73457  -0.72299
 Alpha  occ. eigenvalues --   -0.72157  -0.71803  -0.71277  -0.70537  -0.70063
 Alpha  occ. eigenvalues --   -0.69774  -0.69331  -0.68759  -0.68616  -0.68121
 Alpha  occ. eigenvalues --   -0.67705  -0.67200  -0.66659  -0.66537  -0.65923
 Alpha  occ. eigenvalues --   -0.65282  -0.65137  -0.64959  -0.63724  -0.63581
 Alpha  occ. eigenvalues --   -0.63001  -0.62795  -0.62420  -0.62029  -0.61514
 Alpha  occ. eigenvalues --   -0.61305  -0.61044  -0.60361  -0.59921  -0.59535
 Alpha  occ. eigenvalues --   -0.59308  -0.58967  -0.58801  -0.58664  -0.58299
 Alpha  occ. eigenvalues --   -0.57663  -0.57302  -0.57192  -0.56922  -0.56277
 Alpha  occ. eigenvalues --   -0.56093  -0.55755  -0.55504  -0.55273  -0.54726
 Alpha  occ. eigenvalues --   -0.54569  -0.53886  -0.53678  -0.53120  -0.53067
 Alpha  occ. eigenvalues --   -0.52849  -0.52461  -0.52102  -0.51902  -0.51663
 Alpha  occ. eigenvalues --   -0.51334  -0.51127  -0.50702  -0.50469  -0.50323
 Alpha  occ. eigenvalues --   -0.50193  -0.49378  -0.49138  -0.48959  -0.48879
 Alpha  occ. eigenvalues --   -0.48493  -0.48442  -0.48076  -0.47714  -0.47491
 Alpha  occ. eigenvalues --   -0.47281  -0.46784  -0.46538  -0.46482  -0.46375
 Alpha  occ. eigenvalues --   -0.46215  -0.45732  -0.45466  -0.45369  -0.45311
 Alpha  occ. eigenvalues --   -0.45053  -0.44905  -0.44343  -0.43986  -0.43903
 Alpha  occ. eigenvalues --   -0.43387  -0.43174  -0.42777  -0.42582  -0.42553
 Alpha  occ. eigenvalues --   -0.41833  -0.41699  -0.41314  -0.38926  -0.38616
 Alpha  occ. eigenvalues --   -0.38312  -0.36810  -0.35544  -0.34738  -0.33859
 Alpha  occ. eigenvalues --   -0.32948  -0.32686  -0.31983  -0.31545  -0.26076
 Alpha  occ. eigenvalues --   -0.22062
 Alpha virt. eigenvalues --   -0.08957  -0.01379  -0.00225   0.00936   0.01578
 Alpha virt. eigenvalues --    0.02238   0.03132   0.03671   0.04566   0.05145
 Alpha virt. eigenvalues --    0.06755   0.06863   0.07587   0.07785   0.08404

 Mulliken charges:
               1
     1  Mg   0.420015
     2  C   -0.038145
     3  C   -0.055283
     4  C   -0.081863
     5  C   -0.068472
     6  N   -0.271287
     7  C    0.143264
     8  C   -0.002758
     9  C    0.011230
    10  C    0.094950
    11  C   -0.054551
    12  C   -0.014981
    13  C    0.007190
    14  C    0.457908
    15  O   -0.509440
    16  O   -0.269666
    17  N   -0.317782
    18  C    0.088963
    19  C   -0.013422
    20  C   -0.057037
    21  C    0.151156
    22  C   -0.053380
    23  C    0.322372
    24  O   -0.545585
    25  C   -0.030635
    26  N   -0.276711
    27  C    0.128139
    28  C    0.005912
    29  C    0.000041
    30  C    0.131103
    31  C   -0.051603
    32  C   -0.024323
    33  C   -0.055414
    34  N   -0.337575
    35  C    0.118932
    36  C    0.035417
    37  C   -0.033393
    38  C    0.119572
    39  C   -0.038232
    40  C    0.329612
    41  O   -0.531600
    42  C    0.068502
    43  C    0.507725
    44  O   -0.515202
    45  O   -0.284333
    46  C    0.070532
    47  C    0.102459
    48  C   -0.095994
    49  C   -0.017153
    50  C   -0.040347
    51  C   -0.036495
    52  C   -0.032571
    53  C   -0.023573
    54  C   -0.007551
    55  C   -0.050768
    56  C   -0.051033
    57  C   -0.043859
    58  C   -0.031664
    59  C   -0.012156
    60  C   -0.061936
    61  C   -0.039624
    62  C   -0.035241
    63  C   -0.032786
    64  C   -0.007828
    65  C   -0.062462
    66  C   -0.047351
    67  H    0.019762
    68  H    0.051040
    69  H    0.029819
    70  H    0.060286
    71  H    0.031090
    72  H    0.013996
    73  H    0.029232
    74  H    0.020625
    75  H    0.022006
    76  H    0.026391
    77  H    0.029493
    78  H    0.043471
    79  H    0.031412
    80  H    0.037625
    81  H    0.030034
    82  H    0.033348
    83  H    0.038289
    84  H    0.037476
    85  H    0.031386
    86  H    0.031199
    87  H    0.012709
    88  H    0.027660
    89  H    0.023706
    90  H    0.015225
    91  H    0.024160
    92  H    0.015633
    93  H    0.031252
    94  H    0.021245
    95  H    0.015832
    96  H    0.043434
    97  H    0.032193
    98  H    0.063400
    99  H    0.046938
   100  H    0.051603
   101  H    0.030736
   102  H    0.058047
   103  H    0.052772
   104  H    0.041916
   105  H    0.035093
   106  H    0.029655
   107  H    0.031766
   108  H    0.028585
   109  H    0.008665
   110  H    0.028142
   111  H    0.012861
   112  H    0.010682
   113  H    0.027951
   114  H    0.022811
   115  H    0.017521
   116  H    0.016958
   117  H    0.015416
   118  H    0.005889
   119  H    0.013059
   120  H    0.019154
   121  H    0.020003
   122  H    0.025313
   123  H    0.031614
   124  H    0.026113
   125  H    0.016422
   126  H    0.009699
   127  H    0.018692
   128  H    0.020150
   129  H    0.018557
   130  H    0.023542
   131  H    0.016090
   132  H    0.021999
   133  H    0.012677
   134  H    0.009108
   135  H    0.018882
   136  H    0.023626
   137  H    0.013534
   138  H    0.001781
   139  H    0.019103
   140  H    0.020521
 Sum of Mulliken charges =  -0.00000

 Dipole moment (field-independent basis, Debye):
    X=              5.0939    Y=              1.9109    Z=             -5.3568  Tot=              7.6351
 N-N= 4.257215709114D+03 E-N= 0.000000000000D+00  KE=-9.189161877517D+03
 Leave Link  601 at Thu May  5 06:10:24 2022, MaxMem=  6710886400 cpu:               0.7 elap:               0.0
 (Enter /sw/apps/gaussian-16.0/g16/l9999.exe)
 1\1\GINC-BP1-COMPUTE196\SP\RZINDO CIS\STO-3G\C55H74Mg1N4O6\OF15641\05-
 May-2022\0\\#p ZINDO=(nstates=5)\\step_651_chromophore_19 ZINDO\\0,1\M
 g,0,25.793,50.72,25.745\C,0,23.572,51.681,28.411\C,0,27.935,49.461,27.
 956\C,0,27.863,49.988,23.115\C,0,23.414,51.897,23.516\N,0,25.736,50.73
 5,27.981\C,0,24.756,51.068,28.848\C,0,25.069,50.526,30.326\C,0,26.564,
 49.9,30.112\C,0,26.772,49.99,28.59\C,0,27.728,50.657,30.882\C,0,23.975
 ,49.563,30.824\C,0,23.358,49.773,32.206\C,0,24.215,50.399,33.354\O,0,2

 Normal termination of Gaussian 16 at Thu May  5 06:10:24 2022.
