 Gaussian 16, Revision A.03,
 Gaussian 16:  ES64L-G16RevA.03 25-Dec-2016

 ------------------------------
 #p blyp/Def2SVP td=(nstates=5)
 ------------------------------

 -------------------------------------------------
 step_751_chromophore_5 TDDFT with blyp functional
 -------------------------------------------------
 Symbolic Z-matrix:
 Charge =  0 Multiplicity = 1

                         Standard orientation:
 ---------------------------------------------------------------------
 Center     Atomic      Atomic             Coordinates (Angstroms)
 Number     Number       Type             X           Y           Z
 ---------------------------------------------------------------------
      1         12           0        5.251286    0.538710   -0.149862
      2          6           0        3.718402   -2.724241   -0.202561
      3          6           0        3.054307    1.458079   -2.618392
      4          6           0        6.223182    3.617880    0.270597
      5          6           0        7.072065   -0.471258    2.798838
      6          7           0        3.437619   -0.447157   -1.079357
      7          6           0        3.106284   -1.825181   -1.020846
      8          6           0        1.977680   -2.180014   -1.962950
      9          6           0        1.992514   -0.859241   -2.929356
     10          6           0        2.920484    0.112913   -2.200454
     11          6           0        2.379656   -1.082972   -4.428653
     12          6           0        0.603261   -2.321369   -1.113410
     13          6           0       -0.237054   -3.610237   -1.405265
     14          6           0       -1.555184   -3.341563   -2.136581
     15          8           0       -1.637377   -3.156842   -3.310714
     16          8           0       -2.550324   -3.255917   -1.268511
     17          7           0        4.725101    2.350340   -1.088017
     18          6           0        3.824694    2.488329   -2.106766
     19          6           0        3.879334    3.870742   -2.539146
     20          6           0        4.898826    4.482217   -1.763689
     21          6           0        5.334633    3.478595   -0.795286
     22          6           0        2.892981    4.505746   -3.609608
     23          6           0        5.449325    5.864839   -1.988152
     24          8           0        4.818908    6.544918   -2.796708
     25          6           0        6.546581    6.432636   -1.364352
     26          7           0        6.449981    1.396156    1.296223
     27          6           0        6.666375    2.721439    1.262633
     28          6           0        7.289780    3.205726    2.555228
     29          6           0        7.385392    1.956369    3.439906
     30          6           0        7.001735    0.906862    2.452706
     31          6           0        8.648350    3.970711    2.340504
     32          6           0        6.423741    1.843079    4.706453
     33          6           0        7.217250    1.786061    6.053906
     34          7           0        5.435231   -1.275548    1.014415
     35          6           0        6.306550   -1.522896    2.109041
     36          6           0        6.168768   -2.940909    2.523728
     37          6           0        5.120383   -3.395674    1.695504
     38          6           0        4.770303   -2.347763    0.758572
     39          6           0        6.709509   -3.558616    3.808845
     40          6           0        4.271939   -4.560806    1.394202
     41          8           0        4.188158   -5.662193    1.914658
     42          6           0        3.401167   -4.185121    0.139565
     43          6           0        3.537729   -5.160523   -0.969316
     44          8           0        2.644763   -5.947019   -1.287669
     45          8           0        4.795066   -5.110898   -1.585167
     46          6           0        5.036047   -6.272508   -2.505037
     47          6           0       -3.862439   -2.864866   -1.834839
     48          6           0       -4.037804   -1.429834   -1.470758
     49          6           0       -4.753862   -0.785316   -0.510465
     50          6           0       -5.571209   -1.450375    0.479792
     51          6           0       -4.895098    0.737603   -0.536866
     52          6           0       -5.952280    1.352665   -1.509171
     53          6           0       -6.035683    2.853769   -1.211269
     54          6           0       -7.392909    3.272133   -0.629693
     55          6           0       -7.501129    4.806610   -0.665222
     56          6           0       -7.664023    2.742081    0.841283
     57          6           0       -9.087326    2.503881    1.248643
     58          6           0       -9.298236    1.021001    1.638988
     59          6           0      -10.399954    0.414569    0.910035
     60          6           0      -10.141645    0.041203   -0.538661
     61          6           0      -10.821869   -0.918125    1.629059
     62          6           0      -12.093184   -0.584685    2.451308
     63          6           0      -13.359136   -0.798136    1.572678
     64          6           0      -14.415684    0.244051    1.786003
     65          6           0      -15.765190   -0.285334    2.539100
     66          6           0      -14.754172    0.933437    0.438351
     67          1           0        2.480991    1.721928   -3.509614
     68          1           0        6.533554    4.654561    0.414165
     69          1           0        7.424554   -0.689751    3.809723
     70          1           0        2.236480   -3.088321   -2.508807
     71          1           0        1.108381   -0.225464   -2.992199
     72          1           0        2.712485   -2.118752   -4.498641
     73          1           0        3.181808   -0.433211   -4.780173
     74          1           0        1.505589   -0.932431   -5.062800
     75          1           0       -0.026240   -1.474769   -1.389887
     76          1           0        0.756351   -2.247125   -0.036349
     77          1           0       -0.300633   -4.173848   -0.474357
     78          1           0        0.307048   -4.211383   -2.134198
     79          1           0        2.914726    5.595775   -3.604059
     80          1           0        1.926580    4.059704   -3.377530
     81          1           0        3.249601    4.158557   -4.579083
     82          1           0        7.472137    5.865094   -1.258437
     83          1           0        6.071892    6.760222   -0.439333
     84          1           0        6.784838    7.318959   -1.952349
     85          1           0        6.667897    3.952295    3.047067
     86          1           0        8.392274    1.648522    3.718660
     87          1           0        8.607429    4.249280    1.287574
     88          1           0        9.542155    3.361505    2.473715
     89          1           0        8.712033    4.793470    3.052271
     90          1           0        5.898150    0.888379    4.688301
     91          1           0        5.655777    2.609718    4.808611
     92          1           0        6.793540    2.473628    6.785881
     93          1           0        8.300280    1.701807    5.959034
     94          1           0        6.998882    0.785488    6.425995
     95          1           0        6.886040   -4.619928    3.634182
     96          1           0        5.965759   -3.495181    4.603989
     97          1           0        7.686911   -3.172511    4.101127
     98          1           0        2.358112   -4.355248    0.405079
     99          1           0        4.316618   -6.406519   -3.312740
    100          1           0        5.065390   -7.247520   -2.019018
    101          1           0        6.006155   -6.118960   -2.979253
    102          1           0       -4.694876   -3.473435   -1.483293
    103          1           0       -3.932904   -2.870202   -2.923244
    104          1           0       -3.551310   -0.699869   -2.117618
    105          1           0       -4.899666   -1.744840    1.286249
    106          1           0       -5.945966   -2.364582    0.019056
    107          1           0       -6.409634   -0.927950    0.942255
    108          1           0       -3.914147    1.211754   -0.578622
    109          1           0       -5.111791    0.867871    0.522844
    110          1           0       -6.902097    0.818674   -1.472969
    111          1           0       -5.431986    1.378368   -2.466389
    112          1           0       -5.953241    3.319632   -2.193233
    113          1           0       -5.199987    3.119819   -0.563523
    114          1           0       -8.199098    2.946942   -1.287774
    115          1           0       -7.774195    5.241182    0.296761
    116          1           0       -8.358752    5.096406   -1.271823
    117          1           0       -6.649049    5.334431   -1.093207
    118          1           0       -7.357162    3.517253    1.543831
    119          1           0       -6.977978    1.907783    0.986748
    120          1           0       -9.808666    2.841882    0.504201
    121          1           0       -9.388614    3.170439    2.056548
    122          1           0       -9.479373    0.897160    2.707123
    123          1           0       -8.473966    0.340859    1.421780
    124          1           0      -11.224957    1.125428    0.866164
    125          1           0      -10.036509   -1.033433   -0.688045
    126          1           0       -9.273056    0.579020   -0.919143
    127          1           0      -10.939415    0.419423   -1.177999
    128          1           0      -10.030182   -1.421539    2.184169
    129          1           0      -11.128134   -1.713313    0.948894
    130          1           0      -12.112334    0.419455    2.877542
    131          1           0      -12.014075   -1.264328    3.299721
    132          1           0      -13.741115   -1.779471    1.850388
    133          1           0      -13.221919   -0.889791    0.495687
    134          1           0      -14.015911    0.959052    2.505004
    135          1           0      -15.848156   -1.351048    2.748899
    136          1           0      -16.660049    0.033898    2.005114
    137          1           0      -15.844577    0.189587    3.517401
    138          1           0      -14.385326    1.959135    0.433874
    139          1           0      -15.812157    0.925550    0.175531
    140          1           0      -14.320679    0.511417   -0.469319
 ---------------------------------------------------------------------

 SCF Done:  E(RB-LYP) =  -3007.33567067     A.U. after   21 cycles

 Excitation energies and oscillator strengths:

 Excited State   1:      Singlet-A      1.7261 eV  718.28 nm  f=0.2690  <S**2>=0.000
     243 -> 247        0.14399
     245 -> 248       -0.14747
     246 -> 247        0.67981
     246 <- 247       -0.15889
 This state for optimization and/or second-order correction.
 Total Energy, E(TD-HF/TD-DFT) =  -3007.27223679
 Copying the excited state density for this state as the 1-particle RhoCI density.

 Excited State   2:      Singlet-A      1.7963 eV  690.23 nm  f=0.0044  <S**2>=0.000
     244 -> 247        0.69690

 Excited State   3:      Singlet-A      1.8620 eV  665.87 nm  f=0.0402  <S**2>=0.000
     243 -> 247        0.62714
     245 -> 247        0.27683
     246 -> 247       -0.15055

 Excited State   4:      Singlet-A      2.0729 eV  598.12 nm  f=0.0672  <S**2>=0.000
     242 -> 247       -0.18773
     243 -> 247       -0.27454
     245 -> 247        0.55474
     246 -> 248        0.24475

 Excited State   5:      Singlet-A      2.1408 eV  579.14 nm  f=0.0046  <S**2>=0.000
     242 -> 247        0.68097
     245 -> 247        0.14895

 The electronic state is 1-A.
 Alpha  occ. eigenvalues --  -46.28036 -18.82138 -18.81860 -18.76733 -18.75638
 Alpha  occ. eigenvalues --  -18.75472 -18.74618 -14.03815 -14.03352 -14.01126
 Alpha  occ. eigenvalues --  -14.00938 -10.03755 -10.02830  -9.99498  -9.99144
 Alpha  occ. eigenvalues --   -9.97470  -9.97462  -9.97100  -9.96944  -9.96470
 Alpha  occ. eigenvalues --   -9.96304  -9.96162  -9.95799  -9.95656  -9.94838
 Alpha  occ. eigenvalues --   -9.94650  -9.94404  -9.94202  -9.94133  -9.93906
 Alpha  occ. eigenvalues --   -9.93818  -9.93783  -9.93782  -9.93556  -9.93524
 Alpha  occ. eigenvalues --   -9.93446  -9.93036  -9.92995  -9.92908  -9.92548
 Alpha  occ. eigenvalues --   -9.92387  -9.92357  -9.92312  -9.92309  -9.92283
 Alpha  occ. eigenvalues --   -9.92193  -9.92127  -9.92042  -9.91978  -9.91906
 Alpha  occ. eigenvalues --   -9.91742  -9.91624  -9.91242  -9.91219  -9.91069
 Alpha  occ. eigenvalues --   -9.91011  -9.90930  -9.90878  -9.90805  -9.90797
 Alpha  occ. eigenvalues --   -9.90769  -9.90731  -9.90688  -9.90489  -9.90379
 Alpha  occ. eigenvalues --   -9.90370  -2.92574  -1.73000  -1.72457  -1.72282
 Alpha  occ. eigenvalues --   -0.98904  -0.96255  -0.91516  -0.91044  -0.90396
 Alpha  occ. eigenvalues --   -0.88861  -0.87582  -0.86713  -0.85937  -0.84666
 Alpha  occ. eigenvalues --   -0.74616  -0.74191  -0.73651  -0.72940  -0.72198
 Alpha  occ. eigenvalues --   -0.72122  -0.71289  -0.71062  -0.70833  -0.69853
 Alpha  occ. eigenvalues --   -0.69422  -0.68901  -0.68461  -0.67865  -0.67434
 Alpha  occ. eigenvalues --   -0.66931  -0.66287  -0.65659  -0.65020  -0.64517
 Alpha  occ. eigenvalues --   -0.64289  -0.62510  -0.61950  -0.61521  -0.60912
 Alpha  occ. eigenvalues --   -0.60448  -0.60022  -0.59940  -0.59828  -0.58763
 Alpha  occ. eigenvalues --   -0.58139  -0.57476  -0.57006  -0.55205  -0.54802
 Alpha  occ. eigenvalues --   -0.54441  -0.53737  -0.52919  -0.52467  -0.52106
 Alpha  occ. eigenvalues --   -0.51514  -0.51251  -0.51002  -0.50320  -0.49938
 Alpha  occ. eigenvalues --   -0.49870  -0.49503  -0.49033  -0.48923  -0.46823
 Alpha  occ. eigenvalues --   -0.46459  -0.45585  -0.45383  -0.44820  -0.44379
 Alpha  occ. eigenvalues --   -0.43793  -0.43694  -0.42950  -0.42507  -0.42498
 Alpha  occ. eigenvalues --   -0.41583  -0.41486  -0.41419  -0.41342  -0.41210
 Alpha  occ. eigenvalues --   -0.40884  -0.40824  -0.40586  -0.40304  -0.40214
 Alpha  occ. eigenvalues --   -0.39909  -0.39833  -0.39599  -0.39479  -0.38883
 Alpha  occ. eigenvalues --   -0.38752  -0.38336  -0.38287  -0.38094  -0.38033
 Alpha  occ. eigenvalues --   -0.37961  -0.37719  -0.37639  -0.37438  -0.37116
 Alpha  occ. eigenvalues --   -0.37078  -0.36934  -0.36690  -0.36531  -0.36359
 Alpha  occ. eigenvalues --   -0.36202  -0.36056  -0.35889  -0.35587  -0.35362
 Alpha  occ. eigenvalues --   -0.35279  -0.35126  -0.34834  -0.34772  -0.34683
 Alpha  occ. eigenvalues --   -0.34620  -0.34388  -0.34237  -0.34032  -0.34013
 Alpha  occ. eigenvalues --   -0.33912  -0.33676  -0.33568  -0.33459  -0.33320
 Alpha  occ. eigenvalues --   -0.33042  -0.32802  -0.32629  -0.32375  -0.32079
 Alpha  occ. eigenvalues --   -0.31868  -0.31854  -0.31704  -0.31649  -0.31503
 Alpha  occ. eigenvalues --   -0.31347  -0.30920  -0.30869  -0.30795  -0.30512
 Alpha  occ. eigenvalues --   -0.30441  -0.30361  -0.30135  -0.29981  -0.29873
 Alpha  occ. eigenvalues --   -0.29783  -0.29629  -0.29484  -0.29157  -0.28938
 Alpha  occ. eigenvalues --   -0.28797  -0.28561  -0.28208  -0.27760  -0.27709
 Alpha  occ. eigenvalues --   -0.27651  -0.27332  -0.27142  -0.26678  -0.26518
 Alpha  occ. eigenvalues --   -0.26418  -0.25949  -0.25682  -0.25647  -0.25288
 Alpha  occ. eigenvalues --   -0.25077  -0.24968  -0.24447  -0.23818  -0.23178
 Alpha  occ. eigenvalues --   -0.22587  -0.22306  -0.21674  -0.21427  -0.20710
 Alpha  occ. eigenvalues --   -0.20453  -0.19619  -0.18561  -0.18279  -0.17696
 Alpha  occ. eigenvalues --   -0.15715
 Alpha virt. eigenvalues --   -0.11775  -0.06917  -0.05732  -0.04741  -0.03230
 Alpha virt. eigenvalues --   -0.02965  -0.02607  -0.02015  -0.00701   0.00096
 Alpha virt. eigenvalues --    0.00817   0.01392   0.02317   0.02593   0.02630

 Mulliken charges:
               1
     1  Mg   0.686530
     2  C    0.088482
     3  C   -0.083932
     4  C   -0.078397
     5  C   -0.038903
     6  N   -0.218299
     7  C   -0.101823
     8  C    0.034003
     9  C   -0.013218
    10  C    0.036385
    11  C    0.118550
    12  C    0.102565
    13  C    0.140602
    14  C    0.018541
    15  O   -0.175276
    16  O   -0.232285
    17  N   -0.258160
    18  C    0.133864
    19  C   -0.151630
    20  C    0.045195
    21  C    0.095754
    22  C    0.182481
    23  C   -0.115915
    24  O   -0.185430
    25  C    0.187185
    26  N   -0.234972
    27  C    0.066979
    28  C    0.009289
    29  C    0.089287
    30  C   -0.046560
    31  C    0.117981
    32  C    0.074455
    33  C    0.056277
    34  N   -0.203020
    35  C    0.069632
    36  C   -0.176484
    37  C    0.053652
    38  C   -0.001784
    39  C    0.154035
    40  C   -0.023814
    41  O   -0.124976
    42  C    0.101215
    43  C    0.087096
    44  O   -0.184555
    45  O   -0.297599
    46  C    0.224536
    47  C    0.372850
    48  C   -0.120340
    49  C   -0.191386
    50  C    0.150556
    51  C    0.082607
    52  C    0.151467
    53  C    0.107829
    54  C   -0.085181
    55  C    0.115076
    56  C    0.108269
    57  C    0.117078
    58  C    0.131627
    59  C   -0.107607
    60  C    0.125990
    61  C    0.087864
    62  C    0.064727
    63  C    0.134020
    64  C   -0.082308
    65  C    0.073575
    66  C    0.085998
    67  H   -0.062375
    68  H   -0.083103
    69  H   -0.045861
    70  H    0.003754
    71  H   -0.012672
    72  H   -0.009332
    73  H   -0.005743
    74  H    0.003606
    75  H   -0.010564
    76  H   -0.002867
    77  H   -0.004584
    78  H   -0.000963
    79  H    0.019593
    80  H   -0.002775
    81  H   -0.003702
    82  H    0.014753
    83  H    0.023502
    84  H   -0.009484
    85  H   -0.018970
    86  H   -0.026401
    87  H   -0.009832
    88  H   -0.011892
    89  H   -0.001264
    90  H   -0.005517
    91  H   -0.018017
    92  H    0.001083
    93  H   -0.006975
    94  H   -0.021031
    95  H    0.002030
    96  H    0.017739
    97  H   -0.008825
    98  H   -0.013800
    99  H    0.010684
   100  H    0.017367
   101  H    0.006859
   102  H   -0.017726
   103  H   -0.002183
   104  H   -0.043541
   105  H    0.004776
   106  H   -0.013849
   107  H   -0.009656
   108  H   -0.030487
   109  H   -0.043025
   110  H   -0.016730
   111  H   -0.034031
   112  H   -0.036328
   113  H   -0.026039
   114  H   -0.034478
   115  H   -0.028639
   116  H   -0.033355
   117  H   -0.016318
   118  H   -0.040430
   119  H   -0.035617
   120  H   -0.036575
   121  H   -0.041511
   122  H   -0.042650
   123  H   -0.033426
   124  H   -0.038068
   125  H   -0.011943
   126  H   -0.032998
   127  H   -0.027060
   128  H   -0.045241
   129  H   -0.040014
   130  H   -0.027269
   131  H   -0.039834
   132  H   -0.039895
   133  H   -0.030301
   134  H   -0.026784
   135  H   -0.011522
   136  H   -0.018834
   137  H   -0.020368
   138  H   -0.012890
   139  H   -0.019268
   140  H   -0.020568
 Sum of Mulliken charges =  -0.00000

 Dipole moment (field-independent basis, Debye):
    X=              1.4809    Y=              4.1849    Z=              2.3985  Tot=              5.0457
 Quadrupole moment (field-independent basis, Debye-Ang):
   XX=           -351.2180   YY=           -448.0369   ZZ=           -399.0724
   XY=             11.0440   XZ=              8.8598   YZ=             24.7130

 Normal termination of Gaussian 16 at Thu May  5 09:29:11 2022.
