 Gaussian 16, Revision A.03,
 Gaussian 16:  ES64L-G16RevA.03 25-Dec-2016

 -----------------------------------
 #p cam-b3lyp/Def2SVP td=(nstates=5)
 -----------------------------------

 ------------------------------------------------------
 step_751_chromophore_5 TDDFT with cam-b3lyp functional
 ------------------------------------------------------
 Symbolic Z-matrix:
 Charge =  0 Multiplicity = 1

                         Standard orientation:
 ---------------------------------------------------------------------
 Center     Atomic      Atomic             Coordinates (Angstroms)
 Number     Number       Type             X           Y           Z
 ---------------------------------------------------------------------
      1         12           0        5.251286    0.538710   -0.149862
      2          6           0        3.718402   -2.724241   -0.202561
      3          6           0        3.054307    1.458079   -2.618392
      4          6           0        6.223182    3.617880    0.270597
      5          6           0        7.072065   -0.471258    2.798838
      6          7           0        3.437619   -0.447157   -1.079357
      7          6           0        3.106284   -1.825181   -1.020846
      8          6           0        1.977680   -2.180014   -1.962950
      9          6           0        1.992514   -0.859241   -2.929356
     10          6           0        2.920484    0.112913   -2.200454
     11          6           0        2.379656   -1.082972   -4.428653
     12          6           0        0.603261   -2.321369   -1.113410
     13          6           0       -0.237054   -3.610237   -1.405265
     14          6           0       -1.555184   -3.341563   -2.136581
     15          8           0       -1.637377   -3.156842   -3.310714
     16          8           0       -2.550324   -3.255917   -1.268511
     17          7           0        4.725101    2.350340   -1.088017
     18          6           0        3.824694    2.488329   -2.106766
     19          6           0        3.879334    3.870742   -2.539146
     20          6           0        4.898826    4.482217   -1.763689
     21          6           0        5.334633    3.478595   -0.795286
     22          6           0        2.892981    4.505746   -3.609608
     23          6           0        5.449325    5.864839   -1.988152
     24          8           0        4.818908    6.544918   -2.796708
     25          6           0        6.546581    6.432636   -1.364352
     26          7           0        6.449981    1.396156    1.296223
     27          6           0        6.666375    2.721439    1.262633
     28          6           0        7.289780    3.205726    2.555228
     29          6           0        7.385392    1.956369    3.439906
     30          6           0        7.001735    0.906862    2.452706
     31          6           0        8.648350    3.970711    2.340504
     32          6           0        6.423741    1.843079    4.706453
     33          6           0        7.217250    1.786061    6.053906
     34          7           0        5.435231   -1.275548    1.014415
     35          6           0        6.306550   -1.522896    2.109041
     36          6           0        6.168768   -2.940909    2.523728
     37          6           0        5.120383   -3.395674    1.695504
     38          6           0        4.770303   -2.347763    0.758572
     39          6           0        6.709509   -3.558616    3.808845
     40          6           0        4.271939   -4.560806    1.394202
     41          8           0        4.188158   -5.662193    1.914658
     42          6           0        3.401167   -4.185121    0.139565
     43          6           0        3.537729   -5.160523   -0.969316
     44          8           0        2.644763   -5.947019   -1.287669
     45          8           0        4.795066   -5.110898   -1.585167
     46          6           0        5.036047   -6.272508   -2.505037
     47          6           0       -3.862439   -2.864866   -1.834839
     48          6           0       -4.037804   -1.429834   -1.470758
     49          6           0       -4.753862   -0.785316   -0.510465
     50          6           0       -5.571209   -1.450375    0.479792
     51          6           0       -4.895098    0.737603   -0.536866
     52          6           0       -5.952280    1.352665   -1.509171
     53          6           0       -6.035683    2.853769   -1.211269
     54          6           0       -7.392909    3.272133   -0.629693
     55          6           0       -7.501129    4.806610   -0.665222
     56          6           0       -7.664023    2.742081    0.841283
     57          6           0       -9.087326    2.503881    1.248643
     58          6           0       -9.298236    1.021001    1.638988
     59          6           0      -10.399954    0.414569    0.910035
     60          6           0      -10.141645    0.041203   -0.538661
     61          6           0      -10.821869   -0.918125    1.629059
     62          6           0      -12.093184   -0.584685    2.451308
     63          6           0      -13.359136   -0.798136    1.572678
     64          6           0      -14.415684    0.244051    1.786003
     65          6           0      -15.765190   -0.285334    2.539100
     66          6           0      -14.754172    0.933437    0.438351
     67          1           0        2.480991    1.721928   -3.509614
     68          1           0        6.533554    4.654561    0.414165
     69          1           0        7.424554   -0.689751    3.809723
     70          1           0        2.236480   -3.088321   -2.508807
     71          1           0        1.108381   -0.225464   -2.992199
     72          1           0        2.712485   -2.118752   -4.498641
     73          1           0        3.181808   -0.433211   -4.780173
     74          1           0        1.505589   -0.932431   -5.062800
     75          1           0       -0.026240   -1.474769   -1.389887
     76          1           0        0.756351   -2.247125   -0.036349
     77          1           0       -0.300633   -4.173848   -0.474357
     78          1           0        0.307048   -4.211383   -2.134198
     79          1           0        2.914726    5.595775   -3.604059
     80          1           0        1.926580    4.059704   -3.377530
     81          1           0        3.249601    4.158557   -4.579083
     82          1           0        7.472137    5.865094   -1.258437
     83          1           0        6.071892    6.760222   -0.439333
     84          1           0        6.784838    7.318959   -1.952349
     85          1           0        6.667897    3.952295    3.047067
     86          1           0        8.392274    1.648522    3.718660
     87          1           0        8.607429    4.249280    1.287574
     88          1           0        9.542155    3.361505    2.473715
     89          1           0        8.712033    4.793470    3.052271
     90          1           0        5.898150    0.888379    4.688301
     91          1           0        5.655777    2.609718    4.808611
     92          1           0        6.793540    2.473628    6.785881
     93          1           0        8.300280    1.701807    5.959034
     94          1           0        6.998882    0.785488    6.425995
     95          1           0        6.886040   -4.619928    3.634182
     96          1           0        5.965759   -3.495181    4.603989
     97          1           0        7.686911   -3.172511    4.101127
     98          1           0        2.358112   -4.355248    0.405079
     99          1           0        4.316618   -6.406519   -3.312740
    100          1           0        5.065390   -7.247520   -2.019018
    101          1           0        6.006155   -6.118960   -2.979253
    102          1           0       -4.694876   -3.473435   -1.483293
    103          1           0       -3.932904   -2.870202   -2.923244
    104          1           0       -3.551310   -0.699869   -2.117618
    105          1           0       -4.899666   -1.744840    1.286249
    106          1           0       -5.945966   -2.364582    0.019056
    107          1           0       -6.409634   -0.927950    0.942255
    108          1           0       -3.914147    1.211754   -0.578622
    109          1           0       -5.111791    0.867871    0.522844
    110          1           0       -6.902097    0.818674   -1.472969
    111          1           0       -5.431986    1.378368   -2.466389
    112          1           0       -5.953241    3.319632   -2.193233
    113          1           0       -5.199987    3.119819   -0.563523
    114          1           0       -8.199098    2.946942   -1.287774
    115          1           0       -7.774195    5.241182    0.296761
    116          1           0       -8.358752    5.096406   -1.271823
    117          1           0       -6.649049    5.334431   -1.093207
    118          1           0       -7.357162    3.517253    1.543831
    119          1           0       -6.977978    1.907783    0.986748
    120          1           0       -9.808666    2.841882    0.504201
    121          1           0       -9.388614    3.170439    2.056548
    122          1           0       -9.479373    0.897160    2.707123
    123          1           0       -8.473966    0.340859    1.421780
    124          1           0      -11.224957    1.125428    0.866164
    125          1           0      -10.036509   -1.033433   -0.688045
    126          1           0       -9.273056    0.579020   -0.919143
    127          1           0      -10.939415    0.419423   -1.177999
    128          1           0      -10.030182   -1.421539    2.184169
    129          1           0      -11.128134   -1.713313    0.948894
    130          1           0      -12.112334    0.419455    2.877542
    131          1           0      -12.014075   -1.264328    3.299721
    132          1           0      -13.741115   -1.779471    1.850388
    133          1           0      -13.221919   -0.889791    0.495687
    134          1           0      -14.015911    0.959052    2.505004
    135          1           0      -15.848156   -1.351048    2.748899
    136          1           0      -16.660049    0.033898    2.005114
    137          1           0      -15.844577    0.189587    3.517401
    138          1           0      -14.385326    1.959135    0.433874
    139          1           0      -15.812157    0.925550    0.175531
    140          1           0      -14.320679    0.511417   -0.469319
 ---------------------------------------------------------------------

 SCF Done:  E(RCAM-B3LYP) =  -3007.13313853     A.U. after   18 cycles

 Excitation energies and oscillator strengths:

 Excited State   1:      Singlet-A      1.6556 eV  748.86 nm  f=0.3616  <S**2>=0.000
     245 -> 248        0.14508
     246 -> 247        0.69331
 This state for optimization and/or second-order correction.
 Total Energy, E(TD-HF/TD-DFT) =  -3007.07229467
 Copying the excited state density for this state as the 1-particle RhoCI density.

 Excited State   2:      Singlet-A      2.3136 eV  535.90 nm  f=0.1010  <S**2>=0.000
     245 -> 247        0.62747
     246 -> 248       -0.30595

 Excited State   3:      Singlet-A      3.3352 eV  371.74 nm  f=0.0310  <S**2>=0.000
     241 -> 247        0.59518
     242 -> 247        0.10882
     243 -> 247        0.21281
     246 -> 248       -0.22071

 Excited State   4:      Singlet-A      3.5040 eV  353.83 nm  f=0.0151  <S**2>=0.000
     239 -> 247       -0.31304
     239 -> 249        0.16849
     239 -> 251       -0.10590
     240 -> 247       -0.28990
     240 -> 249        0.12839
     243 -> 247        0.42016
     246 -> 248        0.12792

 Excited State   5:      Singlet-A      3.5206 eV  352.16 nm  f=0.3519  <S**2>=0.000
     239 -> 247        0.27099
     239 -> 249       -0.12854
     240 -> 247        0.17250
     243 -> 247        0.28763
     245 -> 247        0.20637
     246 -> 248        0.45147

 The electronic state is 1-A.
 Alpha  occ. eigenvalues --  -46.89702 -19.24935 -19.24695 -19.19786 -19.18530
 Alpha  occ. eigenvalues --  -19.18244 -19.18095 -14.42683 -14.42372 -14.39671
 Alpha  occ. eigenvalues --  -14.39228 -10.39137 -10.37922 -10.34672 -10.34378
 Alpha  occ. eigenvalues --  -10.32030 -10.31992 -10.31621 -10.31358 -10.30865
 Alpha  occ. eigenvalues --  -10.30788 -10.30494 -10.30343 -10.29670 -10.29297
 Alpha  occ. eigenvalues --  -10.28933 -10.28417 -10.28388 -10.28370 -10.27929
 Alpha  occ. eigenvalues --  -10.27897 -10.27838 -10.27537 -10.27434 -10.27424
 Alpha  occ. eigenvalues --  -10.27387 -10.27383 -10.27153 -10.26993 -10.26863
 Alpha  occ. eigenvalues --  -10.26555 -10.26544 -10.26402 -10.26179 -10.25986
 Alpha  occ. eigenvalues --  -10.25926 -10.25827 -10.25759 -10.25663 -10.25659
 Alpha  occ. eigenvalues --  -10.25502 -10.25210 -10.24891 -10.24869 -10.24703
 Alpha  occ. eigenvalues --  -10.24662 -10.24569 -10.24520 -10.24480 -10.24474
 Alpha  occ. eigenvalues --  -10.24405 -10.24360 -10.24286 -10.24094 -10.23981
 Alpha  occ. eigenvalues --  -10.23952  -3.18136  -1.93041  -1.92593  -1.92425
 Alpha  occ. eigenvalues --   -1.17396  -1.14643  -1.10360  -1.08942  -1.08267
 Alpha  occ. eigenvalues --   -1.06637  -1.05518  -1.04679  -1.03209  -1.02195
 Alpha  occ. eigenvalues --   -0.91497  -0.91097  -0.90527  -0.89625  -0.88998
 Alpha  occ. eigenvalues --   -0.88835  -0.87921  -0.87654  -0.87492  -0.86552
 Alpha  occ. eigenvalues --   -0.86109  -0.85203  -0.84904  -0.84298  -0.83587
 Alpha  occ. eigenvalues --   -0.82944  -0.82354  -0.81633  -0.80875  -0.80161
 Alpha  occ. eigenvalues --   -0.80107  -0.77908  -0.77607  -0.77282  -0.76205
 Alpha  occ. eigenvalues --   -0.75818  -0.75401  -0.75321  -0.75157  -0.73981
 Alpha  occ. eigenvalues --   -0.73089  -0.72421  -0.71980  -0.70050  -0.69289
 Alpha  occ. eigenvalues --   -0.69077  -0.68350  -0.67501  -0.66859  -0.66099
 Alpha  occ. eigenvalues --   -0.65784  -0.65546  -0.64946  -0.64289  -0.63949
 Alpha  occ. eigenvalues --   -0.63679  -0.63476  -0.62854  -0.62563  -0.60689
 Alpha  occ. eigenvalues --   -0.59963  -0.59034  -0.58989  -0.58210  -0.57785
 Alpha  occ. eigenvalues --   -0.57323  -0.57170  -0.56204  -0.55566  -0.55517
 Alpha  occ. eigenvalues --   -0.54658  -0.54528  -0.54370  -0.54103  -0.53967
 Alpha  occ. eigenvalues --   -0.53801  -0.53507  -0.53443  -0.53377  -0.53004
 Alpha  occ. eigenvalues --   -0.52697  -0.52647  -0.52484  -0.51934  -0.51582
 Alpha  occ. eigenvalues --   -0.51231  -0.51044  -0.50747  -0.50672  -0.50326
 Alpha  occ. eigenvalues --   -0.50270  -0.50091  -0.49928  -0.49778  -0.49748
 Alpha  occ. eigenvalues --   -0.49286  -0.49159  -0.49016  -0.48810  -0.48619
 Alpha  occ. eigenvalues --   -0.48344  -0.48279  -0.48061  -0.47822  -0.47721
 Alpha  occ. eigenvalues --   -0.47158  -0.47078  -0.47017  -0.46783  -0.46601
 Alpha  occ. eigenvalues --   -0.46423  -0.46368  -0.46064  -0.45985  -0.45730
 Alpha  occ. eigenvalues --   -0.45670  -0.45473  -0.45314  -0.45272  -0.44927
 Alpha  occ. eigenvalues --   -0.44810  -0.44317  -0.44187  -0.43996  -0.43786
 Alpha  occ. eigenvalues --   -0.43499  -0.43348  -0.43271  -0.43051  -0.42914
 Alpha  occ. eigenvalues --   -0.42710  -0.42693  -0.42514  -0.42265  -0.42082
 Alpha  occ. eigenvalues --   -0.41759  -0.41721  -0.41612  -0.41405  -0.41284
 Alpha  occ. eigenvalues --   -0.41108  -0.41015  -0.40732  -0.40287  -0.40236
 Alpha  occ. eigenvalues --   -0.39963  -0.39671  -0.39183  -0.38699  -0.38688
 Alpha  occ. eigenvalues --   -0.38601  -0.38197  -0.38001  -0.37690  -0.37463
 Alpha  occ. eigenvalues --   -0.37372  -0.36935  -0.36680  -0.36402  -0.36390
 Alpha  occ. eigenvalues --   -0.36026  -0.35652  -0.35157  -0.34465  -0.34111
 Alpha  occ. eigenvalues --   -0.33545  -0.32918  -0.32776  -0.31440  -0.31198
 Alpha  occ. eigenvalues --   -0.30387  -0.29993  -0.29420  -0.29256  -0.24768
 Alpha  occ. eigenvalues --   -0.20916
 Alpha virt. eigenvalues --   -0.08879  -0.01618   0.00729   0.01795   0.02322
 Alpha virt. eigenvalues --    0.04584   0.04809   0.05087   0.06653   0.07145
 Alpha virt. eigenvalues --    0.07882   0.08327   0.08477   0.08699   0.09055

 Mulliken charges:
               1
     1  Mg   0.818257
     2  C    0.063330
     3  C   -0.101440
     4  C   -0.101303
     5  C   -0.038203
     6  N   -0.285653
     7  C   -0.060894
     8  C   -0.018304
     9  C   -0.066575
    10  C    0.065588
    11  C    0.060661
    12  C    0.057366
    13  C    0.070736
    14  C    0.099913
    15  O   -0.219015
    16  O   -0.295276
    17  N   -0.353456
    18  C    0.144809
    19  C   -0.147714
    20  C   -0.028792
    21  C    0.136790
    22  C    0.131905
    23  C   -0.027697
    24  O   -0.226828
    25  C    0.085867
    26  N   -0.308774
    27  C    0.090393
    28  C   -0.050768
    29  C    0.029112
    30  C   -0.029681
    31  C    0.065105
    32  C    0.019644
    33  C   -0.007302
    34  N   -0.289175
    35  C    0.062947
    36  C   -0.171402
    37  C   -0.027631
    38  C    0.034499
    39  C    0.101994
    40  C    0.073015
    41  O   -0.169289
    42  C    0.022943
    43  C    0.178267
    44  O   -0.223540
    45  O   -0.358796
    46  C    0.183891
    47  C    0.327895
    48  C   -0.135505
    49  C   -0.205330
    50  C    0.082860
    51  C    0.025997
    52  C    0.092551
    53  C    0.052098
    54  C   -0.137356
    55  C    0.055144
    56  C    0.054069
    57  C    0.060226
    58  C    0.083500
    59  C   -0.160933
    60  C    0.072690
    61  C    0.030778
    62  C    0.013043
    63  C    0.077329
    64  C   -0.146396
    65  C    0.021694
    66  C    0.028228
    67  H   -0.024766
    68  H   -0.048087
    69  H   -0.015097
    70  H    0.034324
    71  H    0.020956
    72  H    0.016451
    73  H    0.019468
    74  H    0.029013
    75  H    0.017184
    76  H    0.028310
    77  H    0.029647
    78  H    0.029995
    79  H    0.053549
    80  H    0.023260
    81  H    0.024478
    82  H    0.046332
    83  H    0.052486
    84  H    0.031126
    85  H    0.017228
    86  H    0.008975
    87  H    0.011046
    88  H    0.014620
    89  H    0.023696
    90  H    0.025904
    91  H    0.009053
    92  H    0.024604
    93  H    0.015850
    94  H    0.002304
    95  H    0.027209
    96  H    0.040390
    97  H    0.013377
    98  H    0.026632
    99  H    0.033577
   100  H    0.040126
   101  H    0.031128
   102  H    0.012624
   103  H    0.034762
   104  H   -0.013301
   105  H    0.032364
   106  H    0.009611
   107  H    0.012399
   108  H    0.000613
   109  H   -0.013642
   110  H    0.008668
   111  H   -0.003348
   112  H   -0.005522
   113  H    0.002496
   114  H   -0.003793
   115  H   -0.004033
   116  H   -0.008167
   117  H    0.008893
   118  H   -0.009772
   119  H   -0.012546
   120  H   -0.008583
   121  H   -0.010125
   122  H   -0.011403
   123  H   -0.012132
   124  H   -0.009008
   125  H    0.012381
   126  H   -0.015906
   127  H   -0.002049
   128  H   -0.014143
   129  H   -0.010350
   130  H   -0.002340
   131  H   -0.009461
   132  H   -0.009590
   133  H   -0.003042
   134  H    0.005346
   135  H    0.011127
   136  H    0.004023
   137  H    0.002913
   138  H    0.010173
   139  H    0.004888
   140  H    0.002522
 Sum of Mulliken charges =  -0.00000

 Dipole moment (field-independent basis, Debye):
    X=              1.3945    Y=              5.5349    Z=              1.5694  Tot=              5.9197
 Quadrupole moment (field-independent basis, Debye-Ang):
   XX=           -350.3108   YY=           -444.6958   ZZ=           -397.6768
   XY=             18.6559   XZ=              5.4488   YZ=             24.7367

 Normal termination of Gaussian 16 at Thu May  5 08:28:16 2022.
