 Gaussian 16, Revision A.03,
 Gaussian 16:  ES64L-G16RevA.03 25-Dec-2016

 ---------------------------------
 #p PBE1PBE/Def2SVP td=(nstates=5)
 ---------------------------------

 ----------------------------------------------------
 step_751_chromophore_5 TDDFT with PBE1PBE functional
 ----------------------------------------------------
 Symbolic Z-matrix:
 Charge =  0 Multiplicity = 1

                         Standard orientation:
 ---------------------------------------------------------------------
 Center     Atomic      Atomic             Coordinates (Angstroms)
 Number     Number       Type             X           Y           Z
 ---------------------------------------------------------------------
      1         12           0        5.251286    0.538710   -0.149862
      2          6           0        3.718402   -2.724241   -0.202561
      3          6           0        3.054307    1.458079   -2.618392
      4          6           0        6.223182    3.617880    0.270597
      5          6           0        7.072065   -0.471258    2.798838
      6          7           0        3.437619   -0.447157   -1.079357
      7          6           0        3.106284   -1.825181   -1.020846
      8          6           0        1.977680   -2.180014   -1.962950
      9          6           0        1.992514   -0.859241   -2.929356
     10          6           0        2.920484    0.112913   -2.200454
     11          6           0        2.379656   -1.082972   -4.428653
     12          6           0        0.603261   -2.321369   -1.113410
     13          6           0       -0.237054   -3.610237   -1.405265
     14          6           0       -1.555184   -3.341563   -2.136581
     15          8           0       -1.637377   -3.156842   -3.310714
     16          8           0       -2.550324   -3.255917   -1.268511
     17          7           0        4.725101    2.350340   -1.088017
     18          6           0        3.824694    2.488329   -2.106766
     19          6           0        3.879334    3.870742   -2.539146
     20          6           0        4.898826    4.482217   -1.763689
     21          6           0        5.334633    3.478595   -0.795286
     22          6           0        2.892981    4.505746   -3.609608
     23          6           0        5.449325    5.864839   -1.988152
     24          8           0        4.818908    6.544918   -2.796708
     25          6           0        6.546581    6.432636   -1.364352
     26          7           0        6.449981    1.396156    1.296223
     27          6           0        6.666375    2.721439    1.262633
     28          6           0        7.289780    3.205726    2.555228
     29          6           0        7.385392    1.956369    3.439906
     30          6           0        7.001735    0.906862    2.452706
     31          6           0        8.648350    3.970711    2.340504
     32          6           0        6.423741    1.843079    4.706453
     33          6           0        7.217250    1.786061    6.053906
     34          7           0        5.435231   -1.275548    1.014415
     35          6           0        6.306550   -1.522896    2.109041
     36          6           0        6.168768   -2.940909    2.523728
     37          6           0        5.120383   -3.395674    1.695504
     38          6           0        4.770303   -2.347763    0.758572
     39          6           0        6.709509   -3.558616    3.808845
     40          6           0        4.271939   -4.560806    1.394202
     41          8           0        4.188158   -5.662193    1.914658
     42          6           0        3.401167   -4.185121    0.139565
     43          6           0        3.537729   -5.160523   -0.969316
     44          8           0        2.644763   -5.947019   -1.287669
     45          8           0        4.795066   -5.110898   -1.585167
     46          6           0        5.036047   -6.272508   -2.505037
     47          6           0       -3.862439   -2.864866   -1.834839
     48          6           0       -4.037804   -1.429834   -1.470758
     49          6           0       -4.753862   -0.785316   -0.510465
     50          6           0       -5.571209   -1.450375    0.479792
     51          6           0       -4.895098    0.737603   -0.536866
     52          6           0       -5.952280    1.352665   -1.509171
     53          6           0       -6.035683    2.853769   -1.211269
     54          6           0       -7.392909    3.272133   -0.629693
     55          6           0       -7.501129    4.806610   -0.665222
     56          6           0       -7.664023    2.742081    0.841283
     57          6           0       -9.087326    2.503881    1.248643
     58          6           0       -9.298236    1.021001    1.638988
     59          6           0      -10.399954    0.414569    0.910035
     60          6           0      -10.141645    0.041203   -0.538661
     61          6           0      -10.821869   -0.918125    1.629059
     62          6           0      -12.093184   -0.584685    2.451308
     63          6           0      -13.359136   -0.798136    1.572678
     64          6           0      -14.415684    0.244051    1.786003
     65          6           0      -15.765190   -0.285334    2.539100
     66          6           0      -14.754172    0.933437    0.438351
     67          1           0        2.480991    1.721928   -3.509614
     68          1           0        6.533554    4.654561    0.414165
     69          1           0        7.424554   -0.689751    3.809723
     70          1           0        2.236480   -3.088321   -2.508807
     71          1           0        1.108381   -0.225464   -2.992199
     72          1           0        2.712485   -2.118752   -4.498641
     73          1           0        3.181808   -0.433211   -4.780173
     74          1           0        1.505589   -0.932431   -5.062800
     75          1           0       -0.026240   -1.474769   -1.389887
     76          1           0        0.756351   -2.247125   -0.036349
     77          1           0       -0.300633   -4.173848   -0.474357
     78          1           0        0.307048   -4.211383   -2.134198
     79          1           0        2.914726    5.595775   -3.604059
     80          1           0        1.926580    4.059704   -3.377530
     81          1           0        3.249601    4.158557   -4.579083
     82          1           0        7.472137    5.865094   -1.258437
     83          1           0        6.071892    6.760222   -0.439333
     84          1           0        6.784838    7.318959   -1.952349
     85          1           0        6.667897    3.952295    3.047067
     86          1           0        8.392274    1.648522    3.718660
     87          1           0        8.607429    4.249280    1.287574
     88          1           0        9.542155    3.361505    2.473715
     89          1           0        8.712033    4.793470    3.052271
     90          1           0        5.898150    0.888379    4.688301
     91          1           0        5.655777    2.609718    4.808611
     92          1           0        6.793540    2.473628    6.785881
     93          1           0        8.300280    1.701807    5.959034
     94          1           0        6.998882    0.785488    6.425995
     95          1           0        6.886040   -4.619928    3.634182
     96          1           0        5.965759   -3.495181    4.603989
     97          1           0        7.686911   -3.172511    4.101127
     98          1           0        2.358112   -4.355248    0.405079
     99          1           0        4.316618   -6.406519   -3.312740
    100          1           0        5.065390   -7.247520   -2.019018
    101          1           0        6.006155   -6.118960   -2.979253
    102          1           0       -4.694876   -3.473435   -1.483293
    103          1           0       -3.932904   -2.870202   -2.923244
    104          1           0       -3.551310   -0.699869   -2.117618
    105          1           0       -4.899666   -1.744840    1.286249
    106          1           0       -5.945966   -2.364582    0.019056
    107          1           0       -6.409634   -0.927950    0.942255
    108          1           0       -3.914147    1.211754   -0.578622
    109          1           0       -5.111791    0.867871    0.522844
    110          1           0       -6.902097    0.818674   -1.472969
    111          1           0       -5.431986    1.378368   -2.466389
    112          1           0       -5.953241    3.319632   -2.193233
    113          1           0       -5.199987    3.119819   -0.563523
    114          1           0       -8.199098    2.946942   -1.287774
    115          1           0       -7.774195    5.241182    0.296761
    116          1           0       -8.358752    5.096406   -1.271823
    117          1           0       -6.649049    5.334431   -1.093207
    118          1           0       -7.357162    3.517253    1.543831
    119          1           0       -6.977978    1.907783    0.986748
    120          1           0       -9.808666    2.841882    0.504201
    121          1           0       -9.388614    3.170439    2.056548
    122          1           0       -9.479373    0.897160    2.707123
    123          1           0       -8.473966    0.340859    1.421780
    124          1           0      -11.224957    1.125428    0.866164
    125          1           0      -10.036509   -1.033433   -0.688045
    126          1           0       -9.273056    0.579020   -0.919143
    127          1           0      -10.939415    0.419423   -1.177999
    128          1           0      -10.030182   -1.421539    2.184169
    129          1           0      -11.128134   -1.713313    0.948894
    130          1           0      -12.112334    0.419455    2.877542
    131          1           0      -12.014075   -1.264328    3.299721
    132          1           0      -13.741115   -1.779471    1.850388
    133          1           0      -13.221919   -0.889791    0.495687
    134          1           0      -14.015911    0.959052    2.505004
    135          1           0      -15.848156   -1.351048    2.748899
    136          1           0      -16.660049    0.033898    2.005114
    137          1           0      -15.844577    0.189587    3.517401
    138          1           0      -14.385326    1.959135    0.433874
    139          1           0      -15.812157    0.925550    0.175531
    140          1           0      -14.320679    0.511417   -0.469319
 ---------------------------------------------------------------------

 SCF Done:  E(RPBE1PBE) =  -3005.32186312     A.U. after   15 cycles

 Excitation energies and oscillator strengths:

 Excited State   1:      Singlet-A      1.7735 eV  699.10 nm  f=0.3524  <S**2>=0.000
     245 -> 248       -0.14269
     246 -> 247        0.70080
     246 <- 247       -0.12001
 This state for optimization and/or second-order correction.
 Total Energy, E(TD-HF/TD-DFT) =  -3005.25668919
 Copying the excited state density for this state as the 1-particle RhoCI density.

 Excited State   2:      Singlet-A      2.2952 eV  540.20 nm  f=0.1011  <S**2>=0.000
     245 -> 247        0.64037
     246 -> 248        0.28278

 Excited State   3:      Singlet-A      2.9357 eV  422.33 nm  f=0.0015  <S**2>=0.000
     240 -> 247        0.16424
     241 -> 247        0.29284
     242 -> 247        0.55906
     243 -> 247        0.19741

 Excited State   4:      Singlet-A      2.9531 eV  419.85 nm  f=0.0012  <S**2>=0.000
     241 -> 247       -0.17555
     242 -> 247       -0.11782
     243 -> 247        0.64555
     243 -> 249       -0.12867

 Excited State   5:      Singlet-A      3.0609 eV  405.06 nm  f=0.0017  <S**2>=0.000
     240 -> 247        0.38244
     241 -> 247        0.42534
     242 -> 247       -0.38525

 The electronic state is 1-A.
 Alpha  occ. eigenvalues --  -46.93044 -19.25658 -19.25395 -19.20122 -19.18818
 Alpha  occ. eigenvalues --  -19.18699 -19.18159 -14.42193 -14.41793 -14.39096
 Alpha  occ. eigenvalues --  -14.39071 -10.36263 -10.34943 -10.31852 -10.31437
 Alpha  occ. eigenvalues --  -10.29414 -10.29331 -10.28997 -10.28646 -10.28465
 Alpha  occ. eigenvalues --  -10.28414 -10.28058 -10.28015 -10.27888 -10.26788
 Alpha  occ. eigenvalues --  -10.26484 -10.26479 -10.26144 -10.26109 -10.25859
 Alpha  occ. eigenvalues --  -10.25807 -10.25750 -10.25694 -10.25327 -10.25078
 Alpha  occ. eigenvalues --  -10.24825 -10.24811 -10.24712 -10.24616 -10.24298
 Alpha  occ. eigenvalues --  -10.24166 -10.23623 -10.23617 -10.23572 -10.23534
 Alpha  occ. eigenvalues --  -10.23528 -10.23524 -10.23347 -10.23326 -10.23212
 Alpha  occ. eigenvalues --  -10.23072 -10.22732 -10.22576 -10.22437 -10.22381
 Alpha  occ. eigenvalues --  -10.22257 -10.22229 -10.22223 -10.22027 -10.22011
 Alpha  occ. eigenvalues --  -10.21943 -10.21803 -10.21766 -10.21643 -10.21357
 Alpha  occ. eigenvalues --  -10.21312  -3.15061  -1.87905  -1.87436  -1.87272
 Alpha  occ. eigenvalues --   -1.12243  -1.09470  -1.04757  -1.04033  -1.03160
 Alpha  occ. eigenvalues --   -1.01559  -1.00000  -0.99149  -0.98102  -0.96842
 Alpha  occ. eigenvalues --   -0.85948  -0.85177  -0.84649  -0.83945  -0.83239
 Alpha  occ. eigenvalues --   -0.82944  -0.82150  -0.81800  -0.81702  -0.80625
 Alpha  occ. eigenvalues --   -0.80443  -0.79504  -0.79021  -0.78382  -0.77833
 Alpha  occ. eigenvalues --   -0.77334  -0.76576  -0.75882  -0.75184  -0.74562
 Alpha  occ. eigenvalues --   -0.74251  -0.72303  -0.71808  -0.71486  -0.70569
 Alpha  occ. eigenvalues --   -0.69980  -0.69646  -0.69434  -0.69240  -0.68148
 Alpha  occ. eigenvalues --   -0.67581  -0.66794  -0.66363  -0.64299  -0.63670
 Alpha  occ. eigenvalues --   -0.63295  -0.62729  -0.61927  -0.61071  -0.60608
 Alpha  occ. eigenvalues --   -0.59966  -0.59925  -0.59557  -0.58916  -0.58217
 Alpha  occ. eigenvalues --   -0.58060  -0.57637  -0.57216  -0.57004  -0.55072
 Alpha  occ. eigenvalues --   -0.54593  -0.53477  -0.53372  -0.52831  -0.52428
 Alpha  occ. eigenvalues --   -0.51704  -0.51601  -0.50845  -0.50156  -0.49954
 Alpha  occ. eigenvalues --   -0.49105  -0.48919  -0.48848  -0.48505  -0.48448
 Alpha  occ. eigenvalues --   -0.48381  -0.48104  -0.48036  -0.47946  -0.47462
 Alpha  occ. eigenvalues --   -0.47243  -0.47134  -0.47063  -0.46442  -0.46320
 Alpha  occ. eigenvalues --   -0.45724  -0.45463  -0.45254  -0.45175  -0.44981
 Alpha  occ. eigenvalues --   -0.44814  -0.44603  -0.44530  -0.44409  -0.44166
 Alpha  occ. eigenvalues --   -0.43969  -0.43765  -0.43610  -0.43475  -0.43280
 Alpha  occ. eigenvalues --   -0.43032  -0.42925  -0.42794  -0.42563  -0.42145
 Alpha  occ. eigenvalues --   -0.41845  -0.41688  -0.41562  -0.41466  -0.41235
 Alpha  occ. eigenvalues --   -0.41121  -0.41016  -0.40811  -0.40779  -0.40464
 Alpha  occ. eigenvalues --   -0.40309  -0.40202  -0.40100  -0.39801  -0.39557
 Alpha  occ. eigenvalues --   -0.39511  -0.39108  -0.38972  -0.38922  -0.38449
 Alpha  occ. eigenvalues --   -0.38313  -0.38150  -0.38005  -0.37947  -0.37832
 Alpha  occ. eigenvalues --   -0.37418  -0.37394  -0.37329  -0.37234  -0.36886
 Alpha  occ. eigenvalues --   -0.36491  -0.36456  -0.36417  -0.36233  -0.36013
 Alpha  occ. eigenvalues --   -0.35891  -0.35816  -0.35451  -0.35227  -0.35139
 Alpha  occ. eigenvalues --   -0.34711  -0.34605  -0.34148  -0.33632  -0.33484
 Alpha  occ. eigenvalues --   -0.33343  -0.32956  -0.32771  -0.32671  -0.32381
 Alpha  occ. eigenvalues --   -0.32264  -0.31846  -0.31699  -0.31396  -0.31232
 Alpha  occ. eigenvalues --   -0.30895  -0.30505  -0.30105  -0.29616  -0.29158
 Alpha  occ. eigenvalues --   -0.28501  -0.28303  -0.27838  -0.26874  -0.25935
 Alpha  occ. eigenvalues --   -0.25481  -0.25339  -0.25197  -0.24602  -0.21537
 Alpha  occ. eigenvalues --   -0.18583
 Alpha virt. eigenvalues --   -0.11377  -0.05192  -0.03432  -0.02141  -0.00895
 Alpha virt. eigenvalues --    0.00073   0.00305   0.00763   0.02514   0.03044
 Alpha virt. eigenvalues --    0.03915   0.04181   0.05177   0.05464   0.05538

 Mulliken charges:
               1
     1  Mg   0.959096
     2  C    0.058515
     3  C   -0.088460
     4  C   -0.089303
     5  C   -0.035712
     6  N   -0.383000
     7  C    0.001616
     8  C   -0.090949
     9  C   -0.136983
    10  C    0.100350
    11  C    0.004510
    12  C    0.014373
    13  C   -0.006246
    14  C    0.171560
    15  O   -0.253057
    16  O   -0.324266
    17  N   -0.473399
    18  C    0.157408
    19  C   -0.161555
    20  C   -0.090414
    21  C    0.171797
    22  C    0.070354
    23  C    0.022958
    24  O   -0.263117
    25  C    0.008454
    26  N   -0.417959
    27  C    0.119855
    28  C   -0.125660
    29  C   -0.045290
    30  C    0.012442
    31  C    0.008984
    32  C   -0.038190
    33  C   -0.078590
    34  N   -0.416557
    35  C    0.086221
    36  C   -0.175638
    37  C   -0.080179
    38  C    0.101123
    39  C    0.043810
    40  C    0.165103
    41  O   -0.213002
    42  C   -0.088527
    43  C    0.269238
    44  O   -0.258854
    45  O   -0.386875
    46  C    0.126166
    47  C    0.272372
    48  C   -0.140553
    49  C   -0.243703
    50  C    0.009667
    51  C   -0.037930
    52  C    0.018698
    53  C   -0.004787
    54  C   -0.224640
    55  C    0.000495
    56  C   -0.007841
    57  C    0.004527
    58  C    0.016031
    59  C   -0.246655
    60  C    0.006837
    61  C   -0.025409
    62  C   -0.053624
    63  C    0.028929
    64  C   -0.239592
    65  C   -0.036219
    66  C   -0.030616
    67  H    0.005589
    68  H   -0.012482
    69  H    0.016260
    70  H    0.070912
    71  H    0.056020
    72  H    0.043381
    73  H    0.046740
    74  H    0.055021
    75  H    0.050877
    76  H    0.059249
    77  H    0.060342
    78  H    0.063176
    79  H    0.079136
    80  H    0.048976
    81  H    0.051610
    82  H    0.071198
    83  H    0.078801
    84  H    0.057833
    85  H    0.053925
    86  H    0.045521
    87  H    0.039711
    88  H    0.041127
    89  H    0.050269
    90  H    0.059430
    91  H    0.041933
    92  H    0.052921
    93  H    0.042722
    94  H    0.029990
    95  H    0.056737
    96  H    0.069208
    97  H    0.041268
    98  H    0.067549
    99  H    0.055709
   100  H    0.062155
   101  H    0.053650
   102  H    0.039627
   103  H    0.062798
   104  H    0.016777
   105  H    0.061374
   106  H    0.037470
   107  H    0.046040
   108  H    0.032980
   109  H    0.019933
   110  H    0.045713
   111  H    0.032059
   112  H    0.028378
   113  H    0.034911
   114  H    0.034247
   115  H    0.023052
   116  H    0.019563
   117  H    0.035452
   118  H    0.023553
   119  H    0.024755
   120  H    0.022295
   121  H    0.022316
   122  H    0.022536
   123  H    0.031431
   124  H    0.030744
   125  H    0.039095
   126  H    0.019928
   127  H    0.025819
   128  H    0.016717
   129  H    0.022423
   130  H    0.028730
   131  H    0.024023
   132  H    0.023954
   133  H    0.028386
   134  H    0.042961
   135  H    0.037186
   136  H    0.030720
   137  H    0.030250
   138  H    0.037274
   139  H    0.031397
   140  H    0.028529
 Sum of Mulliken charges =  -0.00000

 Dipole moment (field-independent basis, Debye):
    X=              1.5226    Y=              4.8544    Z=              2.1990  Tot=              5.5424
 Quadrupole moment (field-independent basis, Debye-Ang):
   XX=           -344.9014   YY=           -442.5312   ZZ=           -393.3682
   XY=             15.1152   XZ=              9.5746   YZ=             25.1255

 Normal termination of Gaussian 16 at Thu May  5 08:48:07 2022.
