 Gaussian 16, Revision A.03,
 Gaussian 16:  ES64L-G16RevA.03 25-Dec-2016

 --------------------------------
 #p wB97XD/Def2SVP td=(nstates=5)
 --------------------------------

 ---------------------------------------------------
 step_751_chromophore_5 TDDFT with wB97XD functional
 ---------------------------------------------------
 Symbolic Z-matrix:
 Charge =  0 Multiplicity = 1

                         Standard orientation:
 ---------------------------------------------------------------------
 Center     Atomic      Atomic             Coordinates (Angstroms)
 Number     Number       Type             X           Y           Z
 ---------------------------------------------------------------------
      1         12           0        5.251286    0.538710   -0.149862
      2          6           0        3.718402   -2.724241   -0.202561
      3          6           0        3.054307    1.458079   -2.618392
      4          6           0        6.223182    3.617880    0.270597
      5          6           0        7.072065   -0.471258    2.798838
      6          7           0        3.437619   -0.447157   -1.079357
      7          6           0        3.106284   -1.825181   -1.020846
      8          6           0        1.977680   -2.180014   -1.962950
      9          6           0        1.992514   -0.859241   -2.929356
     10          6           0        2.920484    0.112913   -2.200454
     11          6           0        2.379656   -1.082972   -4.428653
     12          6           0        0.603261   -2.321369   -1.113410
     13          6           0       -0.237054   -3.610237   -1.405265
     14          6           0       -1.555184   -3.341563   -2.136581
     15          8           0       -1.637377   -3.156842   -3.310714
     16          8           0       -2.550324   -3.255917   -1.268511
     17          7           0        4.725101    2.350340   -1.088017
     18          6           0        3.824694    2.488329   -2.106766
     19          6           0        3.879334    3.870742   -2.539146
     20          6           0        4.898826    4.482217   -1.763689
     21          6           0        5.334633    3.478595   -0.795286
     22          6           0        2.892981    4.505746   -3.609608
     23          6           0        5.449325    5.864839   -1.988152
     24          8           0        4.818908    6.544918   -2.796708
     25          6           0        6.546581    6.432636   -1.364352
     26          7           0        6.449981    1.396156    1.296223
     27          6           0        6.666375    2.721439    1.262633
     28          6           0        7.289780    3.205726    2.555228
     29          6           0        7.385392    1.956369    3.439906
     30          6           0        7.001735    0.906862    2.452706
     31          6           0        8.648350    3.970711    2.340504
     32          6           0        6.423741    1.843079    4.706453
     33          6           0        7.217250    1.786061    6.053906
     34          7           0        5.435231   -1.275548    1.014415
     35          6           0        6.306550   -1.522896    2.109041
     36          6           0        6.168768   -2.940909    2.523728
     37          6           0        5.120383   -3.395674    1.695504
     38          6           0        4.770303   -2.347763    0.758572
     39          6           0        6.709509   -3.558616    3.808845
     40          6           0        4.271939   -4.560806    1.394202
     41          8           0        4.188158   -5.662193    1.914658
     42          6           0        3.401167   -4.185121    0.139565
     43          6           0        3.537729   -5.160523   -0.969316
     44          8           0        2.644763   -5.947019   -1.287669
     45          8           0        4.795066   -5.110898   -1.585167
     46          6           0        5.036047   -6.272508   -2.505037
     47          6           0       -3.862439   -2.864866   -1.834839
     48          6           0       -4.037804   -1.429834   -1.470758
     49          6           0       -4.753862   -0.785316   -0.510465
     50          6           0       -5.571209   -1.450375    0.479792
     51          6           0       -4.895098    0.737603   -0.536866
     52          6           0       -5.952280    1.352665   -1.509171
     53          6           0       -6.035683    2.853769   -1.211269
     54          6           0       -7.392909    3.272133   -0.629693
     55          6           0       -7.501129    4.806610   -0.665222
     56          6           0       -7.664023    2.742081    0.841283
     57          6           0       -9.087326    2.503881    1.248643
     58          6           0       -9.298236    1.021001    1.638988
     59          6           0      -10.399954    0.414569    0.910035
     60          6           0      -10.141645    0.041203   -0.538661
     61          6           0      -10.821869   -0.918125    1.629059
     62          6           0      -12.093184   -0.584685    2.451308
     63          6           0      -13.359136   -0.798136    1.572678
     64          6           0      -14.415684    0.244051    1.786003
     65          6           0      -15.765190   -0.285334    2.539100
     66          6           0      -14.754172    0.933437    0.438351
     67          1           0        2.480991    1.721928   -3.509614
     68          1           0        6.533554    4.654561    0.414165
     69          1           0        7.424554   -0.689751    3.809723
     70          1           0        2.236480   -3.088321   -2.508807
     71          1           0        1.108381   -0.225464   -2.992199
     72          1           0        2.712485   -2.118752   -4.498641
     73          1           0        3.181808   -0.433211   -4.780173
     74          1           0        1.505589   -0.932431   -5.062800
     75          1           0       -0.026240   -1.474769   -1.389887
     76          1           0        0.756351   -2.247125   -0.036349
     77          1           0       -0.300633   -4.173848   -0.474357
     78          1           0        0.307048   -4.211383   -2.134198
     79          1           0        2.914726    5.595775   -3.604059
     80          1           0        1.926580    4.059704   -3.377530
     81          1           0        3.249601    4.158557   -4.579083
     82          1           0        7.472137    5.865094   -1.258437
     83          1           0        6.071892    6.760222   -0.439333
     84          1           0        6.784838    7.318959   -1.952349
     85          1           0        6.667897    3.952295    3.047067
     86          1           0        8.392274    1.648522    3.718660
     87          1           0        8.607429    4.249280    1.287574
     88          1           0        9.542155    3.361505    2.473715
     89          1           0        8.712033    4.793470    3.052271
     90          1           0        5.898150    0.888379    4.688301
     91          1           0        5.655777    2.609718    4.808611
     92          1           0        6.793540    2.473628    6.785881
     93          1           0        8.300280    1.701807    5.959034
     94          1           0        6.998882    0.785488    6.425995
     95          1           0        6.886040   -4.619928    3.634182
     96          1           0        5.965759   -3.495181    4.603989
     97          1           0        7.686911   -3.172511    4.101127
     98          1           0        2.358112   -4.355248    0.405079
     99          1           0        4.316618   -6.406519   -3.312740
    100          1           0        5.065390   -7.247520   -2.019018
    101          1           0        6.006155   -6.118960   -2.979253
    102          1           0       -4.694876   -3.473435   -1.483293
    103          1           0       -3.932904   -2.870202   -2.923244
    104          1           0       -3.551310   -0.699869   -2.117618
    105          1           0       -4.899666   -1.744840    1.286249
    106          1           0       -5.945966   -2.364582    0.019056
    107          1           0       -6.409634   -0.927950    0.942255
    108          1           0       -3.914147    1.211754   -0.578622
    109          1           0       -5.111791    0.867871    0.522844
    110          1           0       -6.902097    0.818674   -1.472969
    111          1           0       -5.431986    1.378368   -2.466389
    112          1           0       -5.953241    3.319632   -2.193233
    113          1           0       -5.199987    3.119819   -0.563523
    114          1           0       -8.199098    2.946942   -1.287774
    115          1           0       -7.774195    5.241182    0.296761
    116          1           0       -8.358752    5.096406   -1.271823
    117          1           0       -6.649049    5.334431   -1.093207
    118          1           0       -7.357162    3.517253    1.543831
    119          1           0       -6.977978    1.907783    0.986748
    120          1           0       -9.808666    2.841882    0.504201
    121          1           0       -9.388614    3.170439    2.056548
    122          1           0       -9.479373    0.897160    2.707123
    123          1           0       -8.473966    0.340859    1.421780
    124          1           0      -11.224957    1.125428    0.866164
    125          1           0      -10.036509   -1.033433   -0.688045
    126          1           0       -9.273056    0.579020   -0.919143
    127          1           0      -10.939415    0.419423   -1.177999
    128          1           0      -10.030182   -1.421539    2.184169
    129          1           0      -11.128134   -1.713313    0.948894
    130          1           0      -12.112334    0.419455    2.877542
    131          1           0      -12.014075   -1.264328    3.299721
    132          1           0      -13.741115   -1.779471    1.850388
    133          1           0      -13.221919   -0.889791    0.495687
    134          1           0      -14.015911    0.959052    2.505004
    135          1           0      -15.848156   -1.351048    2.748899
    136          1           0      -16.660049    0.033898    2.005114
    137          1           0      -15.844577    0.189587    3.517401
    138          1           0      -14.385326    1.959135    0.433874
    139          1           0      -15.812157    0.925550    0.175531
    140          1           0      -14.320679    0.511417   -0.469319
 ---------------------------------------------------------------------

 SCF Done:  E(RwB97XD) =  -3007.83310609     A.U. after   19 cycles

 Excitation energies and oscillator strengths:

 Excited State   1:      Singlet-A      1.6277 eV  761.73 nm  f=0.3610  <S**2>=0.000
     245 -> 248        0.14753
     246 -> 247        0.69072
     245 <- 248        0.10314
 This state for optimization and/or second-order correction.
 Total Energy, E(TD-HF/TD-DFT) =  -3007.77329058
 Copying the excited state density for this state as the 1-particle RhoCI density.

 Excited State   2:      Singlet-A      2.2692 eV  546.37 nm  f=0.1013  <S**2>=0.000
     245 -> 247        0.62552
     246 -> 248       -0.30494

 Excited State   3:      Singlet-A      3.3371 eV  371.53 nm  f=0.0355  <S**2>=0.000
     241 -> 247        0.60424
     243 -> 247        0.15987
     246 -> 248       -0.23313

 Excited State   4:      Singlet-A      3.4988 eV  354.36 nm  f=0.0385  <S**2>=0.000
     239 -> 247        0.27575
     239 -> 249       -0.14970
     240 -> 247        0.46937
     240 -> 248        0.12253
     240 -> 249       -0.24368
     240 -> 250        0.13729
     243 -> 247       -0.12031
     246 -> 248        0.14180

 Excited State   5:      Singlet-A      3.5617 eV  348.10 nm  f=0.4728  <S**2>=0.000
     242 -> 247        0.11479
     243 -> 247        0.40107
     245 -> 247        0.23925
     246 -> 248        0.49217

 The electronic state is 1-A.
 Alpha  occ. eigenvalues --  -46.96040 -19.30116 -19.29939 -19.24691 -19.23472
 Alpha  occ. eigenvalues --  -19.23350 -19.23050 -14.47258 -14.47007 -14.44296
 Alpha  occ. eigenvalues --  -14.43730 -10.42962 -10.41711 -10.38665 -10.38310
 Alpha  occ. eigenvalues --  -10.36147 -10.36082 -10.35517 -10.35072 -10.35011
 Alpha  occ. eigenvalues --  -10.34976 -10.34474 -10.34246 -10.33596 -10.33585
 Alpha  occ. eigenvalues --  -10.33023 -10.32508 -10.32429 -10.32239 -10.32024
 Alpha  occ. eigenvalues --  -10.31888 -10.31850 -10.31594 -10.31546 -10.31533
 Alpha  occ. eigenvalues --  -10.31421 -10.31361 -10.31248 -10.30901 -10.30748
 Alpha  occ. eigenvalues --  -10.30527 -10.30457 -10.30433 -10.30071 -10.29892
 Alpha  occ. eigenvalues --  -10.29887 -10.29661 -10.29611 -10.29605 -10.29552
 Alpha  occ. eigenvalues --  -10.29465 -10.29024 -10.28828 -10.28779 -10.28640
 Alpha  occ. eigenvalues --  -10.28582 -10.28518 -10.28425 -10.28412 -10.28352
 Alpha  occ. eigenvalues --  -10.28345 -10.28194 -10.28179 -10.28009 -10.27812
 Alpha  occ. eigenvalues --  -10.27771  -3.21927  -1.95517  -1.95050  -1.94882
 Alpha  occ. eigenvalues --   -1.19589  -1.16758  -1.12633  -1.11090  -1.10468
 Alpha  occ. eigenvalues --   -1.08807  -1.07591  -1.06740  -1.05165  -1.04186
 Alpha  occ. eigenvalues --   -0.93406  -0.92856  -0.92320  -0.91546  -0.90917
 Alpha  occ. eigenvalues --   -0.90621  -0.89776  -0.89467  -0.89397  -0.88598
 Alpha  occ. eigenvalues --   -0.88018  -0.87070  -0.86817  -0.86168  -0.85468
 Alpha  occ. eigenvalues --   -0.84817  -0.84236  -0.83521  -0.82782  -0.82063
 Alpha  occ. eigenvalues --   -0.81924  -0.79832  -0.79562  -0.79176  -0.78081
 Alpha  occ. eigenvalues --   -0.77656  -0.77365  -0.77138  -0.76942  -0.75810
 Alpha  occ. eigenvalues --   -0.75030  -0.74358  -0.73965  -0.71979  -0.71176
 Alpha  occ. eigenvalues --   -0.70944  -0.70332  -0.69504  -0.68722  -0.68024
 Alpha  occ. eigenvalues --   -0.67627  -0.67535  -0.66949  -0.66284  -0.65754
 Alpha  occ. eigenvalues --   -0.65648  -0.65300  -0.64682  -0.64510  -0.62733
 Alpha  occ. eigenvalues --   -0.61944  -0.60993  -0.60914  -0.60155  -0.59771
 Alpha  occ. eigenvalues --   -0.59250  -0.59147  -0.58119  -0.57486  -0.57426
 Alpha  occ. eigenvalues --   -0.56654  -0.56435  -0.56322  -0.55951  -0.55875
 Alpha  occ. eigenvalues --   -0.55733  -0.55425  -0.55378  -0.55301  -0.54910
 Alpha  occ. eigenvalues --   -0.54649  -0.54564  -0.54374  -0.53796  -0.53486
 Alpha  occ. eigenvalues --   -0.53166  -0.53044  -0.52619  -0.52590  -0.52209
 Alpha  occ. eigenvalues --   -0.52150  -0.52039  -0.51783  -0.51683  -0.51645
 Alpha  occ. eigenvalues --   -0.51219  -0.51045  -0.50910  -0.50746  -0.50507
 Alpha  occ. eigenvalues --   -0.50226  -0.50179  -0.49933  -0.49793  -0.49649
 Alpha  occ. eigenvalues --   -0.49074  -0.49028  -0.48942  -0.48716  -0.48471
 Alpha  occ. eigenvalues --   -0.48314  -0.48237  -0.47983  -0.47882  -0.47624
 Alpha  occ. eigenvalues --   -0.47549  -0.47367  -0.47268  -0.47093  -0.46791
 Alpha  occ. eigenvalues --   -0.46760  -0.46178  -0.46064  -0.45860  -0.45740
 Alpha  occ. eigenvalues --   -0.45418  -0.45251  -0.45148  -0.44977  -0.44847
 Alpha  occ. eigenvalues --   -0.44647  -0.44544  -0.44400  -0.44228  -0.43976
 Alpha  occ. eigenvalues --   -0.43786  -0.43603  -0.43495  -0.43279  -0.43196
 Alpha  occ. eigenvalues --   -0.42962  -0.42945  -0.42577  -0.42221  -0.42136
 Alpha  occ. eigenvalues --   -0.41813  -0.41555  -0.41124  -0.40585  -0.40565
 Alpha  occ. eigenvalues --   -0.40440  -0.40026  -0.39847  -0.39618  -0.39396
 Alpha  occ. eigenvalues --   -0.39301  -0.38882  -0.38739  -0.38388  -0.38233
 Alpha  occ. eigenvalues --   -0.37890  -0.37507  -0.37024  -0.36434  -0.36026
 Alpha  occ. eigenvalues --   -0.35485  -0.34945  -0.34747  -0.33581  -0.33281
 Alpha  occ. eigenvalues --   -0.32621  -0.31889  -0.31488  -0.31299  -0.26716
 Alpha  occ. eigenvalues --   -0.22739
 Alpha virt. eigenvalues --   -0.07202   0.00323   0.02795   0.04453   0.04995
 Alpha virt. eigenvalues --    0.06900   0.07013   0.07446   0.09365   0.09494
 Alpha virt. eigenvalues --    0.10445   0.11060   0.11661   0.12150   0.12235

 Mulliken charges:
               1
     1  Mg   0.951941
     2  C    0.051382
     3  C   -0.112541
     4  C   -0.111384
     5  C   -0.046560
     6  N   -0.351916
     7  C   -0.023514
     8  C   -0.064427
     9  C   -0.114020
    10  C    0.093225
    11  C    0.013721
    12  C    0.021812
    13  C    0.010070
    14  C    0.159748
    15  O   -0.251143
    16  O   -0.324238
    17  N   -0.440184
    18  C    0.159445
    19  C   -0.157970
    20  C   -0.079531
    21  C    0.169816
    22  C    0.086093
    23  C    0.023568
    24  O   -0.257273
    25  C    0.014891
    26  N   -0.384267
    27  C    0.117340
    28  C   -0.105909
    29  C   -0.020064
    30  C   -0.003123
    31  C    0.020848
    32  C   -0.024794
    33  C   -0.063161
    34  N   -0.376159
    35  C    0.070994
    36  C   -0.178854
    37  C   -0.076333
    38  C    0.075426
    39  C    0.057887
    40  C    0.146295
    41  O   -0.207141
    42  C   -0.044308
    43  C    0.243744
    44  O   -0.253776
    45  O   -0.387045
    46  C    0.141759
    47  C    0.291869
    48  C   -0.154041
    49  C   -0.228257
    50  C    0.026133
    51  C   -0.016540
    52  C    0.039407
    53  C    0.012317
    54  C   -0.195168
    55  C    0.009166
    56  C    0.019980
    57  C    0.014750
    58  C    0.045094
    59  C   -0.213447
    60  C    0.027651
    61  C   -0.009228
    62  C   -0.031614
    63  C    0.040090
    64  C   -0.212113
    65  C   -0.022237
    66  C   -0.016649
    67  H    0.001226
    68  H   -0.026504
    69  H    0.008837
    70  H    0.057429
    71  H    0.046032
    72  H    0.038915
    73  H    0.040291
    74  H    0.051420
    75  H    0.040998
    76  H    0.052952
    77  H    0.057097
    78  H    0.055941
    79  H    0.078091
    80  H    0.044760
    81  H    0.048233
    82  H    0.068805
    83  H    0.075467
    84  H    0.058286
    85  H    0.044962
    86  H    0.033219
    87  H    0.029975
    88  H    0.037246
    89  H    0.046249
    90  H    0.049388
    91  H    0.034168
    92  H    0.047402
    93  H    0.036251
    94  H    0.023336
    95  H    0.050439
    96  H    0.062262
    97  H    0.034166
    98  H    0.057001
    99  H    0.050955
   100  H    0.058090
   101  H    0.050183
   102  H    0.035859
   103  H    0.058679
   104  H    0.011999
   105  H    0.056500
   106  H    0.030249
   107  H    0.036897
   108  H    0.025528
   109  H    0.009318
   110  H    0.032983
   111  H    0.023531
   112  H    0.020386
   113  H    0.025014
   114  H    0.020897
   115  H    0.016534
   116  H    0.014175
   117  H    0.030285
   118  H    0.014594
   119  H    0.001964
   120  H    0.012281
   121  H    0.016670
   122  H    0.014308
   123  H    0.006503
   124  H    0.012999
   125  H    0.033358
   126  H    0.000754
   127  H    0.020864
   128  H    0.010455
   129  H    0.011358
   130  H    0.016826
   131  H    0.017271
   132  H    0.015484
   133  H    0.015482
   134  H    0.030788
   135  H    0.031392
   136  H    0.023810
   137  H    0.024276
   138  H    0.031607
   139  H    0.025182
   140  H    0.021842
 Sum of Mulliken charges =  -0.00000

 Dipole moment (field-independent basis, Debye):
    X=              1.3412    Y=              5.8445    Z=              1.4185  Tot=              6.1619
 Quadrupole moment (field-independent basis, Debye-Ang):
   XX=           -346.3710   YY=           -440.5050   ZZ=           -393.5142
   XY=             20.1985   XZ=              5.1788   YZ=             24.4559

 Normal termination of Gaussian 16 at Thu May  5 09:16:41 2022.
