 Gaussian 16, Revision A.03,
 Gaussian 16:  ES64L-G16RevA.03 25-Dec-2016

 --------------------
 #p ZINDO=(nstates=5)
 --------------------

 ----------------------------
 step_751_chromophore_5 ZINDO
 ----------------------------
 Symbolic Z-matrix:
 Charge =  0 Multiplicity = 1

                         Standard orientation:
 ---------------------------------------------------------------------
 Center     Atomic      Atomic             Coordinates (Angstroms)
 Number     Number       Type             X           Y           Z
 ---------------------------------------------------------------------
      1         12           0        5.251286    0.538710   -0.149862
      2          6           0        3.718402   -2.724241   -0.202561
      3          6           0        3.054307    1.458079   -2.618392
      4          6           0        6.223182    3.617880    0.270597
      5          6           0        7.072065   -0.471258    2.798838
      6          7           0        3.437619   -0.447157   -1.079357
      7          6           0        3.106284   -1.825181   -1.020846
      8          6           0        1.977680   -2.180014   -1.962950
      9          6           0        1.992514   -0.859241   -2.929356
     10          6           0        2.920484    0.112913   -2.200454
     11          6           0        2.379656   -1.082972   -4.428653
     12          6           0        0.603261   -2.321369   -1.113410
     13          6           0       -0.237054   -3.610237   -1.405265
     14          6           0       -1.555184   -3.341563   -2.136581
     15          8           0       -1.637377   -3.156842   -3.310714
     16          8           0       -2.550324   -3.255917   -1.268511
     17          7           0        4.725101    2.350340   -1.088017
     18          6           0        3.824694    2.488329   -2.106766
     19          6           0        3.879334    3.870742   -2.539146
     20          6           0        4.898826    4.482217   -1.763689
     21          6           0        5.334633    3.478595   -0.795286
     22          6           0        2.892981    4.505746   -3.609608
     23          6           0        5.449325    5.864839   -1.988152
     24          8           0        4.818908    6.544918   -2.796708
     25          6           0        6.546581    6.432636   -1.364352
     26          7           0        6.449981    1.396156    1.296223
     27          6           0        6.666375    2.721439    1.262633
     28          6           0        7.289780    3.205726    2.555228
     29          6           0        7.385392    1.956369    3.439906
     30          6           0        7.001735    0.906862    2.452706
     31          6           0        8.648350    3.970711    2.340504
     32          6           0        6.423741    1.843079    4.706453
     33          6           0        7.217250    1.786061    6.053906
     34          7           0        5.435231   -1.275548    1.014415
     35          6           0        6.306550   -1.522896    2.109041
     36          6           0        6.168768   -2.940909    2.523728
     37          6           0        5.120383   -3.395674    1.695504
     38          6           0        4.770303   -2.347763    0.758572
     39          6           0        6.709509   -3.558616    3.808845
     40          6           0        4.271939   -4.560806    1.394202
     41          8           0        4.188158   -5.662193    1.914658
     42          6           0        3.401167   -4.185121    0.139565
     43          6           0        3.537729   -5.160523   -0.969316
     44          8           0        2.644763   -5.947019   -1.287669
     45          8           0        4.795066   -5.110898   -1.585167
     46          6           0        5.036047   -6.272508   -2.505037
     47          6           0       -3.862439   -2.864866   -1.834839
     48          6           0       -4.037804   -1.429834   -1.470758
     49          6           0       -4.753862   -0.785316   -0.510465
     50          6           0       -5.571209   -1.450375    0.479792
     51          6           0       -4.895098    0.737603   -0.536866
     52          6           0       -5.952280    1.352665   -1.509171
     53          6           0       -6.035683    2.853769   -1.211269
     54          6           0       -7.392909    3.272133   -0.629693
     55          6           0       -7.501129    4.806610   -0.665222
     56          6           0       -7.664023    2.742081    0.841283
     57          6           0       -9.087326    2.503881    1.248643
     58          6           0       -9.298236    1.021001    1.638988
     59          6           0      -10.399954    0.414569    0.910035
     60          6           0      -10.141645    0.041203   -0.538661
     61          6           0      -10.821869   -0.918125    1.629059
     62          6           0      -12.093184   -0.584685    2.451308
     63          6           0      -13.359136   -0.798136    1.572678
     64          6           0      -14.415684    0.244051    1.786003
     65          6           0      -15.765190   -0.285334    2.539100
     66          6           0      -14.754172    0.933437    0.438351
     67          1           0        2.480991    1.721928   -3.509614
     68          1           0        6.533554    4.654561    0.414165
     69          1           0        7.424554   -0.689751    3.809723
     70          1           0        2.236480   -3.088321   -2.508807
     71          1           0        1.108381   -0.225464   -2.992199
     72          1           0        2.712485   -2.118752   -4.498641
     73          1           0        3.181808   -0.433211   -4.780173
     74          1           0        1.505589   -0.932431   -5.062800
     75          1           0       -0.026240   -1.474769   -1.389887
     76          1           0        0.756351   -2.247125   -0.036349
     77          1           0       -0.300633   -4.173848   -0.474357
     78          1           0        0.307048   -4.211383   -2.134198
     79          1           0        2.914726    5.595775   -3.604059
     80          1           0        1.926580    4.059704   -3.377530
     81          1           0        3.249601    4.158557   -4.579083
     82          1           0        7.472137    5.865094   -1.258437
     83          1           0        6.071892    6.760222   -0.439333
     84          1           0        6.784838    7.318959   -1.952349
     85          1           0        6.667897    3.952295    3.047067
     86          1           0        8.392274    1.648522    3.718660
     87          1           0        8.607429    4.249280    1.287574
     88          1           0        9.542155    3.361505    2.473715
     89          1           0        8.712033    4.793470    3.052271
     90          1           0        5.898150    0.888379    4.688301
     91          1           0        5.655777    2.609718    4.808611
     92          1           0        6.793540    2.473628    6.785881
     93          1           0        8.300280    1.701807    5.959034
     94          1           0        6.998882    0.785488    6.425995
     95          1           0        6.886040   -4.619928    3.634182
     96          1           0        5.965759   -3.495181    4.603989
     97          1           0        7.686911   -3.172511    4.101127
     98          1           0        2.358112   -4.355248    0.405079
     99          1           0        4.316618   -6.406519   -3.312740
    100          1           0        5.065390   -7.247520   -2.019018
    101          1           0        6.006155   -6.118960   -2.979253
    102          1           0       -4.694876   -3.473435   -1.483293
    103          1           0       -3.932904   -2.870202   -2.923244
    104          1           0       -3.551310   -0.699869   -2.117618
    105          1           0       -4.899666   -1.744840    1.286249
    106          1           0       -5.945966   -2.364582    0.019056
    107          1           0       -6.409634   -0.927950    0.942255
    108          1           0       -3.914147    1.211754   -0.578622
    109          1           0       -5.111791    0.867871    0.522844
    110          1           0       -6.902097    0.818674   -1.472969
    111          1           0       -5.431986    1.378368   -2.466389
    112          1           0       -5.953241    3.319632   -2.193233
    113          1           0       -5.199987    3.119819   -0.563523
    114          1           0       -8.199098    2.946942   -1.287774
    115          1           0       -7.774195    5.241182    0.296761
    116          1           0       -8.358752    5.096406   -1.271823
    117          1           0       -6.649049    5.334431   -1.093207
    118          1           0       -7.357162    3.517253    1.543831
    119          1           0       -6.977978    1.907783    0.986748
    120          1           0       -9.808666    2.841882    0.504201
    121          1           0       -9.388614    3.170439    2.056548
    122          1           0       -9.479373    0.897160    2.707123
    123          1           0       -8.473966    0.340859    1.421780
    124          1           0      -11.224957    1.125428    0.866164
    125          1           0      -10.036509   -1.033433   -0.688045
    126          1           0       -9.273056    0.579020   -0.919143
    127          1           0      -10.939415    0.419423   -1.177999
    128          1           0      -10.030182   -1.421539    2.184169
    129          1           0      -11.128134   -1.713313    0.948894
    130          1           0      -12.112334    0.419455    2.877542
    131          1           0      -12.014075   -1.264328    3.299721
    132          1           0      -13.741115   -1.779471    1.850388
    133          1           0      -13.221919   -0.889791    0.495687
    134          1           0      -14.015911    0.959052    2.505004
    135          1           0      -15.848156   -1.351048    2.748899
    136          1           0      -16.660049    0.033898    2.005114
    137          1           0      -15.844577    0.189587    3.517401
    138          1           0      -14.385326    1.959135    0.433874
    139          1           0      -15.812157    0.925550    0.175531
    140          1           0      -14.320679    0.511417   -0.469319
 ---------------------------------------------------------------------

 SCF Done:  E(RZINDO/S) =  -474.361902572     A.U. after   19 cycles

 Excitation energies and oscillator strengths:

 Excited State   1:      Singlet-A      1.2646 eV  980.45 nm  f=0.5223  <S**2>=0.000
     175 ->178         0.13106
     176 ->177         0.67743
 This state for optimization and/or second-order correction.
 Total Energy, E(CIS/TDA) =  -474.315430701
 Copying the excited state density for this state as the 1-particle RhoCI density.

 Excited State   2:      Singlet-A      2.0085 eV  617.30 nm  f=0.0186  <S**2>=0.000
     175 ->177         0.50978
     176 ->178        -0.44757

 Excited State   3:      Singlet-A      2.8227 eV  439.25 nm  f=0.0073  <S**2>=0.000
     167 ->179        -0.11317
     168 ->177         0.32141
     168 ->178         0.18583
     168 ->179        -0.37337
     168 ->181        -0.23163
     168 ->183        -0.10146
     168 ->185        -0.21564
     170 ->177        -0.10983

 Excited State   4:      Singlet-A      2.9624 eV  418.53 nm  f=0.9173  <S**2>=0.000
     175 ->177         0.36265
     176 ->178         0.45545
     176 ->179        -0.20509
     176 ->180         0.23492

 Excited State   5:      Singlet-A      3.0386 eV  408.03 nm  f=0.2400  <S**2>=0.000
     175 ->177        -0.21514
     176 ->178        -0.22581
     176 ->179        -0.37568
     176 ->180         0.42140
     176 ->181         0.22088

 The electronic state is 1-A.
 Alpha  occ. eigenvalues --   -1.84914  -1.81666  -1.80205  -1.75639  -1.70844
 Alpha  occ. eigenvalues --   -1.69273  -1.68637  -1.64368  -1.62283  -1.55794
 Alpha  occ. eigenvalues --   -1.55079  -1.52024  -1.48368  -1.47248  -1.45269
 Alpha  occ. eigenvalues --   -1.44718  -1.42001  -1.40453  -1.39845  -1.38974
 Alpha  occ. eigenvalues --   -1.36120  -1.33346  -1.31888  -1.31143  -1.28435
 Alpha  occ. eigenvalues --   -1.27587  -1.27459  -1.22838  -1.22038  -1.18505
 Alpha  occ. eigenvalues --   -1.15862  -1.15820  -1.15111  -1.14248  -1.13607
 Alpha  occ. eigenvalues --   -1.12503  -1.11092  -1.10327  -1.05287  -1.04986
 Alpha  occ. eigenvalues --   -1.01791  -1.01327  -1.00193  -0.98449  -0.97125
 Alpha  occ. eigenvalues --   -0.95536  -0.95357  -0.94851  -0.93543  -0.92951
 Alpha  occ. eigenvalues --   -0.91691  -0.90520  -0.90333  -0.88253  -0.87571
 Alpha  occ. eigenvalues --   -0.85818  -0.84263  -0.83349  -0.82872  -0.80874
 Alpha  occ. eigenvalues --   -0.79180  -0.78863  -0.77891  -0.77265  -0.76420
 Alpha  occ. eigenvalues --   -0.76328  -0.75487  -0.75010  -0.73895  -0.73266
 Alpha  occ. eigenvalues --   -0.72883  -0.71980  -0.71817  -0.71147  -0.70901
 Alpha  occ. eigenvalues --   -0.70283  -0.69274  -0.68812  -0.68363  -0.68122
 Alpha  occ. eigenvalues --   -0.67665  -0.67133  -0.67036  -0.66689  -0.65717
 Alpha  occ. eigenvalues --   -0.65384  -0.64464  -0.63942  -0.63593  -0.63393
 Alpha  occ. eigenvalues --   -0.63006  -0.62473  -0.62210  -0.61990  -0.61495
 Alpha  occ. eigenvalues --   -0.61406  -0.61024  -0.60672  -0.60369  -0.59875
 Alpha  occ. eigenvalues --   -0.59834  -0.59695  -0.59275  -0.58725  -0.58238
 Alpha  occ. eigenvalues --   -0.58041  -0.57817  -0.57546  -0.57109  -0.56195
 Alpha  occ. eigenvalues --   -0.55953  -0.55626  -0.55424  -0.55249  -0.54878
 Alpha  occ. eigenvalues --   -0.54512  -0.53835  -0.53466  -0.53230  -0.53082
 Alpha  occ. eigenvalues --   -0.52996  -0.52838  -0.52677  -0.51735  -0.51648
 Alpha  occ. eigenvalues --   -0.51339  -0.51316  -0.51025  -0.50798  -0.50716
 Alpha  occ. eigenvalues --   -0.50296  -0.50229  -0.49883  -0.49405  -0.49029
 Alpha  occ. eigenvalues --   -0.48829  -0.48397  -0.48292  -0.47629  -0.47310
 Alpha  occ. eigenvalues --   -0.47253  -0.46762  -0.46587  -0.46511  -0.46348
 Alpha  occ. eigenvalues --   -0.46294  -0.46189  -0.45792  -0.45694  -0.45512
 Alpha  occ. eigenvalues --   -0.44957  -0.44540  -0.44477  -0.44134  -0.43981
 Alpha  occ. eigenvalues --   -0.43644  -0.43196  -0.42852  -0.42682  -0.42144
 Alpha  occ. eigenvalues --   -0.41818  -0.41361  -0.39806  -0.39233  -0.38292
 Alpha  occ. eigenvalues --   -0.38087  -0.37049  -0.35543  -0.34449  -0.34341
 Alpha  occ. eigenvalues --   -0.33886  -0.32733  -0.31659  -0.31366  -0.27688
 Alpha  occ. eigenvalues --   -0.21788
 Alpha virt. eigenvalues --   -0.08563  -0.02120  -0.00457   0.00939   0.01216
 Alpha virt. eigenvalues --    0.02625   0.02827   0.03313   0.04227   0.05028
 Alpha virt. eigenvalues --    0.05910   0.06372   0.06811   0.07266   0.07671

 Mulliken charges:
               1
     1  Mg   0.433049
     2  C   -0.041597
     3  C   -0.081922
     4  C   -0.113153
     5  C   -0.080853
     6  N   -0.299329
     7  C    0.095375
     8  C    0.005469
     9  C   -0.003741
    10  C    0.194039
    11  C   -0.049430
    12  C   -0.020560
    13  C   -0.004281
    14  C    0.483358
    15  O   -0.525867
    16  O   -0.250120
    17  N   -0.332676
    18  C    0.149411
    19  C    0.048940
    20  C   -0.042225
    21  C    0.163578
    22  C   -0.037941
    23  C    0.346891
    24  O   -0.550246
    25  C   -0.017790
    26  N   -0.262604
    27  C    0.177465
    28  C    0.010734
    29  C    0.001934
    30  C    0.081832
    31  C   -0.057367
    32  C   -0.033697
    33  C   -0.071992
    34  N   -0.292920
    35  C    0.026990
    36  C   -0.000376
    37  C   -0.081092
    38  C    0.101623
    39  C   -0.036021
    40  C    0.327174
    41  O   -0.526088
    42  C    0.055829
    43  C    0.487477
    44  O   -0.520721
    45  O   -0.269114
    46  C    0.074554
    47  C    0.109406
    48  C   -0.097064
    49  C   -0.008656
    50  C   -0.038307
    51  C   -0.031827
    52  C   -0.032680
    53  C   -0.031185
    54  C   -0.012373
    55  C   -0.063662
    56  C   -0.034709
    57  C   -0.029251
    58  C   -0.023108
    59  C   -0.002233
    60  C   -0.059700
    61  C   -0.044972
    62  C   -0.037309
    63  C   -0.028701
    64  C   -0.008195
    65  C   -0.068791
    66  C   -0.058173
    67  H    0.025842
    68  H    0.015008
    69  H    0.032942
    70  H    0.049535
    71  H    0.041147
    72  H    0.025113
    73  H    0.024401
    74  H    0.027046
    75  H    0.023870
    76  H    0.032714
    77  H    0.042547
    78  H    0.041035
    79  H    0.055992
    80  H    0.030142
    81  H    0.034708
    82  H    0.038101
    83  H    0.056735
    84  H    0.036658
    85  H    0.030748
    86  H    0.036723
    87  H    0.023297
    88  H    0.024597
    89  H    0.024936
    90  H    0.029310
    91  H    0.023468
    92  H    0.028046
    93  H    0.030086
    94  H    0.009459
    95  H    0.025420
    96  H    0.036186
    97  H    0.021221
    98  H    0.052922
    99  H    0.043600
   100  H    0.047970
   101  H    0.025238
   102  H    0.040824
   103  H    0.054472
   104  H    0.020051
   105  H    0.029261
   106  H    0.017722
   107  H    0.024293
   108  H    0.022649
   109  H    0.010981
   110  H    0.039732
   111  H    0.023257
   112  H    0.013919
   113  H    0.028449
   114  H    0.022614
   115  H    0.016251
   116  H    0.007280
   117  H    0.021308
   118  H    0.012330
   119  H    0.022430
   120  H    0.020107
   121  H    0.014517
   122  H    0.013594
   123  H    0.019604
   124  H    0.019350
   125  H    0.024997
   126  H    0.009570
   127  H    0.012469
   128  H    0.019611
   129  H    0.012100
   130  H    0.022914
   131  H    0.011446
   132  H    0.011380
   133  H    0.026488
   134  H    0.023030
   135  H    0.024481
   136  H    0.018559
   137  H    0.012121
   138  H    0.014175
   139  H    0.017720
   140  H    0.016675
 Sum of Mulliken charges =  -0.00000

 Dipole moment (field-independent basis, Debye):
    X=              1.4191    Y=              9.2038    Z=              0.5090  Tot=              9.3265
 N-N= 4.358298671131D+03 E-N= 0.000000000000D+00  KE=-9.390682036040D+03
 Leave Link  601 at Thu May  5 09:29:18 2022, MaxMem=  6710886400 cpu:               0.8 elap:               0.1
 (Enter /sw/apps/gaussian-16.0/g16/l9999.exe)
 1\1\GINC-BP1-COMPUTE063\SP\RZINDO CIS\STO-3G\C55H74Mg1N4O6\OF15641\05-
 May-2022\0\\#p ZINDO=(nstates=5)\\step_751_chromophore_5 ZINDO\\0,1\Mg
 ,0,24.414,-6.515,46.473\C,0,26.566,-3.912,45.211\C,0,21.897,-5.163,44.
 575\C,0,22.627,-9.153,47.144\C,0,27.321,-8.073,47.94\N,0,24.343,-4.904
 ,44.884\C,0,25.325,-3.907,44.652\C,0,24.84,-2.842,43.694\C,0,23.23,-3.
 132,43.743\C,0,23.124,-4.464,44.486\C,0,22.326,-2.008,44.349\C,0,25.48
 3,-3.114,42.23\C,0,26.127,-1.866,41.537\C,0,25.352,-1.363,40.316\O,0,2

 Normal termination of Gaussian 16 at Thu May  5 09:29:18 2022.
