 Gaussian 16, Revision A.03,
 Gaussian 16:  ES64L-G16RevA.03 25-Dec-2016

 ------------------------------
 #p blyp/Def2SVP td=(nstates=5)
 ------------------------------

 --------------------------------------------------
 step_501_chromophore_19 TDDFT with blyp functional
 --------------------------------------------------
 Symbolic Z-matrix:
 Charge =  0 Multiplicity = 1

                         Standard orientation:
 ---------------------------------------------------------------------
 Center     Atomic      Atomic             Coordinates (Angstroms)
 Number     Number       Type             X           Y           Z
 ---------------------------------------------------------------------
      1         12           0       -5.822076    0.412871   -0.379143
      2          6           0       -3.269167   -2.101412   -0.275978
      3          6           0       -3.522100    2.701212    0.126017
      4          6           0       -8.356736    2.438597    0.296405
      5          6           0       -8.208831   -2.379984   -0.558307
      6          7           0       -3.637479    0.297753   -0.154261
      7          6           0       -2.777128   -0.817190   -0.106900
      8          6           0       -1.262824   -0.442905    0.114300
      9          6           0       -1.436327    1.196764    0.169199
     10          6           0       -2.932660    1.457880    0.028449
     11          6           0       -0.883274    1.816689    1.523554
     12          6           0       -0.259963   -0.987404   -0.961686
     13          6           0        1.105024   -0.310527   -0.997781
     14          6           0        2.281655   -1.214036   -0.585722
     15          8           0        2.203075   -2.078326    0.256006
     16          8           0        3.422660   -0.817178   -1.300159
     17          7           0       -5.918722    2.341678    0.044883
     18          6           0       -4.869110    3.214742    0.209161
     19          6           0       -5.312432    4.569812    0.460343
     20          6           0       -6.759058    4.460757    0.492016
     21          6           0       -7.062028    3.015782    0.193255
     22          6           0       -4.475440    5.755989    0.573499
     23          6           0       -7.814295    5.531659    0.707705
     24          8           0       -8.993512    5.345585    0.595717
     25          6           0       -7.277313    6.860238    1.169743
     26          7           0       -7.983198    0.065734   -0.097764
     27          6           0       -8.801380    1.120644    0.144818
     28          6           0      -10.288949    0.677939    0.160945
     29          6           0      -10.193475   -0.832758   -0.249193
     30          6           0       -8.700374   -1.072851   -0.363186
     31          6           0      -11.109458    0.889463    1.478754
     32          6           0      -10.917482   -1.234661   -1.582426
     33          6           0      -12.449421   -1.364023   -1.431983
     34          7           0       -5.828831   -1.755211   -0.391376
     35          6           0       -6.815458   -2.702374   -0.541226
     36          6           0       -6.217063   -3.972095   -0.661695
     37          6           0       -4.887561   -3.835038   -0.516156
     38          6           0       -4.646931   -2.440796   -0.323833
     39          6           0       -7.047245   -5.208697   -0.980364
     40          6           0       -3.568006   -4.465768   -0.410180
     41          8           0       -3.248334   -5.625504   -0.459530
     42          6           0       -2.464848   -3.318270   -0.222562
     43          6           0       -1.923633   -3.447106    1.165549
     44          8           0       -2.301328   -2.996963    2.223733
     45          8           0       -0.778141   -4.205085    1.024335
     46          6           0       -0.000585   -4.485980    2.254681
     47          6           0        4.593129   -1.532618   -0.857407
     48          6           0        5.772942   -0.580241   -0.857013
     49          6           0        6.105751    0.245760    0.115412
     50          6           0        5.132024    0.600160    1.246961
     51          6           0        7.499805    0.971729    0.050401
     52          6           0        7.960289    1.696579   -1.242688
     53          6           0        8.764728    0.832285   -2.218102
     54          6           0        9.804411    1.629286   -3.171777
     55          6           0        9.086357    2.319671   -4.425187
     56          6           0       10.998661    0.672574   -3.488186
     57          6           0       12.291709    1.025821   -2.639364
     58          6           0       12.929229   -0.044878   -1.861145
     59          6           0       13.326503    0.557868   -0.473193
     60          6           0       14.506746    1.501739   -0.532217
     61          6           0       13.450751   -0.512207    0.676903
     62          6           0       13.483018   -0.000551    2.145687
     63          6           0       12.680213   -0.744659    3.191085
     64          6           0       11.388879    0.006914    3.729365
     65          6           0       10.772229   -0.741993    4.891643
     66          6           0       10.340969    0.274935    2.616515
     67          1           0       -2.839699    3.525067    0.344669
     68          1           0       -9.125331    3.119124    0.670626
     69          1           0       -9.035697   -3.076109   -0.717020
     70          1           0       -0.990899   -0.751491    1.123857
     71          1           0       -0.839377    1.622650   -0.637596
     72          1           0       -0.301632    2.710841    1.299843
     73          1           0       -0.307295    1.184896    2.199184
     74          1           0       -1.704068    2.219847    2.115939
     75          1           0       -0.866589   -0.860519   -1.859296
     76          1           0       -0.057405   -2.058333   -0.987469
     77          1           0        1.093225    0.548378   -0.327370
     78          1           0        1.348991   -0.075956   -2.033538
     79          1           0       -4.810881    6.292245   -0.314172
     80          1           0       -3.417757    5.492171    0.580155
     81          1           0       -4.631579    6.413195    1.428713
     82          1           0       -7.116739    7.503904    0.304971
     83          1           0       -6.564908    6.782432    1.991551
     84          1           0       -8.053097    7.209749    1.850412
     85          1           0      -10.721502    1.117115   -0.738507
     86          1           0      -10.483319   -1.449008    0.602170
     87          1           0      -11.540407   -0.005393    1.928706
     88          1           0      -11.994777    1.447580    1.174911
     89          1           0      -10.577128    1.394053    2.285043
     90          1           0      -10.549586   -2.205463   -1.912639
     91          1           0      -10.611364   -0.477132   -2.305253
     92          1           0      -12.716747   -1.528598   -0.387986
     93          1           0      -12.743371   -2.182986   -2.088377
     94          1           0      -13.002716   -0.464985   -1.705095
     95          1           0       -6.449386   -5.964305   -1.490113
     96          1           0       -7.910673   -4.907288   -1.573533
     97          1           0       -7.501552   -5.604794   -0.071901
     98          1           0       -1.682556   -3.382923   -0.979203
     99          1           0        0.329045   -5.520523    2.159762
    100          1           0       -0.563761   -4.363473    3.179724
    101          1           0        0.803478   -3.761588    2.121254
    102          1           0        4.891536   -2.294295   -1.578306
    103          1           0        4.579212   -1.927624    0.157775
    104          1           0        6.499640   -0.687681   -1.662158
    105          1           0        4.174826    0.093888    1.119640
    106          1           0        4.969920    1.672889    1.140815
    107          1           0        5.611407    0.319958    2.184195
    108          1           0        8.235424    0.203714    0.287058
    109          1           0        7.599073    1.718824    0.837761
    110          1           0        8.580333    2.581437   -1.103956
    111          1           0        7.045962    1.978399   -1.764586
    112          1           0        8.033164    0.463156   -2.936350
    113          1           0        9.264846   -0.014282   -1.748132
    114          1           0       10.223611    2.458373   -2.600951
    115          1           0        8.010236    2.333617   -4.249500
    116          1           0        9.383389    1.728166   -5.291059
    117          1           0        9.367077    3.371474   -4.486762
    118          1           0       11.238892    0.843542   -4.537568
    119          1           0       10.650173   -0.341987   -3.296597
    120          1           0       12.040106    1.899510   -2.037666
    121          1           0       12.997995    1.286374   -3.428600
    122          1           0       13.780042   -0.421826   -2.426753
    123          1           0       12.313843   -0.930614   -1.702029
    124          1           0       12.523216    1.214206   -0.136978
    125          1           0       14.974508    1.629551   -1.508964
    126          1           0       15.249956    1.240454    0.221325
    127          1           0       14.156195    2.496893   -0.257385
    128          1           0       14.328988   -1.148837    0.566319
    129          1           0       12.681742   -1.274076    0.550505
    130          1           0       13.143448    1.028580    2.262649
    131          1           0       14.514345    0.056480    2.494962
    132          1           0       13.338468   -1.165135    3.951705
    133          1           0       12.405763   -1.711192    2.767559
    134          1           0       11.734968    0.961969    4.124219
    135          1           0       10.646677    0.011194    5.670530
    136          1           0       11.491846   -1.541353    5.069475
    137          1           0        9.806668   -1.172425    4.627197
    138          1           0        9.346289    0.256713    3.061374
    139          1           0       10.246214   -0.524400    1.881468
    140          1           0       10.477401    1.264836    2.182433
 ---------------------------------------------------------------------

 SCF Done:  E(RB-LYP) =  -3007.38091257     A.U. after   20 cycles

 Excitation energies and oscillator strengths:

 Excited State   1:      Singlet-A      1.8210 eV  680.84 nm  f=0.3080  <S**2>=0.000
     245 -> 248        0.18264
     246 -> 247        0.68877
     246 <- 247       -0.14940
 This state for optimization and/or second-order correction.
 Total Energy, E(TD-HF/TD-DFT) =  -3007.31399075
 Copying the excited state density for this state as the 1-particle RhoCI density.

 Excited State   2:      Singlet-A      1.9765 eV  627.31 nm  f=0.0342  <S**2>=0.000
     243 -> 247        0.16122
     244 -> 247        0.53954
     245 -> 247       -0.40185
     246 -> 248        0.11618

 Excited State   3:      Singlet-A      2.0114 eV  616.40 nm  f=0.0425  <S**2>=0.000
     243 -> 247       -0.28996
     244 -> 247        0.45054
     245 -> 247        0.42880
     246 -> 248       -0.14122

 Excited State   4:      Singlet-A      2.1006 eV  590.24 nm  f=0.0276  <S**2>=0.000
     243 -> 247        0.62249
     245 -> 247        0.29080
     246 -> 248       -0.12104

 Excited State   5:      Singlet-A      2.6084 eV  475.33 nm  f=0.0006  <S**2>=0.000
     242 -> 247        0.69470

 The electronic state is 1-A.
 Alpha  occ. eigenvalues --  -46.26933 -18.83057 -18.80112 -18.78502 -18.76132
 Alpha  occ. eigenvalues --  -18.75641 -18.75601 -14.03134 -14.02432 -14.01077
 Alpha  occ. eigenvalues --  -14.00299 -10.04887 -10.02835  -9.99625  -9.99506
 Alpha  occ. eigenvalues --   -9.97585  -9.96402  -9.96210  -9.96062  -9.95862
 Alpha  occ. eigenvalues --   -9.95819  -9.95621  -9.95609  -9.94830  -9.94749
 Alpha  occ. eigenvalues --   -9.94609  -9.94075  -9.94040  -9.93990  -9.93673
 Alpha  occ. eigenvalues --   -9.93335  -9.93099  -9.93078  -9.93018  -9.92907
 Alpha  occ. eigenvalues --   -9.92866  -9.92748  -9.92568  -9.92563  -9.92560
 Alpha  occ. eigenvalues --   -9.92533  -9.92438  -9.92325  -9.92277  -9.92250
 Alpha  occ. eigenvalues --   -9.92213  -9.92160  -9.91887  -9.91869  -9.91779
 Alpha  occ. eigenvalues --   -9.91733  -9.91563  -9.91470  -9.91432  -9.91279
 Alpha  occ. eigenvalues --   -9.91238  -9.91160  -9.91059  -9.90976  -9.90964
 Alpha  occ. eigenvalues --   -9.90862  -9.90847  -9.90829  -9.90648  -9.90555
 Alpha  occ. eigenvalues --   -9.90424  -2.91573  -1.71993  -1.71445  -1.71300
 Alpha  occ. eigenvalues --   -0.98567  -0.96360  -0.92797  -0.92020  -0.91828
 Alpha  occ. eigenvalues --   -0.88798  -0.86041  -0.85566  -0.84814  -0.83961
 Alpha  occ. eigenvalues --   -0.75559  -0.73435  -0.73013  -0.72350  -0.72105
 Alpha  occ. eigenvalues --   -0.71887  -0.71507  -0.70713  -0.70433  -0.70193
 Alpha  occ. eigenvalues --   -0.69427  -0.68710  -0.68051  -0.66949  -0.66877
 Alpha  occ. eigenvalues --   -0.66426  -0.65853  -0.65301  -0.64705  -0.64266
 Alpha  occ. eigenvalues --   -0.63982  -0.62291  -0.62104  -0.61318  -0.60400
 Alpha  occ. eigenvalues --   -0.60281  -0.60055  -0.59759  -0.59439  -0.59279
 Alpha  occ. eigenvalues --   -0.58333  -0.57544  -0.56453  -0.55643  -0.54340
 Alpha  occ. eigenvalues --   -0.53923  -0.53394  -0.52503  -0.52114  -0.51100
 Alpha  occ. eigenvalues --   -0.50786  -0.50441  -0.50202  -0.49891  -0.49854
 Alpha  occ. eigenvalues --   -0.49607  -0.49451  -0.48658  -0.47201  -0.46416
 Alpha  occ. eigenvalues --   -0.46221  -0.45736  -0.45086  -0.44479  -0.44172
 Alpha  occ. eigenvalues --   -0.43793  -0.43658  -0.43354  -0.42712  -0.42166
 Alpha  occ. eigenvalues --   -0.41812  -0.41590  -0.41491  -0.41317  -0.41251
 Alpha  occ. eigenvalues --   -0.40947  -0.40636  -0.40562  -0.40351  -0.39994
 Alpha  occ. eigenvalues --   -0.39482  -0.39356  -0.39204  -0.39115  -0.38881
 Alpha  occ. eigenvalues --   -0.38785  -0.38614  -0.38503  -0.38275  -0.38160
 Alpha  occ. eigenvalues --   -0.37882  -0.37758  -0.37630  -0.37442  -0.37268
 Alpha  occ. eigenvalues --   -0.37027  -0.36811  -0.36656  -0.36571  -0.36398
 Alpha  occ. eigenvalues --   -0.36157  -0.36083  -0.35687  -0.35623  -0.35352
 Alpha  occ. eigenvalues --   -0.35269  -0.35228  -0.35028  -0.35006  -0.34703
 Alpha  occ. eigenvalues --   -0.34605  -0.34023  -0.33913  -0.33861  -0.33748
 Alpha  occ. eigenvalues --   -0.33687  -0.33570  -0.33311  -0.33245  -0.33094
 Alpha  occ. eigenvalues --   -0.32881  -0.32781  -0.32636  -0.32447  -0.32164
 Alpha  occ. eigenvalues --   -0.31971  -0.31854  -0.31772  -0.31644  -0.31560
 Alpha  occ. eigenvalues --   -0.31475  -0.31175  -0.31084  -0.30868  -0.30467
 Alpha  occ. eigenvalues --   -0.30440  -0.30208  -0.29733  -0.29633  -0.29464
 Alpha  occ. eigenvalues --   -0.29348  -0.29307  -0.29135  -0.28796  -0.28761
 Alpha  occ. eigenvalues --   -0.28488  -0.28244  -0.27972  -0.27722  -0.27449
 Alpha  occ. eigenvalues --   -0.27357  -0.27154  -0.27116  -0.26533  -0.26446
 Alpha  occ. eigenvalues --   -0.26283  -0.25910  -0.25802  -0.25628  -0.25581
 Alpha  occ. eigenvalues --   -0.25225  -0.24370  -0.24260  -0.23626  -0.23397
 Alpha  occ. eigenvalues --   -0.23191  -0.22836  -0.21874  -0.21606  -0.20956
 Alpha  occ. eigenvalues --   -0.20657  -0.20284  -0.18777  -0.18457  -0.16802
 Alpha  occ. eigenvalues --   -0.15549
 Alpha virt. eigenvalues --   -0.11243  -0.06394  -0.05436  -0.04155  -0.03427
 Alpha virt. eigenvalues --   -0.02400  -0.02041  -0.01296  -0.00846   0.00860
 Alpha virt. eigenvalues --    0.01614   0.01803   0.02068   0.02696   0.02853

 Mulliken charges:
               1
     1  Mg   0.708402
     2  C    0.006562
     3  C   -0.046382
     4  C   -0.038045
     5  C   -0.082832
     6  N   -0.242802
     7  C   -0.086481
     8  C    0.038952
     9  C   -0.021158
    10  C    0.070607
    11  C    0.091854
    12  C    0.093516
    13  C    0.154568
    14  C    0.065403
    15  O   -0.166671
    16  O   -0.271082
    17  N   -0.312596
    18  C    0.083793
    19  C   -0.104909
    20  C   -0.022295
    21  C    0.110968
    22  C    0.190065
    23  C   -0.094683
    24  O   -0.134144
    25  C    0.128658
    26  N   -0.196473
    27  C   -0.016097
    28  C    0.081802
    29  C   -0.009473
    30  C   -0.027958
    31  C    0.128810
    32  C    0.068631
    33  C    0.084877
    34  N   -0.230369
    35  C    0.149017
    36  C   -0.232123
    37  C    0.147265
    38  C    0.054937
    39  C    0.189397
    40  C   -0.068554
    41  O   -0.097216
    42  C    0.042283
    43  C    0.130189
    44  O   -0.169399
    45  O   -0.290172
    46  C    0.197990
    47  C    0.325678
    48  C   -0.120045
    49  C   -0.166132
    50  C    0.152566
    51  C    0.129172
    52  C    0.085826
    53  C    0.029714
    54  C   -0.124821
    55  C    0.109564
    56  C    0.122966
    57  C    0.064069
    58  C    0.138997
    59  C   -0.097439
    60  C    0.124363
    61  C    0.106948
    62  C    0.094546
    63  C    0.072101
    64  C   -0.112454
    65  C    0.140498
    66  C    0.090198
    67  H   -0.085378
    68  H   -0.041090
    69  H   -0.058050
    70  H   -0.002760
    71  H   -0.008257
    72  H   -0.015758
    73  H    0.005369
    74  H   -0.004390
    75  H   -0.030317
    76  H    0.006401
    77  H    0.012206
    78  H   -0.003712
    79  H    0.008721
    80  H   -0.012253
    81  H   -0.002132
    82  H    0.025359
    83  H   -0.003279
    84  H   -0.019936
    85  H   -0.023478
    86  H   -0.027213
    87  H   -0.011897
    88  H   -0.006498
    89  H    0.004569
    90  H   -0.023362
    91  H   -0.020064
    92  H   -0.010808
    93  H   -0.003456
    94  H   -0.007234
    95  H    0.008089
    96  H   -0.017097
    97  H   -0.005881
    98  H    0.009693
    99  H    0.017725
   100  H    0.024626
   101  H    0.027076
   102  H   -0.014772
   103  H    0.010381
   104  H   -0.050504
   105  H   -0.010259
   106  H    0.006324
   107  H    0.005937
   108  H   -0.005514
   109  H   -0.039757
   110  H   -0.029002
   111  H   -0.023544
   112  H   -0.012013
   113  H   -0.019909
   114  H   -0.035127
   115  H   -0.017034
   116  H   -0.005045
   117  H   -0.012748
   118  H   -0.045778
   119  H   -0.026437
   120  H   -0.019357
   121  H   -0.033226
   122  H   -0.036847
   123  H   -0.043364
   124  H   -0.030553
   125  H   -0.016175
   126  H   -0.016741
   127  H   -0.028032
   128  H   -0.043650
   129  H   -0.044087
   130  H   -0.044122
   131  H   -0.036281
   132  H   -0.042483
   133  H   -0.052710
   134  H   -0.033637
   135  H   -0.009276
   136  H   -0.019731
   137  H   -0.021210
   138  H   -0.026807
   139  H   -0.001355
   140  H   -0.004035
 Sum of Mulliken charges =  -0.00000

 Dipole moment (field-independent basis, Debye):
    X=              2.9445    Y=              4.0875    Z=             -1.2749  Tot=              5.1965
 Quadrupole moment (field-independent basis, Debye-Ang):
   XX=           -379.4728   YY=           -420.9661   ZZ=           -402.9610
   XY=             12.2134   XZ=              9.9177   YZ=              4.3707

 Normal termination of Gaussian 16 at Thu May  5 00:31:09 2022.
