 Gaussian 16, Revision A.03,
 Gaussian 16:  ES64L-G16RevA.03 25-Dec-2016

 -----------------------------------
 #p cam-b3lyp/Def2SVP td=(nstates=5)
 -----------------------------------

 -------------------------------------------------------
 step_501_chromophore_19 TDDFT with cam-b3lyp functional
 -------------------------------------------------------
 Symbolic Z-matrix:
 Charge =  0 Multiplicity = 1

                         Standard orientation:
 ---------------------------------------------------------------------
 Center     Atomic      Atomic             Coordinates (Angstroms)
 Number     Number       Type             X           Y           Z
 ---------------------------------------------------------------------
      1         12           0       -5.822076    0.412871   -0.379143
      2          6           0       -3.269167   -2.101412   -0.275978
      3          6           0       -3.522100    2.701212    0.126017
      4          6           0       -8.356736    2.438597    0.296405
      5          6           0       -8.208831   -2.379984   -0.558307
      6          7           0       -3.637479    0.297753   -0.154261
      7          6           0       -2.777128   -0.817190   -0.106900
      8          6           0       -1.262824   -0.442905    0.114300
      9          6           0       -1.436327    1.196764    0.169199
     10          6           0       -2.932660    1.457880    0.028449
     11          6           0       -0.883274    1.816689    1.523554
     12          6           0       -0.259963   -0.987404   -0.961686
     13          6           0        1.105024   -0.310527   -0.997781
     14          6           0        2.281655   -1.214036   -0.585722
     15          8           0        2.203075   -2.078326    0.256006
     16          8           0        3.422660   -0.817178   -1.300159
     17          7           0       -5.918722    2.341678    0.044883
     18          6           0       -4.869110    3.214742    0.209161
     19          6           0       -5.312432    4.569812    0.460343
     20          6           0       -6.759058    4.460757    0.492016
     21          6           0       -7.062028    3.015782    0.193255
     22          6           0       -4.475440    5.755989    0.573499
     23          6           0       -7.814295    5.531659    0.707705
     24          8           0       -8.993512    5.345585    0.595717
     25          6           0       -7.277313    6.860238    1.169743
     26          7           0       -7.983198    0.065734   -0.097764
     27          6           0       -8.801380    1.120644    0.144818
     28          6           0      -10.288949    0.677939    0.160945
     29          6           0      -10.193475   -0.832758   -0.249193
     30          6           0       -8.700374   -1.072851   -0.363186
     31          6           0      -11.109458    0.889463    1.478754
     32          6           0      -10.917482   -1.234661   -1.582426
     33          6           0      -12.449421   -1.364023   -1.431983
     34          7           0       -5.828831   -1.755211   -0.391376
     35          6           0       -6.815458   -2.702374   -0.541226
     36          6           0       -6.217063   -3.972095   -0.661695
     37          6           0       -4.887561   -3.835038   -0.516156
     38          6           0       -4.646931   -2.440796   -0.323833
     39          6           0       -7.047245   -5.208697   -0.980364
     40          6           0       -3.568006   -4.465768   -0.410180
     41          8           0       -3.248334   -5.625504   -0.459530
     42          6           0       -2.464848   -3.318270   -0.222562
     43          6           0       -1.923633   -3.447106    1.165549
     44          8           0       -2.301328   -2.996963    2.223733
     45          8           0       -0.778141   -4.205085    1.024335
     46          6           0       -0.000585   -4.485980    2.254681
     47          6           0        4.593129   -1.532618   -0.857407
     48          6           0        5.772942   -0.580241   -0.857013
     49          6           0        6.105751    0.245760    0.115412
     50          6           0        5.132024    0.600160    1.246961
     51          6           0        7.499805    0.971729    0.050401
     52          6           0        7.960289    1.696579   -1.242688
     53          6           0        8.764728    0.832285   -2.218102
     54          6           0        9.804411    1.629286   -3.171777
     55          6           0        9.086357    2.319671   -4.425187
     56          6           0       10.998661    0.672574   -3.488186
     57          6           0       12.291709    1.025821   -2.639364
     58          6           0       12.929229   -0.044878   -1.861145
     59          6           0       13.326503    0.557868   -0.473193
     60          6           0       14.506746    1.501739   -0.532217
     61          6           0       13.450751   -0.512207    0.676903
     62          6           0       13.483018   -0.000551    2.145687
     63          6           0       12.680213   -0.744659    3.191085
     64          6           0       11.388879    0.006914    3.729365
     65          6           0       10.772229   -0.741993    4.891643
     66          6           0       10.340969    0.274935    2.616515
     67          1           0       -2.839699    3.525067    0.344669
     68          1           0       -9.125331    3.119124    0.670626
     69          1           0       -9.035697   -3.076109   -0.717020
     70          1           0       -0.990899   -0.751491    1.123857
     71          1           0       -0.839377    1.622650   -0.637596
     72          1           0       -0.301632    2.710841    1.299843
     73          1           0       -0.307295    1.184896    2.199184
     74          1           0       -1.704068    2.219847    2.115939
     75          1           0       -0.866589   -0.860519   -1.859296
     76          1           0       -0.057405   -2.058333   -0.987469
     77          1           0        1.093225    0.548378   -0.327370
     78          1           0        1.348991   -0.075956   -2.033538
     79          1           0       -4.810881    6.292245   -0.314172
     80          1           0       -3.417757    5.492171    0.580155
     81          1           0       -4.631579    6.413195    1.428713
     82          1           0       -7.116739    7.503904    0.304971
     83          1           0       -6.564908    6.782432    1.991551
     84          1           0       -8.053097    7.209749    1.850412
     85          1           0      -10.721502    1.117115   -0.738507
     86          1           0      -10.483319   -1.449008    0.602170
     87          1           0      -11.540407   -0.005393    1.928706
     88          1           0      -11.994777    1.447580    1.174911
     89          1           0      -10.577128    1.394053    2.285043
     90          1           0      -10.549586   -2.205463   -1.912639
     91          1           0      -10.611364   -0.477132   -2.305253
     92          1           0      -12.716747   -1.528598   -0.387986
     93          1           0      -12.743371   -2.182986   -2.088377
     94          1           0      -13.002716   -0.464985   -1.705095
     95          1           0       -6.449386   -5.964305   -1.490113
     96          1           0       -7.910673   -4.907288   -1.573533
     97          1           0       -7.501552   -5.604794   -0.071901
     98          1           0       -1.682556   -3.382923   -0.979203
     99          1           0        0.329045   -5.520523    2.159762
    100          1           0       -0.563761   -4.363473    3.179724
    101          1           0        0.803478   -3.761588    2.121254
    102          1           0        4.891536   -2.294295   -1.578306
    103          1           0        4.579212   -1.927624    0.157775
    104          1           0        6.499640   -0.687681   -1.662158
    105          1           0        4.174826    0.093888    1.119640
    106          1           0        4.969920    1.672889    1.140815
    107          1           0        5.611407    0.319958    2.184195
    108          1           0        8.235424    0.203714    0.287058
    109          1           0        7.599073    1.718824    0.837761
    110          1           0        8.580333    2.581437   -1.103956
    111          1           0        7.045962    1.978399   -1.764586
    112          1           0        8.033164    0.463156   -2.936350
    113          1           0        9.264846   -0.014282   -1.748132
    114          1           0       10.223611    2.458373   -2.600951
    115          1           0        8.010236    2.333617   -4.249500
    116          1           0        9.383389    1.728166   -5.291059
    117          1           0        9.367077    3.371474   -4.486762
    118          1           0       11.238892    0.843542   -4.537568
    119          1           0       10.650173   -0.341987   -3.296597
    120          1           0       12.040106    1.899510   -2.037666
    121          1           0       12.997995    1.286374   -3.428600
    122          1           0       13.780042   -0.421826   -2.426753
    123          1           0       12.313843   -0.930614   -1.702029
    124          1           0       12.523216    1.214206   -0.136978
    125          1           0       14.974508    1.629551   -1.508964
    126          1           0       15.249956    1.240454    0.221325
    127          1           0       14.156195    2.496893   -0.257385
    128          1           0       14.328988   -1.148837    0.566319
    129          1           0       12.681742   -1.274076    0.550505
    130          1           0       13.143448    1.028580    2.262649
    131          1           0       14.514345    0.056480    2.494962
    132          1           0       13.338468   -1.165135    3.951705
    133          1           0       12.405763   -1.711192    2.767559
    134          1           0       11.734968    0.961969    4.124219
    135          1           0       10.646677    0.011194    5.670530
    136          1           0       11.491846   -1.541353    5.069475
    137          1           0        9.806668   -1.172425    4.627197
    138          1           0        9.346289    0.256713    3.061374
    139          1           0       10.246214   -0.524400    1.881468
    140          1           0       10.477401    1.264836    2.182433
 ---------------------------------------------------------------------

 SCF Done:  E(RCAM-B3LYP) =  -3007.17663808     A.U. after   18 cycles

 Excitation energies and oscillator strengths:

 Excited State   1:      Singlet-A      1.6995 eV  729.53 nm  f=0.3898  <S**2>=0.000
     245 -> 248       -0.17817
     246 -> 247        0.68625
     245 <- 248       -0.10766
 This state for optimization and/or second-order correction.
 Total Energy, E(TD-HF/TD-DFT) =  -3007.11418238
 Copying the excited state density for this state as the 1-particle RhoCI density.

 Excited State   2:      Singlet-A      2.2105 eV  560.89 nm  f=0.1478  <S**2>=0.000
     245 -> 247        0.65079
     246 -> 248        0.26503

 Excited State   3:      Singlet-A      3.4384 eV  360.59 nm  f=0.0006  <S**2>=0.000
     243 -> 247        0.13348
     244 -> 247        0.67913

 Excited State   4:      Singlet-A      3.5268 eV  351.55 nm  f=0.0025  <S**2>=0.000
     242 -> 247        0.57806
     242 -> 249        0.26453
     242 -> 251        0.19823
     243 -> 247        0.10528

 Excited State   5:      Singlet-A      3.5765 eV  346.67 nm  f=0.2706  <S**2>=0.000
     243 -> 247       -0.43100
     244 -> 247        0.12700
     245 -> 247       -0.16820
     246 -> 248        0.50164

 The electronic state is 1-A.
 Alpha  occ. eigenvalues --  -46.88470 -19.25953 -19.23020 -19.21551 -19.19333
 Alpha  occ. eigenvalues --  -19.18891 -19.18859 -14.42105 -14.41216 -14.39527
 Alpha  occ. eigenvalues --  -14.38732 -10.40287 -10.38391 -10.35035 -10.34683
 Alpha  occ. eigenvalues --  -10.31617 -10.30817 -10.30783 -10.30257 -10.30072
 Alpha  occ. eigenvalues --  -10.30029 -10.30016 -10.29993 -10.28996 -10.28929
 Alpha  occ. eigenvalues --  -10.28824 -10.28656 -10.28363 -10.28076 -10.27579
 Alpha  occ. eigenvalues --  -10.27444 -10.27330 -10.27232 -10.26929 -10.26806
 Alpha  occ. eigenvalues --  -10.26738 -10.26702 -10.26659 -10.26641 -10.26636
 Alpha  occ. eigenvalues --  -10.26630 -10.26414 -10.26290 -10.26196 -10.26098
 Alpha  occ. eigenvalues --  -10.25931 -10.25800 -10.25644 -10.25604 -10.25497
 Alpha  occ. eigenvalues --  -10.25488 -10.25459 -10.25441 -10.25075 -10.25017
 Alpha  occ. eigenvalues --  -10.24951 -10.24780 -10.24770 -10.24730 -10.24659
 Alpha  occ. eigenvalues --  -10.24623 -10.24571 -10.24491 -10.24452 -10.24209
 Alpha  occ. eigenvalues --  -10.24115  -3.17013  -1.91909  -1.91449  -1.91337
 Alpha  occ. eigenvalues --   -1.17073  -1.14997  -1.11279  -1.10556  -1.09747
 Alpha  occ. eigenvalues --   -1.06746  -1.03701  -1.03184  -1.02405  -1.01508
 Alpha  occ. eigenvalues --   -0.92811  -0.90295  -0.89822  -0.89153  -0.88836
 Alpha  occ. eigenvalues --   -0.88582  -0.88163  -0.87292  -0.87051  -0.86743
 Alpha  occ. eigenvalues --   -0.85920  -0.85035  -0.84326  -0.83104  -0.83015
 Alpha  occ. eigenvalues --   -0.82546  -0.82035  -0.81230  -0.80604  -0.80044
 Alpha  occ. eigenvalues --   -0.79748  -0.78031  -0.77749  -0.76776  -0.75765
 Alpha  occ. eigenvalues --   -0.75616  -0.75391  -0.75073  -0.74707  -0.74556
 Alpha  occ. eigenvalues --   -0.73412  -0.72612  -0.71359  -0.70460  -0.68909
 Alpha  occ. eigenvalues --   -0.68544  -0.68026  -0.66933  -0.66484  -0.65217
 Alpha  occ. eigenvalues --   -0.64901  -0.64503  -0.64323  -0.63871  -0.63786
 Alpha  occ. eigenvalues --   -0.63465  -0.63395  -0.62571  -0.60961  -0.60056
 Alpha  occ. eigenvalues --   -0.59877  -0.59279  -0.58569  -0.57875  -0.57805
 Alpha  occ. eigenvalues --   -0.57238  -0.57063  -0.56725  -0.55913  -0.55550
 Alpha  occ. eigenvalues --   -0.54979  -0.54588  -0.54278  -0.54227  -0.54141
 Alpha  occ. eigenvalues --   -0.53883  -0.53551  -0.53283  -0.53173  -0.52558
 Alpha  occ. eigenvalues --   -0.52415  -0.52109  -0.51778  -0.51671  -0.51670
 Alpha  occ. eigenvalues --   -0.51516  -0.51379  -0.50859  -0.50690  -0.50568
 Alpha  occ. eigenvalues --   -0.50362  -0.50186  -0.50065  -0.49643  -0.49623
 Alpha  occ. eigenvalues --   -0.49480  -0.49155  -0.49078  -0.48788  -0.48694
 Alpha  occ. eigenvalues --   -0.48568  -0.48391  -0.48002  -0.47765  -0.47704
 Alpha  occ. eigenvalues --   -0.47514  -0.47041  -0.46952  -0.46874  -0.46667
 Alpha  occ. eigenvalues --   -0.46575  -0.45881  -0.45777  -0.45678  -0.45566
 Alpha  occ. eigenvalues --   -0.45362  -0.45300  -0.45201  -0.45029  -0.44935
 Alpha  occ. eigenvalues --   -0.44820  -0.44493  -0.44451  -0.44208  -0.44019
 Alpha  occ. eigenvalues --   -0.43709  -0.43476  -0.43328  -0.43253  -0.43014
 Alpha  occ. eigenvalues --   -0.42885  -0.42626  -0.42502  -0.42395  -0.41834
 Alpha  occ. eigenvalues --   -0.41745  -0.41574  -0.41246  -0.40916  -0.40858
 Alpha  occ. eigenvalues --   -0.40710  -0.40488  -0.40471  -0.40239  -0.39834
 Alpha  occ. eigenvalues --   -0.39775  -0.39237  -0.38971  -0.38669  -0.38417
 Alpha  occ. eigenvalues --   -0.38201  -0.38016  -0.37914  -0.37650  -0.37524
 Alpha  occ. eigenvalues --   -0.37164  -0.36913  -0.36650  -0.36400  -0.36220
 Alpha  occ. eigenvalues --   -0.35782  -0.35453  -0.35009  -0.34802  -0.34702
 Alpha  occ. eigenvalues --   -0.34100  -0.33803  -0.32476  -0.31210  -0.30821
 Alpha  occ. eigenvalues --   -0.30729  -0.30346  -0.30002  -0.29628  -0.23477
 Alpha  occ. eigenvalues --   -0.20863
 Alpha virt. eigenvalues --   -0.08420  -0.01034   0.01004   0.02584   0.02847
 Alpha virt. eigenvalues --    0.04547   0.05514   0.06045   0.06574   0.07365
 Alpha virt. eigenvalues --    0.07583   0.08425   0.08854   0.09015   0.09269

 Mulliken charges:
               1
     1  Mg   0.839924
     2  C   -0.025464
     3  C   -0.059968
     4  C   -0.059682
     5  C   -0.088485
     6  N   -0.312563
     7  C   -0.044286
     8  C   -0.002859
     9  C   -0.068660
    10  C    0.085623
    11  C    0.030625
    12  C    0.040248
    13  C    0.080737
    14  C    0.147861
    15  O   -0.207651
    16  O   -0.334314
    17  N   -0.403329
    18  C    0.093159
    19  C   -0.114694
    20  C   -0.089933
    21  C    0.139193
    22  C    0.129979
    23  C   -0.008090
    24  O   -0.175413
    25  C    0.037165
    26  N   -0.268504
    27  C    0.008053
    28  C    0.022557
    29  C   -0.064425
    30  C   -0.003031
    31  C    0.067914
    32  C    0.012978
    33  C    0.024930
    34  N   -0.316295
    35  C    0.151260
    36  C   -0.226606
    37  C    0.063807
    38  C    0.098743
    39  C    0.138332
    40  C    0.034503
    41  O   -0.134571
    42  C   -0.040581
    43  C    0.219460
    44  O   -0.205867
    45  O   -0.353036
    46  C    0.161974
    47  C    0.283969
    48  C   -0.140323
    49  C   -0.185127
    50  C    0.096900
    51  C    0.077328
    52  C    0.031539
    53  C   -0.021907
    54  C   -0.169639
    55  C    0.052572
    56  C    0.068842
    57  C    0.008815
    58  C    0.085715
    59  C   -0.150746
    60  C    0.061044
    61  C    0.056571
    62  C    0.035231
    63  C    0.019614
    64  C   -0.166147
    65  C    0.077089
    66  C    0.032933
    67  H   -0.053029
    68  H   -0.002096
    69  H   -0.022215
    70  H    0.030251
    71  H    0.024331
    72  H    0.008270
    73  H    0.029942
    74  H    0.023098
    75  H    0.003036
    76  H    0.034427
    77  H    0.040791
    78  H    0.033246
    79  H    0.034829
    80  H    0.015121
    81  H    0.025006
    82  H    0.055059
    83  H    0.027179
    84  H    0.014709
    85  H    0.011757
    86  H    0.007786
    87  H    0.012288
    88  H    0.017367
    89  H    0.029859
    90  H    0.004772
    91  H    0.007994
    92  H    0.011330
    93  H    0.020172
    94  H    0.015742
    95  H    0.034651
    96  H    0.007029
    97  H    0.021832
    98  H    0.053920
    99  H    0.039786
   100  H    0.049525
   101  H    0.048530
   102  H    0.014055
   103  H    0.042599
   104  H   -0.018080
   105  H    0.009747
   106  H    0.029426
   107  H    0.028648
   108  H    0.019690
   109  H   -0.009134
   110  H   -0.000422
   111  H    0.004859
   112  H    0.012315
   113  H    0.004421
   114  H   -0.005959
   115  H    0.005939
   116  H    0.017223
   117  H    0.011602
   118  H   -0.014974
   119  H    0.000791
   120  H    0.005943
   121  H   -0.003779
   122  H   -0.007052
   123  H   -0.014766
   124  H   -0.002083
   125  H    0.008788
   126  H    0.007875
   127  H   -0.003289
   128  H   -0.014182
   129  H   -0.016649
   130  H   -0.016228
   131  H   -0.006354
   132  H   -0.011546
   133  H   -0.023607
   134  H   -0.002371
   135  H    0.014897
   136  H    0.004821
   137  H    0.003354
   138  H   -0.003334
   139  H    0.018591
   140  H    0.016940
 Sum of Mulliken charges =  -0.00000

 Dipole moment (field-independent basis, Debye):
    X=              2.9924    Y=              4.4390    Z=             -1.1992  Tot=              5.4861
 Quadrupole moment (field-independent basis, Debye-Ang):
   XX=           -378.6507   YY=           -416.7723   ZZ=           -402.7500
   XY=             10.4200   XZ=              9.6353   YZ=              5.5562

 Normal termination of Gaussian 16 at Wed May  4 23:32:42 2022.
