 Gaussian 16, Revision A.03,
 Gaussian 16:  ES64L-G16RevA.03 25-Dec-2016

 ---------------------------------
 #p PBE1PBE/Def2SVP td=(nstates=5)
 ---------------------------------

 -----------------------------------------------------
 step_501_chromophore_19 TDDFT with PBE1PBE functional
 -----------------------------------------------------
 Symbolic Z-matrix:
 Charge =  0 Multiplicity = 1

                         Standard orientation:
 ---------------------------------------------------------------------
 Center     Atomic      Atomic             Coordinates (Angstroms)
 Number     Number       Type             X           Y           Z
 ---------------------------------------------------------------------
      1         12           0       -5.822076    0.412871   -0.379143
      2          6           0       -3.269167   -2.101412   -0.275978
      3          6           0       -3.522100    2.701212    0.126017
      4          6           0       -8.356736    2.438597    0.296405
      5          6           0       -8.208831   -2.379984   -0.558307
      6          7           0       -3.637479    0.297753   -0.154261
      7          6           0       -2.777128   -0.817190   -0.106900
      8          6           0       -1.262824   -0.442905    0.114300
      9          6           0       -1.436327    1.196764    0.169199
     10          6           0       -2.932660    1.457880    0.028449
     11          6           0       -0.883274    1.816689    1.523554
     12          6           0       -0.259963   -0.987404   -0.961686
     13          6           0        1.105024   -0.310527   -0.997781
     14          6           0        2.281655   -1.214036   -0.585722
     15          8           0        2.203075   -2.078326    0.256006
     16          8           0        3.422660   -0.817178   -1.300159
     17          7           0       -5.918722    2.341678    0.044883
     18          6           0       -4.869110    3.214742    0.209161
     19          6           0       -5.312432    4.569812    0.460343
     20          6           0       -6.759058    4.460757    0.492016
     21          6           0       -7.062028    3.015782    0.193255
     22          6           0       -4.475440    5.755989    0.573499
     23          6           0       -7.814295    5.531659    0.707705
     24          8           0       -8.993512    5.345585    0.595717
     25          6           0       -7.277313    6.860238    1.169743
     26          7           0       -7.983198    0.065734   -0.097764
     27          6           0       -8.801380    1.120644    0.144818
     28          6           0      -10.288949    0.677939    0.160945
     29          6           0      -10.193475   -0.832758   -0.249193
     30          6           0       -8.700374   -1.072851   -0.363186
     31          6           0      -11.109458    0.889463    1.478754
     32          6           0      -10.917482   -1.234661   -1.582426
     33          6           0      -12.449421   -1.364023   -1.431983
     34          7           0       -5.828831   -1.755211   -0.391376
     35          6           0       -6.815458   -2.702374   -0.541226
     36          6           0       -6.217063   -3.972095   -0.661695
     37          6           0       -4.887561   -3.835038   -0.516156
     38          6           0       -4.646931   -2.440796   -0.323833
     39          6           0       -7.047245   -5.208697   -0.980364
     40          6           0       -3.568006   -4.465768   -0.410180
     41          8           0       -3.248334   -5.625504   -0.459530
     42          6           0       -2.464848   -3.318270   -0.222562
     43          6           0       -1.923633   -3.447106    1.165549
     44          8           0       -2.301328   -2.996963    2.223733
     45          8           0       -0.778141   -4.205085    1.024335
     46          6           0       -0.000585   -4.485980    2.254681
     47          6           0        4.593129   -1.532618   -0.857407
     48          6           0        5.772942   -0.580241   -0.857013
     49          6           0        6.105751    0.245760    0.115412
     50          6           0        5.132024    0.600160    1.246961
     51          6           0        7.499805    0.971729    0.050401
     52          6           0        7.960289    1.696579   -1.242688
     53          6           0        8.764728    0.832285   -2.218102
     54          6           0        9.804411    1.629286   -3.171777
     55          6           0        9.086357    2.319671   -4.425187
     56          6           0       10.998661    0.672574   -3.488186
     57          6           0       12.291709    1.025821   -2.639364
     58          6           0       12.929229   -0.044878   -1.861145
     59          6           0       13.326503    0.557868   -0.473193
     60          6           0       14.506746    1.501739   -0.532217
     61          6           0       13.450751   -0.512207    0.676903
     62          6           0       13.483018   -0.000551    2.145687
     63          6           0       12.680213   -0.744659    3.191085
     64          6           0       11.388879    0.006914    3.729365
     65          6           0       10.772229   -0.741993    4.891643
     66          6           0       10.340969    0.274935    2.616515
     67          1           0       -2.839699    3.525067    0.344669
     68          1           0       -9.125331    3.119124    0.670626
     69          1           0       -9.035697   -3.076109   -0.717020
     70          1           0       -0.990899   -0.751491    1.123857
     71          1           0       -0.839377    1.622650   -0.637596
     72          1           0       -0.301632    2.710841    1.299843
     73          1           0       -0.307295    1.184896    2.199184
     74          1           0       -1.704068    2.219847    2.115939
     75          1           0       -0.866589   -0.860519   -1.859296
     76          1           0       -0.057405   -2.058333   -0.987469
     77          1           0        1.093225    0.548378   -0.327370
     78          1           0        1.348991   -0.075956   -2.033538
     79          1           0       -4.810881    6.292245   -0.314172
     80          1           0       -3.417757    5.492171    0.580155
     81          1           0       -4.631579    6.413195    1.428713
     82          1           0       -7.116739    7.503904    0.304971
     83          1           0       -6.564908    6.782432    1.991551
     84          1           0       -8.053097    7.209749    1.850412
     85          1           0      -10.721502    1.117115   -0.738507
     86          1           0      -10.483319   -1.449008    0.602170
     87          1           0      -11.540407   -0.005393    1.928706
     88          1           0      -11.994777    1.447580    1.174911
     89          1           0      -10.577128    1.394053    2.285043
     90          1           0      -10.549586   -2.205463   -1.912639
     91          1           0      -10.611364   -0.477132   -2.305253
     92          1           0      -12.716747   -1.528598   -0.387986
     93          1           0      -12.743371   -2.182986   -2.088377
     94          1           0      -13.002716   -0.464985   -1.705095
     95          1           0       -6.449386   -5.964305   -1.490113
     96          1           0       -7.910673   -4.907288   -1.573533
     97          1           0       -7.501552   -5.604794   -0.071901
     98          1           0       -1.682556   -3.382923   -0.979203
     99          1           0        0.329045   -5.520523    2.159762
    100          1           0       -0.563761   -4.363473    3.179724
    101          1           0        0.803478   -3.761588    2.121254
    102          1           0        4.891536   -2.294295   -1.578306
    103          1           0        4.579212   -1.927624    0.157775
    104          1           0        6.499640   -0.687681   -1.662158
    105          1           0        4.174826    0.093888    1.119640
    106          1           0        4.969920    1.672889    1.140815
    107          1           0        5.611407    0.319958    2.184195
    108          1           0        8.235424    0.203714    0.287058
    109          1           0        7.599073    1.718824    0.837761
    110          1           0        8.580333    2.581437   -1.103956
    111          1           0        7.045962    1.978399   -1.764586
    112          1           0        8.033164    0.463156   -2.936350
    113          1           0        9.264846   -0.014282   -1.748132
    114          1           0       10.223611    2.458373   -2.600951
    115          1           0        8.010236    2.333617   -4.249500
    116          1           0        9.383389    1.728166   -5.291059
    117          1           0        9.367077    3.371474   -4.486762
    118          1           0       11.238892    0.843542   -4.537568
    119          1           0       10.650173   -0.341987   -3.296597
    120          1           0       12.040106    1.899510   -2.037666
    121          1           0       12.997995    1.286374   -3.428600
    122          1           0       13.780042   -0.421826   -2.426753
    123          1           0       12.313843   -0.930614   -1.702029
    124          1           0       12.523216    1.214206   -0.136978
    125          1           0       14.974508    1.629551   -1.508964
    126          1           0       15.249956    1.240454    0.221325
    127          1           0       14.156195    2.496893   -0.257385
    128          1           0       14.328988   -1.148837    0.566319
    129          1           0       12.681742   -1.274076    0.550505
    130          1           0       13.143448    1.028580    2.262649
    131          1           0       14.514345    0.056480    2.494962
    132          1           0       13.338468   -1.165135    3.951705
    133          1           0       12.405763   -1.711192    2.767559
    134          1           0       11.734968    0.961969    4.124219
    135          1           0       10.646677    0.011194    5.670530
    136          1           0       11.491846   -1.541353    5.069475
    137          1           0        9.806668   -1.172425    4.627197
    138          1           0        9.346289    0.256713    3.061374
    139          1           0       10.246214   -0.524400    1.881468
    140          1           0       10.477401    1.264836    2.182433
 ---------------------------------------------------------------------

 SCF Done:  E(RPBE1PBE) =  -3005.36519744     A.U. after   15 cycles

 Excitation energies and oscillator strengths:

 Excited State   1:      Singlet-A      1.8626 eV  665.67 nm  f=0.3783  <S**2>=0.000
     245 -> 248       -0.16881
     246 -> 247        0.69327
     246 <- 247       -0.10796
 This state for optimization and/or second-order correction.
 Total Energy, E(TD-HF/TD-DFT) =  -3005.29674982
 Copying the excited state density for this state as the 1-particle RhoCI density.

 Excited State   2:      Singlet-A      2.2247 eV  557.31 nm  f=0.1407  <S**2>=0.000
     245 -> 247        0.65939
     246 -> 248        0.23971

 Excited State   3:      Singlet-A      3.0151 eV  411.21 nm  f=0.0001  <S**2>=0.000
     243 -> 247        0.62541
     243 -> 249        0.13278
     244 -> 247        0.26756

 Excited State   4:      Singlet-A      3.1062 eV  399.15 nm  f=0.0003  <S**2>=0.000
     241 -> 247        0.13133
     243 -> 247       -0.26814
     244 -> 247        0.62916

 Excited State   5:      Singlet-A      3.1748 eV  390.53 nm  f=0.0003  <S**2>=0.000
     241 -> 247        0.63465
     241 -> 249       -0.10932
     242 -> 247       -0.18325
     244 -> 247       -0.13672

 The electronic state is 1-A.
 Alpha  occ. eigenvalues --  -46.91886 -19.26654 -19.23677 -19.21780 -19.19495
 Alpha  occ. eigenvalues --  -19.19089 -19.19062 -14.41615 -14.40765 -14.39178
 Alpha  occ. eigenvalues --  -14.38392 -10.37307 -10.35351 -10.32170 -10.31814
 Alpha  occ. eigenvalues --  -10.29021 -10.28570 -10.28529 -10.28006 -10.27855
 Alpha  occ. eigenvalues --  -10.27761 -10.27717 -10.27245 -10.26762 -10.26686
 Alpha  occ. eigenvalues --  -10.26650 -10.26344 -10.26055 -10.25553 -10.25418
 Alpha  occ. eigenvalues --  -10.25032 -10.24921 -10.24916 -10.24608 -10.24567
 Alpha  occ. eigenvalues --  -10.24490 -10.24369 -10.24354 -10.24325 -10.24299
 Alpha  occ. eigenvalues --  -10.24267 -10.23876 -10.23861 -10.23799 -10.23698
 Alpha  occ. eigenvalues --  -10.23596 -10.23305 -10.23299 -10.23156 -10.23008
 Alpha  occ. eigenvalues --  -10.22960 -10.22939 -10.22896 -10.22619 -10.22557
 Alpha  occ. eigenvalues --  -10.22494 -10.22327 -10.22291 -10.22242 -10.22227
 Alpha  occ. eigenvalues --  -10.22155 -10.22144 -10.22036 -10.21979 -10.21587
 Alpha  occ. eigenvalues --  -10.21469  -3.14008  -1.86844  -1.86363  -1.86255
 Alpha  occ. eigenvalues --   -1.11854  -1.09698  -1.06051  -1.05282  -1.04606
 Alpha  occ. eigenvalues --   -1.01538  -0.98363  -0.97874  -0.97027  -0.96116
 Alpha  occ. eigenvalues --   -0.87138  -0.84435  -0.83915  -0.83307  -0.83129
 Alpha  occ. eigenvalues --   -0.82676  -0.82451  -0.81415  -0.81384  -0.81085
 Alpha  occ. eigenvalues --   -0.80267  -0.79268  -0.78506  -0.77360  -0.77283
 Alpha  occ. eigenvalues --   -0.76758  -0.76245  -0.75458  -0.74867  -0.74241
 Alpha  occ. eigenvalues --   -0.74090  -0.72351  -0.71991  -0.71087  -0.69923
 Alpha  occ. eigenvalues --   -0.69810  -0.69655  -0.69207  -0.69056  -0.68722
 Alpha  occ. eigenvalues --   -0.67745  -0.67015  -0.65718  -0.64821  -0.63273
 Alpha  occ. eigenvalues --   -0.62771  -0.62448  -0.61447  -0.60728  -0.59703
 Alpha  occ. eigenvalues --   -0.59358  -0.59014  -0.58573  -0.58336  -0.57985
 Alpha  occ. eigenvalues --   -0.57949  -0.57596  -0.56773  -0.55503  -0.54561
 Alpha  occ. eigenvalues --   -0.54302  -0.53875  -0.53073  -0.52432  -0.52195
 Alpha  occ. eigenvalues --   -0.51752  -0.51435  -0.51343  -0.50522  -0.50002
 Alpha  occ. eigenvalues --   -0.49512  -0.49149  -0.48786  -0.48642  -0.48539
 Alpha  occ. eigenvalues --   -0.48362  -0.48095  -0.47809  -0.47596  -0.47130
 Alpha  occ. eigenvalues --   -0.46965  -0.46605  -0.46350  -0.46215  -0.46125
 Alpha  occ. eigenvalues --   -0.46073  -0.45926  -0.45438  -0.45187  -0.45122
 Alpha  occ. eigenvalues --   -0.44888  -0.44755  -0.44682  -0.44249  -0.44169
 Alpha  occ. eigenvalues --   -0.44071  -0.43764  -0.43655  -0.43408  -0.43299
 Alpha  occ. eigenvalues --   -0.43151  -0.43027  -0.42656  -0.42437  -0.42358
 Alpha  occ. eigenvalues --   -0.42180  -0.41662  -0.41642  -0.41473  -0.41346
 Alpha  occ. eigenvalues --   -0.41238  -0.40579  -0.40481  -0.40401  -0.40206
 Alpha  occ. eigenvalues --   -0.40137  -0.39951  -0.39871  -0.39713  -0.39685
 Alpha  occ. eigenvalues --   -0.39546  -0.39300  -0.39155  -0.38918  -0.38776
 Alpha  occ. eigenvalues --   -0.38533  -0.38256  -0.38115  -0.37998  -0.37831
 Alpha  occ. eigenvalues --   -0.37653  -0.37431  -0.37272  -0.37248  -0.36718
 Alpha  occ. eigenvalues --   -0.36497  -0.36471  -0.36032  -0.35658  -0.35629
 Alpha  occ. eigenvalues --   -0.35568  -0.35341  -0.35249  -0.35024  -0.34665
 Alpha  occ. eigenvalues --   -0.34596  -0.34239  -0.33793  -0.33493  -0.33375
 Alpha  occ. eigenvalues --   -0.33022  -0.33012  -0.32690  -0.32669  -0.32391
 Alpha  occ. eigenvalues --   -0.31971  -0.31963  -0.31560  -0.31339  -0.31303
 Alpha  occ. eigenvalues --   -0.30644  -0.30269  -0.29894  -0.29758  -0.29633
 Alpha  occ. eigenvalues --   -0.29095  -0.28776  -0.28122  -0.26756  -0.26084
 Alpha  occ. eigenvalues --   -0.25692  -0.25646  -0.25247  -0.25236  -0.20455
 Alpha  occ. eigenvalues --   -0.18495
 Alpha virt. eigenvalues --   -0.10861  -0.04622  -0.03180  -0.01586  -0.00132
 Alpha virt. eigenvalues --   -0.00103   0.00981   0.01601   0.02085   0.03893
 Alpha virt. eigenvalues --    0.04403   0.04527   0.05029   0.05607   0.05774

 Mulliken charges:
               1
     1  Mg   0.986135
     2  C   -0.047108
     3  C   -0.061975
     4  C   -0.054360
     5  C   -0.074791
     6  N   -0.415387
     7  C    0.032991
     8  C   -0.063762
     9  C   -0.143477
    10  C    0.121325
    11  C   -0.026705
    12  C   -0.011189
    13  C   -0.002673
    14  C    0.212940
    15  O   -0.240389
    16  O   -0.362493
    17  N   -0.525192
    18  C    0.122678
    19  C   -0.149863
    20  C   -0.131506
    21  C    0.176794
    22  C    0.069323
    23  C    0.045271
    24  O   -0.214357
    25  C   -0.037412
    26  N   -0.371759
    27  C    0.046447
    28  C   -0.057291
    29  C   -0.137379
    30  C    0.039992
    31  C    0.009478
    32  C   -0.052651
    33  C   -0.044057
    34  N   -0.438015
    35  C    0.171422
    36  C   -0.246940
    37  C    0.007624
    38  C    0.161294
    39  C    0.085724
    40  C    0.142480
    41  O   -0.181212
    42  C   -0.165102
    43  C    0.312947
    44  O   -0.241742
    45  O   -0.383906
    46  C    0.106605
    47  C    0.232009
    48  C   -0.148072
    49  C   -0.226361
    50  C    0.025871
    51  C    0.015536
    52  C   -0.035097
    53  C   -0.079528
    54  C   -0.243676
    55  C   -0.010577
    56  C    0.013735
    57  C   -0.055361
    58  C    0.034568
    59  C   -0.245469
    60  C    0.006492
    61  C    0.002973
    62  C   -0.028545
    63  C   -0.030231
    64  C   -0.260699
    65  C    0.014147
    66  C   -0.025949
    67  H   -0.017450
    68  H    0.030523
    69  H    0.007869
    70  H    0.068300
    71  H    0.060693
    72  H    0.035454
    73  H    0.056072
    74  H    0.051371
    75  H    0.037034
    76  H    0.067220
    77  H    0.074974
    78  H    0.065460
    79  H    0.064292
    80  H    0.042860
    81  H    0.051617
    82  H    0.081736
    83  H    0.052732
    84  H    0.042204
    85  H    0.050352
    86  H    0.045484
    87  H    0.038487
    88  H    0.044715
    89  H    0.056448
    90  H    0.037708
    91  H    0.040903
    92  H    0.038993
    93  H    0.047632
    94  H    0.043236
    95  H    0.061999
    96  H    0.033871
    97  H    0.050502
    98  H    0.089243
    99  H    0.061641
   100  H    0.070137
   101  H    0.072663
   102  H    0.042216
   103  H    0.069751
   104  H    0.016084
   105  H    0.041980
   106  H    0.057762
   107  H    0.056382
   108  H    0.057374
   109  H    0.023042
   110  H    0.031833
   111  H    0.038525
   112  H    0.045255
   113  H    0.035678
   114  H    0.031757
   115  H    0.033725
   116  H    0.043958
   117  H    0.039124
   118  H    0.018713
   119  H    0.032183
   120  H    0.035701
   121  H    0.029588
   122  H    0.025624
   123  H    0.016813
   124  H    0.039159
   125  H    0.035584
   126  H    0.035733
   127  H    0.023549
   128  H    0.019298
   129  H    0.014753
   130  H    0.016949
   131  H    0.026141
   132  H    0.020251
   133  H    0.009834
   134  H    0.035595
   135  H    0.042227
   136  H    0.032815
   137  H    0.030979
   138  H    0.024668
   139  H    0.044739
   140  H    0.043145
 Sum of Mulliken charges =  -0.00000

 Dipole moment (field-independent basis, Debye):
    X=              2.9104    Y=              4.4887    Z=             -1.2023  Tot=              5.4831
 Quadrupole moment (field-independent basis, Debye-Ang):
   XX=           -372.0376   YY=           -414.0827   ZZ=           -400.2538
   XY=             11.1133   XZ=              9.7090   YZ=              5.7709

 Normal termination of Gaussian 16 at Wed May  4 23:50:29 2022.
