 Gaussian 16, Revision A.03,
 Gaussian 16:  ES64L-G16RevA.03 25-Dec-2016

 --------------------------------
 #p wB97XD/Def2SVP td=(nstates=5)
 --------------------------------

 ----------------------------------------------------
 step_501_chromophore_19 TDDFT with wB97XD functional
 ----------------------------------------------------
 Symbolic Z-matrix:
 Charge =  0 Multiplicity = 1

                         Standard orientation:
 ---------------------------------------------------------------------
 Center     Atomic      Atomic             Coordinates (Angstroms)
 Number     Number       Type             X           Y           Z
 ---------------------------------------------------------------------
      1         12           0       -5.822076    0.412871   -0.379143
      2          6           0       -3.269167   -2.101412   -0.275978
      3          6           0       -3.522100    2.701212    0.126017
      4          6           0       -8.356736    2.438597    0.296405
      5          6           0       -8.208831   -2.379984   -0.558307
      6          7           0       -3.637479    0.297753   -0.154261
      7          6           0       -2.777128   -0.817190   -0.106900
      8          6           0       -1.262824   -0.442905    0.114300
      9          6           0       -1.436327    1.196764    0.169199
     10          6           0       -2.932660    1.457880    0.028449
     11          6           0       -0.883274    1.816689    1.523554
     12          6           0       -0.259963   -0.987404   -0.961686
     13          6           0        1.105024   -0.310527   -0.997781
     14          6           0        2.281655   -1.214036   -0.585722
     15          8           0        2.203075   -2.078326    0.256006
     16          8           0        3.422660   -0.817178   -1.300159
     17          7           0       -5.918722    2.341678    0.044883
     18          6           0       -4.869110    3.214742    0.209161
     19          6           0       -5.312432    4.569812    0.460343
     20          6           0       -6.759058    4.460757    0.492016
     21          6           0       -7.062028    3.015782    0.193255
     22          6           0       -4.475440    5.755989    0.573499
     23          6           0       -7.814295    5.531659    0.707705
     24          8           0       -8.993512    5.345585    0.595717
     25          6           0       -7.277313    6.860238    1.169743
     26          7           0       -7.983198    0.065734   -0.097764
     27          6           0       -8.801380    1.120644    0.144818
     28          6           0      -10.288949    0.677939    0.160945
     29          6           0      -10.193475   -0.832758   -0.249193
     30          6           0       -8.700374   -1.072851   -0.363186
     31          6           0      -11.109458    0.889463    1.478754
     32          6           0      -10.917482   -1.234661   -1.582426
     33          6           0      -12.449421   -1.364023   -1.431983
     34          7           0       -5.828831   -1.755211   -0.391376
     35          6           0       -6.815458   -2.702374   -0.541226
     36          6           0       -6.217063   -3.972095   -0.661695
     37          6           0       -4.887561   -3.835038   -0.516156
     38          6           0       -4.646931   -2.440796   -0.323833
     39          6           0       -7.047245   -5.208697   -0.980364
     40          6           0       -3.568006   -4.465768   -0.410180
     41          8           0       -3.248334   -5.625504   -0.459530
     42          6           0       -2.464848   -3.318270   -0.222562
     43          6           0       -1.923633   -3.447106    1.165549
     44          8           0       -2.301328   -2.996963    2.223733
     45          8           0       -0.778141   -4.205085    1.024335
     46          6           0       -0.000585   -4.485980    2.254681
     47          6           0        4.593129   -1.532618   -0.857407
     48          6           0        5.772942   -0.580241   -0.857013
     49          6           0        6.105751    0.245760    0.115412
     50          6           0        5.132024    0.600160    1.246961
     51          6           0        7.499805    0.971729    0.050401
     52          6           0        7.960289    1.696579   -1.242688
     53          6           0        8.764728    0.832285   -2.218102
     54          6           0        9.804411    1.629286   -3.171777
     55          6           0        9.086357    2.319671   -4.425187
     56          6           0       10.998661    0.672574   -3.488186
     57          6           0       12.291709    1.025821   -2.639364
     58          6           0       12.929229   -0.044878   -1.861145
     59          6           0       13.326503    0.557868   -0.473193
     60          6           0       14.506746    1.501739   -0.532217
     61          6           0       13.450751   -0.512207    0.676903
     62          6           0       13.483018   -0.000551    2.145687
     63          6           0       12.680213   -0.744659    3.191085
     64          6           0       11.388879    0.006914    3.729365
     65          6           0       10.772229   -0.741993    4.891643
     66          6           0       10.340969    0.274935    2.616515
     67          1           0       -2.839699    3.525067    0.344669
     68          1           0       -9.125331    3.119124    0.670626
     69          1           0       -9.035697   -3.076109   -0.717020
     70          1           0       -0.990899   -0.751491    1.123857
     71          1           0       -0.839377    1.622650   -0.637596
     72          1           0       -0.301632    2.710841    1.299843
     73          1           0       -0.307295    1.184896    2.199184
     74          1           0       -1.704068    2.219847    2.115939
     75          1           0       -0.866589   -0.860519   -1.859296
     76          1           0       -0.057405   -2.058333   -0.987469
     77          1           0        1.093225    0.548378   -0.327370
     78          1           0        1.348991   -0.075956   -2.033538
     79          1           0       -4.810881    6.292245   -0.314172
     80          1           0       -3.417757    5.492171    0.580155
     81          1           0       -4.631579    6.413195    1.428713
     82          1           0       -7.116739    7.503904    0.304971
     83          1           0       -6.564908    6.782432    1.991551
     84          1           0       -8.053097    7.209749    1.850412
     85          1           0      -10.721502    1.117115   -0.738507
     86          1           0      -10.483319   -1.449008    0.602170
     87          1           0      -11.540407   -0.005393    1.928706
     88          1           0      -11.994777    1.447580    1.174911
     89          1           0      -10.577128    1.394053    2.285043
     90          1           0      -10.549586   -2.205463   -1.912639
     91          1           0      -10.611364   -0.477132   -2.305253
     92          1           0      -12.716747   -1.528598   -0.387986
     93          1           0      -12.743371   -2.182986   -2.088377
     94          1           0      -13.002716   -0.464985   -1.705095
     95          1           0       -6.449386   -5.964305   -1.490113
     96          1           0       -7.910673   -4.907288   -1.573533
     97          1           0       -7.501552   -5.604794   -0.071901
     98          1           0       -1.682556   -3.382923   -0.979203
     99          1           0        0.329045   -5.520523    2.159762
    100          1           0       -0.563761   -4.363473    3.179724
    101          1           0        0.803478   -3.761588    2.121254
    102          1           0        4.891536   -2.294295   -1.578306
    103          1           0        4.579212   -1.927624    0.157775
    104          1           0        6.499640   -0.687681   -1.662158
    105          1           0        4.174826    0.093888    1.119640
    106          1           0        4.969920    1.672889    1.140815
    107          1           0        5.611407    0.319958    2.184195
    108          1           0        8.235424    0.203714    0.287058
    109          1           0        7.599073    1.718824    0.837761
    110          1           0        8.580333    2.581437   -1.103956
    111          1           0        7.045962    1.978399   -1.764586
    112          1           0        8.033164    0.463156   -2.936350
    113          1           0        9.264846   -0.014282   -1.748132
    114          1           0       10.223611    2.458373   -2.600951
    115          1           0        8.010236    2.333617   -4.249500
    116          1           0        9.383389    1.728166   -5.291059
    117          1           0        9.367077    3.371474   -4.486762
    118          1           0       11.238892    0.843542   -4.537568
    119          1           0       10.650173   -0.341987   -3.296597
    120          1           0       12.040106    1.899510   -2.037666
    121          1           0       12.997995    1.286374   -3.428600
    122          1           0       13.780042   -0.421826   -2.426753
    123          1           0       12.313843   -0.930614   -1.702029
    124          1           0       12.523216    1.214206   -0.136978
    125          1           0       14.974508    1.629551   -1.508964
    126          1           0       15.249956    1.240454    0.221325
    127          1           0       14.156195    2.496893   -0.257385
    128          1           0       14.328988   -1.148837    0.566319
    129          1           0       12.681742   -1.274076    0.550505
    130          1           0       13.143448    1.028580    2.262649
    131          1           0       14.514345    0.056480    2.494962
    132          1           0       13.338468   -1.165135    3.951705
    133          1           0       12.405763   -1.711192    2.767559
    134          1           0       11.734968    0.961969    4.124219
    135          1           0       10.646677    0.011194    5.670530
    136          1           0       11.491846   -1.541353    5.069475
    137          1           0        9.806668   -1.172425    4.627197
    138          1           0        9.346289    0.256713    3.061374
    139          1           0       10.246214   -0.524400    1.881468
    140          1           0       10.477401    1.264836    2.182433
 ---------------------------------------------------------------------

 SCF Done:  E(RwB97XD) =  -3007.87594149     A.U. after   19 cycles

 Excitation energies and oscillator strengths:

 Excited State   1:      Singlet-A      1.6391 eV  756.43 nm  f=0.3884  <S**2>=0.000
     245 -> 248       -0.18430
     246 -> 247        0.68408
     245 <- 248       -0.11741
 This state for optimization and/or second-order correction.
 Total Energy, E(TD-HF/TD-DFT) =  -3007.81570663
 Copying the excited state density for this state as the 1-particle RhoCI density.

 Excited State   2:      Singlet-A      2.1536 eV  575.71 nm  f=0.1440  <S**2>=0.000
     245 -> 247        0.64891
     246 -> 248        0.26857

 Excited State   3:      Singlet-A      3.4516 eV  359.21 nm  f=0.0016  <S**2>=0.000
     243 -> 247        0.15153
     244 -> 247        0.66839

 Excited State   4:      Singlet-A      3.5599 eV  348.28 nm  f=0.0032  <S**2>=0.000
     242 -> 247        0.55218
     242 -> 249        0.28619
     242 -> 250       -0.22024
     243 -> 247        0.16124

 Excited State   5:      Singlet-A      3.5957 eV  344.82 nm  f=0.3214  <S**2>=0.000
     243 -> 247       -0.39378
     244 -> 247        0.15209
     245 -> 247       -0.17922
     246 -> 248        0.51756

 The electronic state is 1-A.
 Alpha  occ. eigenvalues --  -46.94806 -19.31215 -19.28264 -19.26460 -19.24262
 Alpha  occ. eigenvalues --  -19.23952 -19.23879 -14.46743 -14.45799 -14.44117
 Alpha  occ. eigenvalues --  -14.43340 -10.44105 -10.42234 -10.39072 -10.38636
 Alpha  occ. eigenvalues --  -10.35511 -10.34880 -10.34807 -10.34273 -10.34122
 Alpha  occ. eigenvalues --  -10.34028 -10.34027 -10.33761 -10.33025 -10.33005
 Alpha  occ. eigenvalues --  -10.32924 -10.32800 -10.32397 -10.32006 -10.31611
 Alpha  occ. eigenvalues --  -10.31503 -10.31333 -10.31234 -10.30913 -10.30859
 Alpha  occ. eigenvalues --  -10.30780 -10.30778 -10.30775 -10.30739 -10.30689
 Alpha  occ. eigenvalues --  -10.30580 -10.30249 -10.30236 -10.30119 -10.30084
 Alpha  occ. eigenvalues --  -10.29871 -10.29652 -10.29583 -10.29525 -10.29489
 Alpha  occ. eigenvalues --  -10.29385 -10.29373 -10.29316 -10.28975 -10.28911
 Alpha  occ. eigenvalues --  -10.28895 -10.28705 -10.28652 -10.28620 -10.28597
 Alpha  occ. eigenvalues --  -10.28578 -10.28529 -10.28403 -10.28357 -10.28005
 Alpha  occ. eigenvalues --  -10.27916  -3.20795  -1.94381  -1.93897  -1.93784
 Alpha  occ. eigenvalues --   -1.19242  -1.17148  -1.13497  -1.12817  -1.11954
 Alpha  occ. eigenvalues --   -1.08947  -1.05717  -1.05231  -1.04404  -1.03535
 Alpha  occ. eigenvalues --   -0.94802  -0.92108  -0.91585  -0.90994  -0.90735
 Alpha  occ. eigenvalues --   -0.90340  -0.90055  -0.89079  -0.89004  -0.88662
 Alpha  occ. eigenvalues --   -0.87877  -0.86914  -0.86160  -0.85003  -0.84906
 Alpha  occ. eigenvalues --   -0.84413  -0.83941  -0.83124  -0.82510  -0.81895
 Alpha  occ. eigenvalues --   -0.81711  -0.79995  -0.79658  -0.78680  -0.77574
 Alpha  occ. eigenvalues --   -0.77483  -0.77301  -0.76887  -0.76645  -0.76386
 Alpha  occ. eigenvalues --   -0.75347  -0.74592  -0.73300  -0.72408  -0.70827
 Alpha  occ. eigenvalues --   -0.70410  -0.70018  -0.68948  -0.68357  -0.67201
 Alpha  occ. eigenvalues --   -0.66858  -0.66467  -0.66190  -0.65784  -0.65662
 Alpha  occ. eigenvalues --   -0.65423  -0.65241  -0.64411  -0.62973  -0.62010
 Alpha  occ. eigenvalues --   -0.61820  -0.61277  -0.60539  -0.59827  -0.59762
 Alpha  occ. eigenvalues --   -0.59209  -0.58944  -0.58748  -0.57900  -0.57470
 Alpha  occ. eigenvalues --   -0.56936  -0.56532  -0.56174  -0.56107  -0.56037
 Alpha  occ. eigenvalues --   -0.55812  -0.55473  -0.55193  -0.55015  -0.54466
 Alpha  occ. eigenvalues --   -0.54363  -0.54002  -0.53699  -0.53581  -0.53531
 Alpha  occ. eigenvalues --   -0.53443  -0.53325  -0.52778  -0.52620  -0.52475
 Alpha  occ. eigenvalues --   -0.52232  -0.52071  -0.51976  -0.51574  -0.51510
 Alpha  occ. eigenvalues --   -0.51413  -0.51062  -0.50989  -0.50700  -0.50624
 Alpha  occ. eigenvalues --   -0.50443  -0.50321  -0.49928  -0.49694  -0.49633
 Alpha  occ. eigenvalues --   -0.49414  -0.48888  -0.48867  -0.48728  -0.48591
 Alpha  occ. eigenvalues --   -0.48480  -0.47809  -0.47696  -0.47599  -0.47416
 Alpha  occ. eigenvalues --   -0.47274  -0.47226  -0.47094  -0.46957  -0.46862
 Alpha  occ. eigenvalues --   -0.46746  -0.46437  -0.46389  -0.46112  -0.45930
 Alpha  occ. eigenvalues --   -0.45692  -0.45463  -0.45230  -0.45167  -0.44915
 Alpha  occ. eigenvalues --   -0.44759  -0.44529  -0.44382  -0.44318  -0.43784
 Alpha  occ. eigenvalues --   -0.43609  -0.43551  -0.43171  -0.42767  -0.42752
 Alpha  occ. eigenvalues --   -0.42644  -0.42388  -0.42358  -0.42107  -0.41741
 Alpha  occ. eigenvalues --   -0.41658  -0.41122  -0.40843  -0.40531  -0.40334
 Alpha  occ. eigenvalues --   -0.40036  -0.39908  -0.39746  -0.39576  -0.39434
 Alpha  occ. eigenvalues --   -0.38990  -0.38880  -0.38550  -0.38362  -0.38251
 Alpha  occ. eigenvalues --   -0.37606  -0.37386  -0.37003  -0.36641  -0.36564
 Alpha  occ. eigenvalues --   -0.36049  -0.35790  -0.34757  -0.33374  -0.32857
 Alpha  occ. eigenvalues --   -0.32742  -0.32356  -0.32186  -0.31816  -0.25395
 Alpha  occ. eigenvalues --   -0.22671
 Alpha virt. eigenvalues --   -0.06783   0.00890   0.03061   0.04912   0.05736
 Alpha virt. eigenvalues --    0.06765   0.07731   0.08333   0.08813   0.10340
 Alpha virt. eigenvalues --    0.10999   0.11094   0.11846   0.12318   0.12507

 Mulliken charges:
               1
     1  Mg   0.976883
     2  C   -0.040303
     3  C   -0.072003
     4  C   -0.068679
     5  C   -0.096634
     6  N   -0.382874
     7  C   -0.001388
     8  C   -0.041871
     9  C   -0.120015
    10  C    0.110236
    11  C   -0.015975
    12  C    0.002762
    13  C    0.017300
    14  C    0.202336
    15  O   -0.238143
    16  O   -0.362625
    17  N   -0.491362
    18  C    0.111431
    19  C   -0.136440
    20  C   -0.128421
    21  C    0.164390
    22  C    0.081837
    23  C    0.041029
    24  O   -0.208511
    25  C   -0.027470
    26  N   -0.338923
    27  C    0.031150
    28  C   -0.031666
    29  C   -0.109823
    30  C    0.027205
    31  C    0.019972
    32  C   -0.035765
    33  C   -0.029268
    34  N   -0.401756
    35  C    0.165758
    36  C   -0.242112
    37  C    0.014513
    38  C    0.137598
    39  C    0.096360
    40  C    0.120307
    41  O   -0.171932
    42  C   -0.120035
    43  C    0.287147
    44  O   -0.235756
    45  O   -0.382723
    46  C    0.121586
    47  C    0.250150
    48  C   -0.155142
    49  C   -0.214752
    50  C    0.045538
    51  C    0.035661
    52  C   -0.014618
    53  C   -0.060219
    54  C   -0.216841
    55  C    0.003547
    56  C    0.028655
    57  C   -0.034169
    58  C    0.044135
    59  C   -0.204512
    60  C    0.011443
    61  C    0.018391
    62  C   -0.011509
    63  C   -0.017758
    64  C   -0.227254
    65  C    0.025994
    66  C   -0.014119
    67  H   -0.029475
    68  H    0.024889
    69  H    0.001706
    70  H    0.056529
    71  H    0.049887
    72  H    0.029875
    73  H    0.051709
    74  H    0.044201
    75  H    0.028738
    76  H    0.055086
    77  H    0.065485
    78  H    0.061134
    79  H    0.057525
    80  H    0.039257
    81  H    0.046691
    82  H    0.079481
    83  H    0.047223
    84  H    0.039713
    85  H    0.038596
    86  H    0.032557
    87  H    0.032561
    88  H    0.038892
    89  H    0.051670
    90  H    0.028462
    91  H    0.032659
    92  H    0.031890
    93  H    0.042660
    94  H    0.037339
    95  H    0.058842
    96  H    0.027306
    97  H    0.045855
    98  H    0.083822
    99  H    0.058001
   100  H    0.066388
   101  H    0.069950
   102  H    0.038557
   103  H    0.063007
   104  H    0.007083
   105  H    0.031810
   106  H    0.051831
   107  H    0.051021
   108  H    0.042867
   109  H    0.016442
   110  H    0.023851
   111  H    0.028166
   112  H    0.032573
   113  H    0.024037
   114  H    0.015780
   115  H    0.026893
   116  H    0.037567
   117  H    0.034269
   118  H    0.010317
   119  H    0.022379
   120  H    0.022993
   121  H    0.021924
   122  H    0.018689
   123  H    0.007556
   124  H    0.020616
   125  H    0.030468
   126  H    0.029476
   127  H    0.018500
   128  H    0.011198
   129  H    0.003615
   130  H    0.004637
   131  H    0.019227
   132  H    0.012811
   133  H   -0.001527
   134  H    0.024647
   135  H    0.037515
   136  H    0.026105
   137  H    0.024864
   138  H    0.017037
   139  H    0.036918
   140  H    0.037229
 Sum of Mulliken charges =  -0.00000

 Dipole moment (field-independent basis, Debye):
    X=              3.0078    Y=              4.5123    Z=             -1.1982  Tot=              5.5536
 Quadrupole moment (field-independent basis, Debye-Ang):
   XX=           -373.7925   YY=           -412.3911   ZZ=           -399.7394
   XY=             10.4864   XZ=              9.6811   YZ=              5.9107

 Normal termination of Gaussian 16 at Thu May  5 00:18:33 2022.
