 Gaussian 16, Revision A.03,
 Gaussian 16:  ES64L-G16RevA.03 25-Dec-2016

 --------------------
 #p ZINDO=(nstates=5)
 --------------------

 -----------------------------
 step_501_chromophore_19 ZINDO
 -----------------------------
 Symbolic Z-matrix:
 Charge =  0 Multiplicity = 1

                         Standard orientation:
 ---------------------------------------------------------------------
 Center     Atomic      Atomic             Coordinates (Angstroms)
 Number     Number       Type             X           Y           Z
 ---------------------------------------------------------------------
      1         12           0       -5.822076    0.412871   -0.379143
      2          6           0       -3.269167   -2.101412   -0.275978
      3          6           0       -3.522100    2.701212    0.126017
      4          6           0       -8.356736    2.438597    0.296405
      5          6           0       -8.208831   -2.379984   -0.558307
      6          7           0       -3.637479    0.297753   -0.154261
      7          6           0       -2.777128   -0.817190   -0.106900
      8          6           0       -1.262824   -0.442905    0.114300
      9          6           0       -1.436327    1.196764    0.169199
     10          6           0       -2.932660    1.457880    0.028449
     11          6           0       -0.883274    1.816689    1.523554
     12          6           0       -0.259963   -0.987404   -0.961686
     13          6           0        1.105024   -0.310527   -0.997781
     14          6           0        2.281655   -1.214036   -0.585722
     15          8           0        2.203075   -2.078326    0.256006
     16          8           0        3.422660   -0.817178   -1.300159
     17          7           0       -5.918722    2.341678    0.044883
     18          6           0       -4.869110    3.214742    0.209161
     19          6           0       -5.312432    4.569812    0.460343
     20          6           0       -6.759058    4.460757    0.492016
     21          6           0       -7.062028    3.015782    0.193255
     22          6           0       -4.475440    5.755989    0.573499
     23          6           0       -7.814295    5.531659    0.707705
     24          8           0       -8.993512    5.345585    0.595717
     25          6           0       -7.277313    6.860238    1.169743
     26          7           0       -7.983198    0.065734   -0.097764
     27          6           0       -8.801380    1.120644    0.144818
     28          6           0      -10.288949    0.677939    0.160945
     29          6           0      -10.193475   -0.832758   -0.249193
     30          6           0       -8.700374   -1.072851   -0.363186
     31          6           0      -11.109458    0.889463    1.478754
     32          6           0      -10.917482   -1.234661   -1.582426
     33          6           0      -12.449421   -1.364023   -1.431983
     34          7           0       -5.828831   -1.755211   -0.391376
     35          6           0       -6.815458   -2.702374   -0.541226
     36          6           0       -6.217063   -3.972095   -0.661695
     37          6           0       -4.887561   -3.835038   -0.516156
     38          6           0       -4.646931   -2.440796   -0.323833
     39          6           0       -7.047245   -5.208697   -0.980364
     40          6           0       -3.568006   -4.465768   -0.410180
     41          8           0       -3.248334   -5.625504   -0.459530
     42          6           0       -2.464848   -3.318270   -0.222562
     43          6           0       -1.923633   -3.447106    1.165549
     44          8           0       -2.301328   -2.996963    2.223733
     45          8           0       -0.778141   -4.205085    1.024335
     46          6           0       -0.000585   -4.485980    2.254681
     47          6           0        4.593129   -1.532618   -0.857407
     48          6           0        5.772942   -0.580241   -0.857013
     49          6           0        6.105751    0.245760    0.115412
     50          6           0        5.132024    0.600160    1.246961
     51          6           0        7.499805    0.971729    0.050401
     52          6           0        7.960289    1.696579   -1.242688
     53          6           0        8.764728    0.832285   -2.218102
     54          6           0        9.804411    1.629286   -3.171777
     55          6           0        9.086357    2.319671   -4.425187
     56          6           0       10.998661    0.672574   -3.488186
     57          6           0       12.291709    1.025821   -2.639364
     58          6           0       12.929229   -0.044878   -1.861145
     59          6           0       13.326503    0.557868   -0.473193
     60          6           0       14.506746    1.501739   -0.532217
     61          6           0       13.450751   -0.512207    0.676903
     62          6           0       13.483018   -0.000551    2.145687
     63          6           0       12.680213   -0.744659    3.191085
     64          6           0       11.388879    0.006914    3.729365
     65          6           0       10.772229   -0.741993    4.891643
     66          6           0       10.340969    0.274935    2.616515
     67          1           0       -2.839699    3.525067    0.344669
     68          1           0       -9.125331    3.119124    0.670626
     69          1           0       -9.035697   -3.076109   -0.717020
     70          1           0       -0.990899   -0.751491    1.123857
     71          1           0       -0.839377    1.622650   -0.637596
     72          1           0       -0.301632    2.710841    1.299843
     73          1           0       -0.307295    1.184896    2.199184
     74          1           0       -1.704068    2.219847    2.115939
     75          1           0       -0.866589   -0.860519   -1.859296
     76          1           0       -0.057405   -2.058333   -0.987469
     77          1           0        1.093225    0.548378   -0.327370
     78          1           0        1.348991   -0.075956   -2.033538
     79          1           0       -4.810881    6.292245   -0.314172
     80          1           0       -3.417757    5.492171    0.580155
     81          1           0       -4.631579    6.413195    1.428713
     82          1           0       -7.116739    7.503904    0.304971
     83          1           0       -6.564908    6.782432    1.991551
     84          1           0       -8.053097    7.209749    1.850412
     85          1           0      -10.721502    1.117115   -0.738507
     86          1           0      -10.483319   -1.449008    0.602170
     87          1           0      -11.540407   -0.005393    1.928706
     88          1           0      -11.994777    1.447580    1.174911
     89          1           0      -10.577128    1.394053    2.285043
     90          1           0      -10.549586   -2.205463   -1.912639
     91          1           0      -10.611364   -0.477132   -2.305253
     92          1           0      -12.716747   -1.528598   -0.387986
     93          1           0      -12.743371   -2.182986   -2.088377
     94          1           0      -13.002716   -0.464985   -1.705095
     95          1           0       -6.449386   -5.964305   -1.490113
     96          1           0       -7.910673   -4.907288   -1.573533
     97          1           0       -7.501552   -5.604794   -0.071901
     98          1           0       -1.682556   -3.382923   -0.979203
     99          1           0        0.329045   -5.520523    2.159762
    100          1           0       -0.563761   -4.363473    3.179724
    101          1           0        0.803478   -3.761588    2.121254
    102          1           0        4.891536   -2.294295   -1.578306
    103          1           0        4.579212   -1.927624    0.157775
    104          1           0        6.499640   -0.687681   -1.662158
    105          1           0        4.174826    0.093888    1.119640
    106          1           0        4.969920    1.672889    1.140815
    107          1           0        5.611407    0.319958    2.184195
    108          1           0        8.235424    0.203714    0.287058
    109          1           0        7.599073    1.718824    0.837761
    110          1           0        8.580333    2.581437   -1.103956
    111          1           0        7.045962    1.978399   -1.764586
    112          1           0        8.033164    0.463156   -2.936350
    113          1           0        9.264846   -0.014282   -1.748132
    114          1           0       10.223611    2.458373   -2.600951
    115          1           0        8.010236    2.333617   -4.249500
    116          1           0        9.383389    1.728166   -5.291059
    117          1           0        9.367077    3.371474   -4.486762
    118          1           0       11.238892    0.843542   -4.537568
    119          1           0       10.650173   -0.341987   -3.296597
    120          1           0       12.040106    1.899510   -2.037666
    121          1           0       12.997995    1.286374   -3.428600
    122          1           0       13.780042   -0.421826   -2.426753
    123          1           0       12.313843   -0.930614   -1.702029
    124          1           0       12.523216    1.214206   -0.136978
    125          1           0       14.974508    1.629551   -1.508964
    126          1           0       15.249956    1.240454    0.221325
    127          1           0       14.156195    2.496893   -0.257385
    128          1           0       14.328988   -1.148837    0.566319
    129          1           0       12.681742   -1.274076    0.550505
    130          1           0       13.143448    1.028580    2.262649
    131          1           0       14.514345    0.056480    2.494962
    132          1           0       13.338468   -1.165135    3.951705
    133          1           0       12.405763   -1.711192    2.767559
    134          1           0       11.734968    0.961969    4.124219
    135          1           0       10.646677    0.011194    5.670530
    136          1           0       11.491846   -1.541353    5.069475
    137          1           0        9.806668   -1.172425    4.627197
    138          1           0        9.346289    0.256713    3.061374
    139          1           0       10.246214   -0.524400    1.881468
    140          1           0       10.477401    1.264836    2.182433
 ---------------------------------------------------------------------

 SCF Done:  E(RZINDO/S) =  -474.252757051     A.U. after   20 cycles

 Excitation energies and oscillator strengths:

 Excited State   1:      Singlet-A      1.2405 eV  999.45 nm  f=0.6203  <S**2>=0.000
     175 ->178         0.19278
     176 ->177         0.66294
 This state for optimization and/or second-order correction.
 Total Energy, E(CIS/TDA) =  -474.207168739
 Copying the excited state density for this state as the 1-particle RhoCI density.

 Excited State   2:      Singlet-A      1.9094 eV  649.32 nm  f=0.0824  <S**2>=0.000
     175 ->177         0.57056
     176 ->178        -0.39117

 Excited State   3:      Singlet-A      2.9960 eV  413.84 nm  f=0.0015  <S**2>=0.000
     168 ->177         0.33544
     168 ->178        -0.16049
     168 ->179        -0.41396
     168 ->181         0.23214
     168 ->184        -0.10732
     168 ->186        -0.19960
     168 ->200         0.11044

 Excited State   4:      Singlet-A      3.0530 eV  406.11 nm  f=0.8147  <S**2>=0.000
     169 ->177        -0.13577
     169 ->179        -0.11935
     169 ->181        -0.15555
     175 ->177         0.31073
     176 ->178         0.49256
     176 ->179         0.17358

 Excited State   5:      Singlet-A      3.0706 eV  403.78 nm  f=0.0760  <S**2>=0.000
     169 ->177         0.23280
     169 ->179         0.25069
     169 ->181         0.28537
     169 ->186         0.16754
     169 ->187         0.14803
     170 ->181         0.10978
     176 ->178         0.16170
     176 ->179         0.31577

 The electronic state is 1-A.
 Alpha  occ. eigenvalues --   -1.84150  -1.80553  -1.78158  -1.73881  -1.71997
 Alpha  occ. eigenvalues --   -1.69231  -1.64489  -1.60128  -1.59441  -1.58970
 Alpha  occ. eigenvalues --   -1.56041  -1.52724  -1.50226  -1.47708  -1.46949
 Alpha  occ. eigenvalues --   -1.43683  -1.43064  -1.41049  -1.39338  -1.37712
 Alpha  occ. eigenvalues --   -1.35285  -1.33792  -1.33540  -1.31016  -1.28009
 Alpha  occ. eigenvalues --   -1.26852  -1.24337  -1.22631  -1.21586  -1.19091
 Alpha  occ. eigenvalues --   -1.16953  -1.15817  -1.14623  -1.13988  -1.13303
 Alpha  occ. eigenvalues --   -1.12534  -1.11486  -1.10253  -1.04360  -1.03039
 Alpha  occ. eigenvalues --   -1.02572  -1.01285  -0.99224  -0.97013  -0.96442
 Alpha  occ. eigenvalues --   -0.94886  -0.93632  -0.93286  -0.92825  -0.92417
 Alpha  occ. eigenvalues --   -0.90972  -0.90735  -0.88356  -0.87111  -0.86095
 Alpha  occ. eigenvalues --   -0.85648  -0.83969  -0.83331  -0.81682  -0.79600
 Alpha  occ. eigenvalues --   -0.79142  -0.77885  -0.77257  -0.76554  -0.76151
 Alpha  occ. eigenvalues --   -0.76095  -0.75502  -0.75189  -0.74404  -0.73423
 Alpha  occ. eigenvalues --   -0.72943  -0.72462  -0.72320  -0.71233  -0.70831
 Alpha  occ. eigenvalues --   -0.69814  -0.69002  -0.68947  -0.68235  -0.68058
 Alpha  occ. eigenvalues --   -0.67069  -0.66800  -0.66603  -0.66346  -0.65641
 Alpha  occ. eigenvalues --   -0.65151  -0.64593  -0.63964  -0.63623  -0.63443
 Alpha  occ. eigenvalues --   -0.62750  -0.62695  -0.62317  -0.62162  -0.61686
 Alpha  occ. eigenvalues --   -0.61153  -0.60872  -0.60683  -0.60179  -0.59906
 Alpha  occ. eigenvalues --   -0.59545  -0.58942  -0.58674  -0.58391  -0.58305
 Alpha  occ. eigenvalues --   -0.57919  -0.57711  -0.56670  -0.56467  -0.56319
 Alpha  occ. eigenvalues --   -0.55962  -0.55386  -0.55271  -0.54880  -0.54642
 Alpha  occ. eigenvalues --   -0.54241  -0.53813  -0.53319  -0.53013  -0.52803
 Alpha  occ. eigenvalues --   -0.52559  -0.51854  -0.51675  -0.51596  -0.51052
 Alpha  occ. eigenvalues --   -0.51006  -0.50439  -0.50156  -0.49999  -0.49837
 Alpha  occ. eigenvalues --   -0.49792  -0.49399  -0.49107  -0.48946  -0.48880
 Alpha  occ. eigenvalues --   -0.48742  -0.48457  -0.47707  -0.47685  -0.47264
 Alpha  occ. eigenvalues --   -0.46822  -0.46765  -0.46680  -0.46569  -0.46288
 Alpha  occ. eigenvalues --   -0.45930  -0.45874  -0.45789  -0.45581  -0.45332
 Alpha  occ. eigenvalues --   -0.45125  -0.44898  -0.44709  -0.44422  -0.44351
 Alpha  occ. eigenvalues --   -0.43621  -0.43449  -0.42810  -0.42573  -0.42357
 Alpha  occ. eigenvalues --   -0.42263  -0.42007  -0.41052  -0.39631  -0.38485
 Alpha  occ. eigenvalues --   -0.38167  -0.36893  -0.35142  -0.34618  -0.34245
 Alpha  occ. eigenvalues --   -0.33445  -0.33086  -0.32329  -0.32063  -0.26192
 Alpha  occ. eigenvalues --   -0.21575
 Alpha virt. eigenvalues --   -0.08418  -0.01482  -0.00051   0.01549   0.01704
 Alpha virt. eigenvalues --    0.02206   0.03163   0.03622   0.05222   0.05435
 Alpha virt. eigenvalues --    0.06835   0.07263   0.07615   0.08029   0.08208

 Mulliken charges:
               1
     1  Mg   0.430727
     2  C   -0.023513
     3  C   -0.077581
     4  C   -0.068372
     5  C   -0.080631
     6  N   -0.291020
     7  C    0.109466
     8  C   -0.005607
     9  C    0.001784
    10  C    0.132124
    11  C   -0.057795
    12  C   -0.025066
    13  C    0.003800
    14  C    0.461865
    15  O   -0.501722
    16  O   -0.263140
    17  N   -0.295747
    18  C    0.087816
    19  C    0.015153
    20  C   -0.084833
    21  C    0.135607
    22  C   -0.037063
    23  C    0.334265
    24  O   -0.515398
    25  C   -0.050280
    26  N   -0.273086
    27  C    0.129833
    28  C    0.004262
    29  C   -0.007416
    30  C    0.126786
    31  C   -0.048339
    32  C   -0.027791
    33  C   -0.058979
    34  N   -0.329097
    35  C    0.110249
    36  C    0.043802
    37  C   -0.039514
    38  C    0.104782
    39  C   -0.046282
    40  C    0.335122
    41  O   -0.501526
    42  C    0.056865
    43  C    0.494096
    44  O   -0.518796
    45  O   -0.281956
    46  C    0.069444
    47  C    0.101879
    48  C   -0.092040
    49  C   -0.008386
    50  C   -0.042816
    51  C   -0.024975
    52  C   -0.030486
    53  C   -0.043547
    54  C   -0.033532
    55  C   -0.062074
    56  C   -0.043859
    57  C   -0.035648
    58  C   -0.021912
    59  C   -0.008745
    60  C   -0.053174
    61  C   -0.036283
    62  C   -0.034390
    63  C   -0.038389
    64  C   -0.008423
    65  C   -0.061540
    66  C   -0.056470
    67  H    0.007796
    68  H    0.044363
    69  H    0.038033
    70  H    0.047582
    71  H    0.030154
    72  H    0.011533
    73  H    0.030415
    74  H    0.021906
    75  H    0.016439
    76  H    0.037924
    77  H    0.053290
    78  H    0.036361
    79  H    0.036570
    80  H    0.024689
    81  H    0.032415
    82  H    0.055844
    83  H    0.038771
    84  H    0.026689
    85  H    0.036285
    86  H    0.031988
    87  H    0.020749
    88  H    0.017791
    89  H    0.031788
    90  H    0.021508
    91  H    0.026508
    92  H    0.021866
    93  H    0.020629
    94  H    0.019890
    95  H    0.034341
    96  H    0.020620
    97  H    0.032719
    98  H    0.066553
    99  H    0.037030
   100  H    0.054243
   101  H    0.045655
   102  H    0.037909
   103  H    0.059634
   104  H    0.024651
   105  H    0.030193
   106  H    0.028617
   107  H    0.032535
   108  H    0.024508
   109  H    0.011664
   110  H    0.024454
   111  H    0.017795
   112  H    0.014760
   113  H    0.025768
   114  H    0.016148
   115  H    0.020577
   116  H    0.027975
   117  H    0.020692
   118  H    0.017497
   119  H    0.026236
   120  H    0.028297
   121  H    0.013400
   122  H    0.018691
   123  H    0.016530
   124  H    0.017698
   125  H    0.020804
   126  H    0.018875
   127  H    0.010435
   128  H    0.013194
   129  H    0.013046
   130  H    0.014043
   131  H    0.012742
   132  H    0.017254
   133  H    0.008472
   134  H    0.017951
   135  H    0.023514
   136  H    0.025053
   137  H    0.020821
   138  H    0.009577
   139  H    0.024587
   140  H    0.019985
 Sum of Mulliken charges =  -0.00000

 Dipole moment (field-independent basis, Debye):
    X=              3.3389    Y=              5.5217    Z=             -2.4872  Tot=              6.9154
 N-N= 4.295505381892D+03 E-N= 0.000000000000D+00  KE=-9.265802083241D+03
 Leave Link  601 at Thu May  5 00:31:14 2022, MaxMem=  6710886400 cpu:               0.8 elap:               0.0
 (Enter /sw/apps/gaussian-16.0/g16/l9999.exe)
 1\1\GINC-BP1-COMPUTE123\SP\RZINDO CIS\STO-3G\C55H74Mg1N4O6\OF15641\05-
 May-2022\0\\#p ZINDO=(nstates=5)\\step_501_chromophore_19 ZINDO\\0,1\M
 g,0,25.474,50.808,26.36\C,0,23.428,51.775,29.14\C,0,27.78,49.8,28.469\
 C,0,27.486,50.748,23.727\C,0,22.891,52.356,24.248\N,0,25.555,50.754,28
 .557\C,0,24.64,51.222,29.521\C,0,25.122,51.018,31.007\C,0,26.564,50.28
 5,30.683\C,0,26.673,50.244,29.162\C,0,27.794,51.069,31.313\C,0,24.145,
 50.22,31.939\C,0,24.756,49.667,33.221\C,0,24.216,50.301,34.516\O,0,23.

 Normal termination of Gaussian 16 at Thu May  5 00:31:15 2022.
