 Gaussian 16, Revision A.03,
 Gaussian 16:  ES64L-G16RevA.03 25-Dec-2016

 ------------------------------
 #p blyp/Def2SVP td=(nstates=5)
 ------------------------------

 ---------------------------------------------------
 step_1201_chromophore_27 TDDFT with blyp functional
 ---------------------------------------------------
 Symbolic Z-matrix:
 Charge =  0 Multiplicity = 1

                         Standard orientation:
 ---------------------------------------------------------------------
 Center     Atomic      Atomic             Coordinates (Angstroms)
 Number     Number       Type             X           Y           Z
 ---------------------------------------------------------------------
      1         12           0       -4.729484    0.935056   -0.018551
      2          6           0       -4.173231   -2.535440    0.414538
      3          6           0       -1.226581    1.238369    0.140566
      4          6           0       -5.072309    4.192279   -0.077552
      5          6           0       -8.119296    0.448571    0.437950
      6          7           0       -2.950508   -0.533645    0.242818
      7          6           0       -2.923935   -1.882708    0.322145
      8          6           0       -1.517090   -2.457953    0.210001
      9          6           0       -0.654838   -1.158539    0.525796
     10          6           0       -1.625745   -0.103847    0.204645
     11          6           0       -0.051674   -1.002948    1.951056
     12          6           0       -1.288148   -3.081679   -1.232538
     13          6           0       -0.603014   -4.469944   -1.211193
     14          6           0        0.734615   -4.504454   -1.986364
     15          8           0        0.937082   -4.772290   -3.165557
     16          8           0        1.819062   -4.167700   -1.213129
     17          7           0       -3.343097    2.479262    0.066635
     18          6           0       -2.008290    2.467782    0.027236
     19          6           0       -1.455563    3.752420   -0.071443
     20          6           0       -2.557248    4.610841   -0.150851
     21          6           0       -3.724215    3.798815   -0.042081
     22          6           0       -0.007457    4.027340   -0.078296
     23          6           0       -2.492324    6.193209   -0.178380
     24          8           0       -3.465815    6.923460   -0.098174
     25          6           0       -1.154368    6.795066   -0.507708
     26          7           0       -6.325483    2.160794    0.118258
     27          6           0       -6.248630    3.492069   -0.060937
     28          6           0       -7.704729    4.139278   -0.251374
     29          6           0       -8.539851    2.840565   -0.143097
     30          6           0       -7.652590    1.728757    0.254403
     31          6           0       -8.035058    5.297836    0.712868
     32          6           0       -9.400467    2.537450   -1.370696
     33          6           0      -10.950220    2.688381   -1.239881
     34          7           0       -5.915009   -0.632139    0.211399
     35          6           0       -7.236672   -0.689047    0.481260
     36          6           0       -7.670481   -2.072776    0.684214
     37          6           0       -6.494944   -2.817393    0.569586
     38          6           0       -5.458741   -1.924082    0.367150
     39          6           0       -9.053554   -2.461274    1.163593
     40          6           0       -5.942924   -4.142694    0.703593
     41          8           0       -6.431022   -5.259571    0.899269
     42          6           0       -4.321147   -3.955777    0.548690
     43          6           0       -3.648663   -4.426733    1.724922
     44          8           0       -3.841969   -4.005498    2.876605
     45          8           0       -2.903186   -5.517243    1.361032
     46          6           0       -1.855237   -6.005944    2.232907
     47          6           0        3.193812   -4.429082   -1.757476
     48          6           0        4.161492   -3.228502   -1.670451
     49          6           0        5.462836   -3.047599   -1.366230
     50          6           0        6.317943   -4.215872   -0.833882
     51          6           0        6.121476   -1.731841   -1.582177
     52          6           0        6.351012   -1.241755   -3.072216
     53          6           0        7.742138   -0.736169   -3.389140
     54          6           0        7.755524    0.765777   -3.698197
     55          6           0        7.217782    1.227308   -5.102404
     56          6           0        9.125223    1.393845   -3.439825
     57          6           0        9.213252    2.502259   -2.394298
     58          6           0       10.427196    2.483017   -1.440666
     59          6           0       10.140151    1.820574   -0.017224
     60          6           0       10.200418    0.285115   -0.106723
     61          6           0       11.110802    2.343224    1.066808
     62          6           0       10.470948    2.336273    2.506825
     63          6           0       10.993043    1.217287    3.420787
     64          6           0       10.858604    1.470780    4.941347
     65          6           0       12.107205    0.958361    5.743634
     66          6           0        9.505158    0.800693    5.565759
     67          1           0       -0.166030    1.289541   -0.115394
     68          1           0       -5.189684    5.274366   -0.161956
     69          1           0       -9.177250    0.229509    0.593057
     70          1           0       -1.376957   -3.148652    1.042103
     71          1           0        0.204687   -1.125631   -0.143009
     72          1           0        1.036194   -1.013878    1.898584
     73          1           0       -0.375237   -1.883301    2.507103
     74          1           0       -0.433862   -0.111230    2.448696
     75          1           0       -0.700217   -2.381221   -1.826899
     76          1           0       -2.236688   -3.202468   -1.755620
     77          1           0       -1.290611   -5.261611   -1.509759
     78          1           0       -0.236901   -4.620060   -0.195040
     79          1           0        0.351851    4.761584    0.642675
     80          1           0        0.250707    4.241873   -1.115384
     81          1           0        0.583754    3.152383    0.193025
     82          1           0       -1.442643    7.817653   -0.749830
     83          1           0       -0.701332    6.377780   -1.407586
     84          1           0       -0.416079    6.821189    0.294047
     85          1           0       -7.753156    4.454809   -1.293237
     86          1           0       -9.170944    2.929418    0.741138
     87          1           0       -8.141089    6.186148    0.090869
     88          1           0       -7.344205    5.331287    1.555392
     89          1           0       -9.021824    5.156986    1.153975
     90          1           0       -9.255970    1.494123   -1.651975
     91          1           0       -9.125408    3.111896   -2.255433
     92          1           0      -11.425942    1.711224   -1.154995
     93          1           0      -11.332681    3.052450   -2.193419
     94          1           0      -11.184659    3.394376   -0.442291
     95          1           0       -9.085411   -2.152127    2.208354
     96          1           0       -9.197758   -3.538966    1.232948
     97          1           0       -9.802996   -1.945587    0.563187
     98          1           0       -3.885288   -4.299831   -0.389121
     99          1           0       -1.483830   -5.338825    3.010436
    100          1           0       -1.040749   -6.166192    1.526572
    101          1           0       -2.172159   -6.984508    2.591834
    102          1           0        3.180542   -4.821125   -2.773936
    103          1           0        3.615779   -5.107775   -1.016270
    104          1           0        3.747708   -2.335023   -2.137098
    105          1           0        6.615774   -4.006335    0.194007
    106          1           0        7.085634   -4.273340   -1.605366
    107          1           0        5.870210   -5.202197   -0.956340
    108          1           0        7.075307   -1.546377   -1.088847
    109          1           0        5.399095   -1.138611   -1.021434
    110          1           0        5.621577   -0.500428   -3.399259
    111          1           0        6.149469   -2.120101   -3.685733
    112          1           0        7.960476   -1.219123   -4.341413
    113          1           0        8.526687   -1.119196   -2.736114
    114          1           0        7.071652    1.224524   -2.983581
    115          1           0        7.946523    1.791764   -5.685235
    116          1           0        6.304790    1.806405   -4.962900
    117          1           0        6.903979    0.330348   -5.636592
    118          1           0        9.527587    1.719358   -4.398713
    119          1           0        9.764877    0.581897   -3.092629
    120          1           0        8.285177    2.548873   -1.825509
    121          1           0        9.324810    3.392773   -3.014224
    122          1           0       10.908736    3.449459   -1.587941
    123          1           0       11.185496    1.794391   -1.811020
    124          1           0        9.144662    2.112125    0.315632
    125          1           0        9.239541   -0.212761    0.018045
    126          1           0       10.869503   -0.190672    0.610900
    127          1           0       10.504272   -0.043780   -1.100801
    128          1           0       11.242719    3.412000    0.896090
    129          1           0       12.078623    1.843539    1.023701
    130          1           0        9.384607    2.384060    2.437079
    131          1           0       10.812286    3.253052    2.987955
    132          1           0       12.036300    0.997053    3.196601
    133          1           0       10.438972    0.334134    3.102779
    134          1           0       10.703803    2.546918    5.029410
    135          1           0       12.614297    0.278739    5.059793
    136          1           0       11.901010    0.359080    6.630595
    137          1           0       12.675122    1.835174    6.054020
    138          1           0        8.596377    1.322812    5.265937
    139          1           0        9.584219    0.804275    6.653289
    140          1           0        9.373047   -0.227216    5.226657
 ---------------------------------------------------------------------

 SCF Done:  E(RB-LYP) =  -3007.36406289     A.U. after   21 cycles

 Excitation energies and oscillator strengths:

 Excited State   1:      Singlet-A      1.8346 eV  675.81 nm  f=0.3074  <S**2>=0.000
     245 -> 248       -0.19465
     246 -> 247        0.68963
     246 <- 247       -0.15074
 This state for optimization and/or second-order correction.
 Total Energy, E(TD-HF/TD-DFT) =  -3007.29664214
 Copying the excited state density for this state as the 1-particle RhoCI density.

 Excited State   2:      Singlet-A      2.0222 eV  613.12 nm  f=0.0945  <S**2>=0.000
     245 -> 247        0.65437
     246 -> 248        0.23861

 Excited State   3:      Singlet-A      2.0957 eV  591.60 nm  f=0.0024  <S**2>=0.000
     244 -> 247        0.70372

 Excited State   4:      Singlet-A      2.1479 eV  577.23 nm  f=0.0005  <S**2>=0.000
     243 -> 247        0.70605

 Excited State   5:      Singlet-A      2.4296 eV  510.30 nm  f=0.0008  <S**2>=0.000
     242 -> 247        0.70516

 The electronic state is 1-A.
 Alpha  occ. eigenvalues --  -46.25817 -18.82229 -18.81890 -18.76386 -18.76385
 Alpha  occ. eigenvalues --  -18.76345 -18.76275 -14.03035 -14.02614 -14.01131
 Alpha  occ. eigenvalues --  -14.00569 -10.04318 -10.03587 -10.00431 -10.00276
 Alpha  occ. eigenvalues --   -9.98678  -9.98111  -9.96252  -9.96039  -9.96018
 Alpha  occ. eigenvalues --   -9.95763  -9.95549  -9.95111  -9.95099  -9.94929
 Alpha  occ. eigenvalues --   -9.94779  -9.94717  -9.94650  -9.94032  -9.93776
 Alpha  occ. eigenvalues --   -9.93767  -9.93583  -9.93275  -9.92814  -9.92758
 Alpha  occ. eigenvalues --   -9.92754  -9.92739  -9.92731  -9.92673  -9.92647
 Alpha  occ. eigenvalues --   -9.92643  -9.92634  -9.92608  -9.92579  -9.92571
 Alpha  occ. eigenvalues --   -9.92363  -9.92191  -9.92134  -9.92112  -9.91976
 Alpha  occ. eigenvalues --   -9.91943  -9.91900  -9.91822  -9.91501  -9.91427
 Alpha  occ. eigenvalues --   -9.91381  -9.91361  -9.91322  -9.91302  -9.91287
 Alpha  occ. eigenvalues --   -9.91257  -9.91198  -9.91188  -9.91154  -9.91005
 Alpha  occ. eigenvalues --   -9.90498  -2.90785  -1.71196  -1.70660  -1.70515
 Alpha  occ. eigenvalues --   -0.97502  -0.97405  -0.92187  -0.90907  -0.89299
 Alpha  occ. eigenvalues --   -0.88628  -0.86887  -0.86353  -0.85796  -0.85055
 Alpha  occ. eigenvalues --   -0.76657  -0.74163  -0.73156  -0.72927  -0.72828
 Alpha  occ. eigenvalues --   -0.72158  -0.71571  -0.71189  -0.70746  -0.70539
 Alpha  occ. eigenvalues --   -0.69999  -0.69308  -0.68372  -0.67890  -0.67152
 Alpha  occ. eigenvalues --   -0.66523  -0.66066  -0.65524  -0.65192  -0.64673
 Alpha  occ. eigenvalues --   -0.64187  -0.62972  -0.62554  -0.62039  -0.61496
 Alpha  occ. eigenvalues --   -0.60845  -0.60095  -0.59898  -0.59704  -0.59268
 Alpha  occ. eigenvalues --   -0.58473  -0.57857  -0.56684  -0.56091  -0.54613
 Alpha  occ. eigenvalues --   -0.54402  -0.54243  -0.52781  -0.52710  -0.51469
 Alpha  occ. eigenvalues --   -0.51329  -0.50886  -0.50736  -0.50481  -0.50104
 Alpha  occ. eigenvalues --   -0.49560  -0.49368  -0.49281  -0.48344  -0.46840
 Alpha  occ. eigenvalues --   -0.46428  -0.46005  -0.45571  -0.45397  -0.45029
 Alpha  occ. eigenvalues --   -0.44333  -0.44210  -0.43169  -0.42589  -0.42251
 Alpha  occ. eigenvalues --   -0.42087  -0.41801  -0.41777  -0.41608  -0.41383
 Alpha  occ. eigenvalues --   -0.41187  -0.40727  -0.40688  -0.40307  -0.40166
 Alpha  occ. eigenvalues --   -0.40009  -0.39859  -0.39623  -0.39360  -0.39071
 Alpha  occ. eigenvalues --   -0.38921  -0.38810  -0.38642  -0.38507  -0.38476
 Alpha  occ. eigenvalues --   -0.38138  -0.37850  -0.37799  -0.37540  -0.37481
 Alpha  occ. eigenvalues --   -0.37374  -0.37015  -0.36938  -0.36840  -0.36460
 Alpha  occ. eigenvalues --   -0.36344  -0.36201  -0.35957  -0.35858  -0.35680
 Alpha  occ. eigenvalues --   -0.35593  -0.35502  -0.35441  -0.35199  -0.35080
 Alpha  occ. eigenvalues --   -0.34930  -0.34674  -0.34361  -0.34086  -0.34071
 Alpha  occ. eigenvalues --   -0.34005  -0.33675  -0.33546  -0.33444  -0.33296
 Alpha  occ. eigenvalues --   -0.33000  -0.32882  -0.32694  -0.32554  -0.32492
 Alpha  occ. eigenvalues --   -0.32121  -0.31908  -0.31793  -0.31771  -0.31534
 Alpha  occ. eigenvalues --   -0.31478  -0.31036  -0.30989  -0.30942  -0.30726
 Alpha  occ. eigenvalues --   -0.30593  -0.30405  -0.30042  -0.29971  -0.29934
 Alpha  occ. eigenvalues --   -0.29738  -0.29681  -0.29605  -0.29552  -0.29306
 Alpha  occ. eigenvalues --   -0.29242  -0.28728  -0.28355  -0.28347  -0.27965
 Alpha  occ. eigenvalues --   -0.27652  -0.27583  -0.27286  -0.26932  -0.26926
 Alpha  occ. eigenvalues --   -0.26878  -0.26617  -0.26192  -0.25801  -0.25189
 Alpha  occ. eigenvalues --   -0.24689  -0.24631  -0.24515  -0.24000  -0.23845
 Alpha  occ. eigenvalues --   -0.23530  -0.22111  -0.21607  -0.21534  -0.21115
 Alpha  occ. eigenvalues --   -0.20697  -0.20400  -0.19303  -0.19066  -0.17033
 Alpha  occ. eigenvalues --   -0.15800
 Alpha virt. eigenvalues --   -0.11477  -0.06520  -0.06135  -0.04690  -0.03227
 Alpha virt. eigenvalues --   -0.03134  -0.02476  -0.02147  -0.01219   0.00232
 Alpha virt. eigenvalues --    0.01102   0.01620   0.02160   0.02379   0.02560

 Mulliken charges:
               1
     1  Mg   0.723699
     2  C   -0.068172
     3  C   -0.092534
     4  C   -0.031912
     5  C   -0.104352
     6  N   -0.180256
     7  C   -0.115928
     8  C    0.040860
     9  C   -0.023680
    10  C    0.006757
    11  C    0.150752
    12  C    0.132420
    13  C    0.139873
    14  C    0.050191
    15  O   -0.196622
    16  O   -0.295472
    17  N   -0.255062
    18  C    0.106755
    19  C   -0.134173
    20  C    0.013969
    21  C    0.080712
    22  C    0.196776
    23  C   -0.047219
    24  O   -0.146941
    25  C    0.118347
    26  N   -0.287593
    27  C    0.009085
    28  C    0.018485
    29  C    0.076525
    30  C    0.071627
    31  C    0.157523
    32  C    0.082248
    33  C    0.058883
    34  N   -0.286690
    35  C    0.098376
    36  C   -0.214139
    37  C    0.122427
    38  C    0.120513
    39  C    0.169205
    40  C   -0.037782
    41  O   -0.130401
    42  C    0.116440
    43  C    0.098670
    44  O   -0.193492
    45  O   -0.274298
    46  C    0.216630
    47  C    0.341109
    48  C   -0.108524
    49  C   -0.183077
    50  C    0.139022
    51  C    0.133178
    52  C    0.083472
    53  C    0.120342
    54  C   -0.113920
    55  C    0.119097
    56  C    0.115054
    57  C    0.100822
    58  C    0.083529
    59  C   -0.051990
    60  C    0.094950
    61  C    0.110227
    62  C    0.057699
    63  C    0.093768
    64  C   -0.077434
    65  C    0.106456
    66  C    0.061524
    67  H   -0.049609
    68  H   -0.056968
    69  H   -0.057080
    70  H   -0.020428
    71  H   -0.031037
    72  H   -0.002672
    73  H   -0.013063
    74  H    0.006378
    75  H   -0.001702
    76  H   -0.003473
    77  H    0.019629
    78  H   -0.001617
    79  H   -0.001426
    80  H    0.000747
    81  H   -0.027311
    82  H   -0.011208
    83  H    0.004367
    84  H    0.011894
    85  H   -0.020820
    86  H   -0.039483
    87  H   -0.000414
    88  H    0.006813
    89  H   -0.020666
    90  H   -0.022956
    91  H   -0.024972
    92  H   -0.006294
    93  H   -0.018173
    94  H    0.000726
    95  H    0.008996
    96  H    0.003243
    97  H    0.008016
    98  H   -0.015908
    99  H    0.026193
   100  H   -0.000243
   101  H    0.022477
   102  H    0.030393
   103  H   -0.012811
   104  H   -0.046934
   105  H    0.017770
   106  H   -0.006894
   107  H   -0.021767
   108  H   -0.037664
   109  H   -0.014176
   110  H   -0.025915
   111  H   -0.033796
   112  H   -0.046913
   113  H   -0.029191
   114  H   -0.039430
   115  H   -0.005599
   116  H   -0.015613
   117  H   -0.024098
   118  H   -0.041687
   119  H   -0.051906
   120  H   -0.031835
   121  H   -0.039286
   122  H   -0.035029
   123  H   -0.042179
   124  H   -0.039892
   125  H   -0.018279
   126  H   -0.011548
   127  H   -0.018760
   128  H   -0.042172
   129  H   -0.027734
   130  H   -0.027129
   131  H   -0.037952
   132  H   -0.036832
   133  H   -0.033708
   134  H   -0.031356
   135  H   -0.015127
   136  H   -0.019346
   137  H   -0.002676
   138  H   -0.016497
   139  H   -0.009415
   140  H   -0.015309
 Sum of Mulliken charges =  -0.00000

 Dipole moment (field-independent basis, Debye):
    X=              4.4836    Y=              1.9798    Z=             -1.2192  Tot=              5.0507
 Quadrupole moment (field-independent basis, Debye-Ang):
   XX=           -375.5131   YY=           -436.2920   ZZ=           -417.0301
   XY=            -25.1295   XZ=             12.8645   YZ=             -6.6932

 Normal termination of Gaussian 16 at Wed Apr 27 15:18:54 2022.
