 Gaussian 16, Revision A.03,
 Gaussian 16:  ES64L-G16RevA.03 25-Dec-2016

 -----------------------------------
 #p cam-b3lyp/Def2SVP td=(nstates=5)
 -----------------------------------

 --------------------------------------------------------
 step_1201_chromophore_27 TDDFT with cam-b3lyp functional
 --------------------------------------------------------
 Symbolic Z-matrix:
 Charge =  0 Multiplicity = 1

                         Standard orientation:
 ---------------------------------------------------------------------
 Center     Atomic      Atomic             Coordinates (Angstroms)
 Number     Number       Type             X           Y           Z
 ---------------------------------------------------------------------
      1         12           0       -4.729484    0.935056   -0.018551
      2          6           0       -4.173231   -2.535440    0.414538
      3          6           0       -1.226581    1.238369    0.140566
      4          6           0       -5.072309    4.192279   -0.077552
      5          6           0       -8.119296    0.448571    0.437950
      6          7           0       -2.950508   -0.533645    0.242818
      7          6           0       -2.923935   -1.882708    0.322145
      8          6           0       -1.517090   -2.457953    0.210001
      9          6           0       -0.654838   -1.158539    0.525796
     10          6           0       -1.625745   -0.103847    0.204645
     11          6           0       -0.051674   -1.002948    1.951056
     12          6           0       -1.288148   -3.081679   -1.232538
     13          6           0       -0.603014   -4.469944   -1.211193
     14          6           0        0.734615   -4.504454   -1.986364
     15          8           0        0.937082   -4.772290   -3.165557
     16          8           0        1.819062   -4.167700   -1.213129
     17          7           0       -3.343097    2.479262    0.066635
     18          6           0       -2.008290    2.467782    0.027236
     19          6           0       -1.455563    3.752420   -0.071443
     20          6           0       -2.557248    4.610841   -0.150851
     21          6           0       -3.724215    3.798815   -0.042081
     22          6           0       -0.007457    4.027340   -0.078296
     23          6           0       -2.492324    6.193209   -0.178380
     24          8           0       -3.465815    6.923460   -0.098174
     25          6           0       -1.154368    6.795066   -0.507708
     26          7           0       -6.325483    2.160794    0.118258
     27          6           0       -6.248630    3.492069   -0.060937
     28          6           0       -7.704729    4.139278   -0.251374
     29          6           0       -8.539851    2.840565   -0.143097
     30          6           0       -7.652590    1.728757    0.254403
     31          6           0       -8.035058    5.297836    0.712868
     32          6           0       -9.400467    2.537450   -1.370696
     33          6           0      -10.950220    2.688381   -1.239881
     34          7           0       -5.915009   -0.632139    0.211399
     35          6           0       -7.236672   -0.689047    0.481260
     36          6           0       -7.670481   -2.072776    0.684214
     37          6           0       -6.494944   -2.817393    0.569586
     38          6           0       -5.458741   -1.924082    0.367150
     39          6           0       -9.053554   -2.461274    1.163593
     40          6           0       -5.942924   -4.142694    0.703593
     41          8           0       -6.431022   -5.259571    0.899269
     42          6           0       -4.321147   -3.955777    0.548690
     43          6           0       -3.648663   -4.426733    1.724922
     44          8           0       -3.841969   -4.005498    2.876605
     45          8           0       -2.903186   -5.517243    1.361032
     46          6           0       -1.855237   -6.005944    2.232907
     47          6           0        3.193812   -4.429082   -1.757476
     48          6           0        4.161492   -3.228502   -1.670451
     49          6           0        5.462836   -3.047599   -1.366230
     50          6           0        6.317943   -4.215872   -0.833882
     51          6           0        6.121476   -1.731841   -1.582177
     52          6           0        6.351012   -1.241755   -3.072216
     53          6           0        7.742138   -0.736169   -3.389140
     54          6           0        7.755524    0.765777   -3.698197
     55          6           0        7.217782    1.227308   -5.102404
     56          6           0        9.125223    1.393845   -3.439825
     57          6           0        9.213252    2.502259   -2.394298
     58          6           0       10.427196    2.483017   -1.440666
     59          6           0       10.140151    1.820574   -0.017224
     60          6           0       10.200418    0.285115   -0.106723
     61          6           0       11.110802    2.343224    1.066808
     62          6           0       10.470948    2.336273    2.506825
     63          6           0       10.993043    1.217287    3.420787
     64          6           0       10.858604    1.470780    4.941347
     65          6           0       12.107205    0.958361    5.743634
     66          6           0        9.505158    0.800693    5.565759
     67          1           0       -0.166030    1.289541   -0.115394
     68          1           0       -5.189684    5.274366   -0.161956
     69          1           0       -9.177250    0.229509    0.593057
     70          1           0       -1.376957   -3.148652    1.042103
     71          1           0        0.204687   -1.125631   -0.143009
     72          1           0        1.036194   -1.013878    1.898584
     73          1           0       -0.375237   -1.883301    2.507103
     74          1           0       -0.433862   -0.111230    2.448696
     75          1           0       -0.700217   -2.381221   -1.826899
     76          1           0       -2.236688   -3.202468   -1.755620
     77          1           0       -1.290611   -5.261611   -1.509759
     78          1           0       -0.236901   -4.620060   -0.195040
     79          1           0        0.351851    4.761584    0.642675
     80          1           0        0.250707    4.241873   -1.115384
     81          1           0        0.583754    3.152383    0.193025
     82          1           0       -1.442643    7.817653   -0.749830
     83          1           0       -0.701332    6.377780   -1.407586
     84          1           0       -0.416079    6.821189    0.294047
     85          1           0       -7.753156    4.454809   -1.293237
     86          1           0       -9.170944    2.929418    0.741138
     87          1           0       -8.141089    6.186148    0.090869
     88          1           0       -7.344205    5.331287    1.555392
     89          1           0       -9.021824    5.156986    1.153975
     90          1           0       -9.255970    1.494123   -1.651975
     91          1           0       -9.125408    3.111896   -2.255433
     92          1           0      -11.425942    1.711224   -1.154995
     93          1           0      -11.332681    3.052450   -2.193419
     94          1           0      -11.184659    3.394376   -0.442291
     95          1           0       -9.085411   -2.152127    2.208354
     96          1           0       -9.197758   -3.538966    1.232948
     97          1           0       -9.802996   -1.945587    0.563187
     98          1           0       -3.885288   -4.299831   -0.389121
     99          1           0       -1.483830   -5.338825    3.010436
    100          1           0       -1.040749   -6.166192    1.526572
    101          1           0       -2.172159   -6.984508    2.591834
    102          1           0        3.180542   -4.821125   -2.773936
    103          1           0        3.615779   -5.107775   -1.016270
    104          1           0        3.747708   -2.335023   -2.137098
    105          1           0        6.615774   -4.006335    0.194007
    106          1           0        7.085634   -4.273340   -1.605366
    107          1           0        5.870210   -5.202197   -0.956340
    108          1           0        7.075307   -1.546377   -1.088847
    109          1           0        5.399095   -1.138611   -1.021434
    110          1           0        5.621577   -0.500428   -3.399259
    111          1           0        6.149469   -2.120101   -3.685733
    112          1           0        7.960476   -1.219123   -4.341413
    113          1           0        8.526687   -1.119196   -2.736114
    114          1           0        7.071652    1.224524   -2.983581
    115          1           0        7.946523    1.791764   -5.685235
    116          1           0        6.304790    1.806405   -4.962900
    117          1           0        6.903979    0.330348   -5.636592
    118          1           0        9.527587    1.719358   -4.398713
    119          1           0        9.764877    0.581897   -3.092629
    120          1           0        8.285177    2.548873   -1.825509
    121          1           0        9.324810    3.392773   -3.014224
    122          1           0       10.908736    3.449459   -1.587941
    123          1           0       11.185496    1.794391   -1.811020
    124          1           0        9.144662    2.112125    0.315632
    125          1           0        9.239541   -0.212761    0.018045
    126          1           0       10.869503   -0.190672    0.610900
    127          1           0       10.504272   -0.043780   -1.100801
    128          1           0       11.242719    3.412000    0.896090
    129          1           0       12.078623    1.843539    1.023701
    130          1           0        9.384607    2.384060    2.437079
    131          1           0       10.812286    3.253052    2.987955
    132          1           0       12.036300    0.997053    3.196601
    133          1           0       10.438972    0.334134    3.102779
    134          1           0       10.703803    2.546918    5.029410
    135          1           0       12.614297    0.278739    5.059793
    136          1           0       11.901010    0.359080    6.630595
    137          1           0       12.675122    1.835174    6.054020
    138          1           0        8.596377    1.322812    5.265937
    139          1           0        9.584219    0.804275    6.653289
    140          1           0        9.373047   -0.227216    5.226657
 ---------------------------------------------------------------------

 SCF Done:  E(RCAM-B3LYP) =  -3007.15949512     A.U. after   17 cycles

 Excitation energies and oscillator strengths:

 Excited State   1:      Singlet-A      1.7169 eV  722.13 nm  f=0.3823  <S**2>=0.000
     245 -> 248        0.18119
     246 -> 247        0.68521
     245 <- 248        0.10813
 This state for optimization and/or second-order correction.
 Total Energy, E(TD-HF/TD-DFT) =  -3007.09639901
 Copying the excited state density for this state as the 1-particle RhoCI density.

 Excited State   2:      Singlet-A      2.2185 eV  558.87 nm  f=0.1543  <S**2>=0.000
     245 -> 247        0.65267
     246 -> 248       -0.26310

 Excited State   3:      Singlet-A      3.4792 eV  356.35 nm  f=0.0055  <S**2>=0.000
     240 -> 247       -0.10097
     244 -> 247        0.66018
     246 -> 248        0.10520

 Excited State   4:      Singlet-A      3.5340 eV  350.83 nm  f=0.0061  <S**2>=0.000
     240 -> 247       -0.31214
     240 -> 249        0.23197
     241 -> 247        0.40792
     241 -> 249       -0.22516
     241 -> 250        0.10023
     242 -> 247       -0.21511
     244 -> 247       -0.16960

 Excited State   5:      Singlet-A      3.6366 eV  340.93 nm  f=0.5416  <S**2>=0.000
     240 -> 247       -0.20687
     242 -> 247        0.23227
     244 -> 247       -0.12197
     245 -> 247        0.21875
     246 -> 248        0.57183

 The electronic state is 1-A.
 Alpha  occ. eigenvalues --  -46.87249 -19.25401 -19.24802 -19.19710 -19.19570
 Alpha  occ. eigenvalues --  -19.19546 -19.19388 -14.42157 -14.41262 -14.39603
 Alpha  occ. eigenvalues --  -14.38958 -10.39680 -10.39285 -10.35841 -10.35629
 Alpha  occ. eigenvalues --  -10.32886 -10.32252 -10.30796 -10.30425 -10.30410
 Alpha  occ. eigenvalues --  -10.30158 -10.29873 -10.29429 -10.29329 -10.29100
 Alpha  occ. eigenvalues --  -10.29061 -10.28815 -10.28754 -10.28020 -10.28015
 Alpha  occ. eigenvalues --  -10.28003 -10.27740 -10.27690 -10.27172 -10.27130
 Alpha  occ. eigenvalues --  -10.26951 -10.26696 -10.26668 -10.26501 -10.26467
 Alpha  occ. eigenvalues --  -10.26456 -10.26403 -10.26368 -10.26355 -10.26325
 Alpha  occ. eigenvalues --  -10.26289 -10.26006 -10.26004 -10.25929 -10.25845
 Alpha  occ. eigenvalues --  -10.25726 -10.25645 -10.25530 -10.25472 -10.25182
 Alpha  occ. eigenvalues --  -10.25176 -10.25086 -10.25073 -10.25013 -10.25007
 Alpha  occ. eigenvalues --  -10.24914 -10.24866 -10.24818 -10.24816 -10.24689
 Alpha  occ. eigenvalues --  -10.24173  -3.16138  -1.91018  -1.90587  -1.90471
 Alpha  occ. eigenvalues --   -1.16226  -1.15911  -1.10574  -1.09369  -1.07495
 Alpha  occ. eigenvalues --   -1.06485  -1.04661  -1.03964  -1.03512  -1.02551
 Alpha  occ. eigenvalues --   -0.94009  -0.91099  -0.89991  -0.89734  -0.89508
 Alpha  occ. eigenvalues --   -0.88892  -0.88237  -0.87841  -0.87316  -0.87117
 Alpha  occ. eigenvalues --   -0.86524  -0.85740  -0.84666  -0.84124  -0.83278
 Alpha  occ. eigenvalues --   -0.82529  -0.82116  -0.81611  -0.81057  -0.80604
 Alpha  occ. eigenvalues --   -0.79983  -0.78696  -0.78218  -0.77546  -0.76944
 Alpha  occ. eigenvalues --   -0.76346  -0.75467  -0.75162  -0.75034  -0.74543
 Alpha  occ. eigenvalues --   -0.73543  -0.72905  -0.71589  -0.70941  -0.69273
 Alpha  occ. eigenvalues --   -0.69053  -0.68776  -0.67231  -0.67186  -0.65694
 Alpha  occ. eigenvalues --   -0.65482  -0.64920  -0.64817  -0.64597  -0.64166
 Alpha  occ. eigenvalues --   -0.63562  -0.63246  -0.63057  -0.62143  -0.60484
 Alpha  occ. eigenvalues --   -0.60166  -0.59559  -0.59084  -0.59019  -0.58517
 Alpha  occ. eigenvalues --   -0.57828  -0.57675  -0.56405  -0.55852  -0.55436
 Alpha  occ. eigenvalues --   -0.55091  -0.54866  -0.54762  -0.54664  -0.54179
 Alpha  occ. eigenvalues --   -0.54093  -0.53697  -0.53302  -0.53074  -0.52913
 Alpha  occ. eigenvalues --   -0.52733  -0.52469  -0.52339  -0.51952  -0.51820
 Alpha  occ. eigenvalues --   -0.51384  -0.51329  -0.51230  -0.50895  -0.50847
 Alpha  occ. eigenvalues --   -0.50683  -0.50308  -0.50123  -0.50065  -0.49745
 Alpha  occ. eigenvalues --   -0.49693  -0.49526  -0.49383  -0.49012  -0.48933
 Alpha  occ. eigenvalues --   -0.48793  -0.48567  -0.48431  -0.48035  -0.47882
 Alpha  occ. eigenvalues --   -0.47652  -0.47612  -0.47444  -0.47095  -0.47075
 Alpha  occ. eigenvalues --   -0.46752  -0.46557  -0.46237  -0.46087  -0.45846
 Alpha  occ. eigenvalues --   -0.45797  -0.45589  -0.45494  -0.45306  -0.45043
 Alpha  occ. eigenvalues --   -0.44875  -0.44629  -0.44363  -0.44225  -0.43993
 Alpha  occ. eigenvalues --   -0.43779  -0.43493  -0.43382  -0.43318  -0.43138
 Alpha  occ. eigenvalues --   -0.43033  -0.42701  -0.42478  -0.42358  -0.42318
 Alpha  occ. eigenvalues --   -0.42189  -0.42107  -0.41805  -0.41697  -0.41195
 Alpha  occ. eigenvalues --   -0.41021  -0.40851  -0.40704  -0.40637  -0.40615
 Alpha  occ. eigenvalues --   -0.40279  -0.39864  -0.39365  -0.39342  -0.38846
 Alpha  occ. eigenvalues --   -0.38594  -0.38482  -0.38329  -0.38168  -0.37739
 Alpha  occ. eigenvalues --   -0.37677  -0.37322  -0.37035  -0.36763  -0.36234
 Alpha  occ. eigenvalues --   -0.35904  -0.35786  -0.35120  -0.34671  -0.34447
 Alpha  occ. eigenvalues --   -0.34374  -0.33747  -0.33005  -0.31378  -0.31139
 Alpha  occ. eigenvalues --   -0.31011  -0.30462  -0.30265  -0.30042  -0.23697
 Alpha  occ. eigenvalues --   -0.21197
 Alpha virt. eigenvalues --   -0.08662  -0.01227   0.00523   0.02390   0.02945
 Alpha virt. eigenvalues --    0.04309   0.04369   0.04943   0.05790   0.06805
 Alpha virt. eigenvalues --    0.08172   0.08229   0.08311   0.08414   0.09068

 Mulliken charges:
               1
     1  Mg   0.859608
     2  C   -0.090193
     3  C   -0.093484
     4  C   -0.056292
     5  C   -0.113402
     6  N   -0.239901
     7  C   -0.074595
     8  C   -0.008309
     9  C   -0.075733
    10  C    0.017489
    11  C    0.094311
    12  C    0.079482
    13  C    0.070446
    14  C    0.134657
    15  O   -0.239455
    16  O   -0.360646
    17  N   -0.344259
    18  C    0.113224
    19  C   -0.145365
    20  C   -0.050406
    21  C    0.101957
    22  C    0.132864
    23  C    0.039026
    24  O   -0.187637
    25  C    0.029409
    26  N   -0.368477
    27  C    0.032512
    28  C   -0.026946
    29  C    0.008860
    30  C    0.099435
    31  C    0.093593
    32  C    0.020623
    33  C    0.001707
    34  N   -0.377556
    35  C    0.105354
    36  C   -0.202881
    37  C    0.035232
    38  C    0.156063
    39  C    0.115638
    40  C    0.067054
    41  O   -0.168791
    42  C    0.029725
    43  C    0.188886
    44  O   -0.228170
    45  O   -0.336230
    46  C    0.177252
    47  C    0.313625
    48  C   -0.133202
    49  C   -0.204766
    50  C    0.079813
    51  C    0.077125
    52  C    0.027285
    53  C    0.062005
    54  C   -0.165762
    55  C    0.060601
    56  C    0.064765
    57  C    0.042486
    58  C    0.029484
    59  C   -0.106109
    60  C    0.039113
    61  C    0.053692
    62  C    0.006111
    63  C    0.041503
    64  C   -0.139010
    65  C    0.045586
    66  C    0.010484
    67  H   -0.016933
    68  H   -0.016851
    69  H   -0.020846
    70  H    0.009863
    71  H    0.004645
    72  H    0.021839
    73  H    0.009966
    74  H    0.033298
    75  H    0.029679
    76  H    0.027392
    77  H    0.051230
    78  H    0.028145
    79  H    0.024991
    80  H    0.028274
    81  H    0.002832
    82  H    0.024461
    83  H    0.032605
    84  H    0.040052
    85  H    0.014407
    86  H   -0.003031
    87  H    0.023973
    88  H    0.032904
    89  H    0.003807
    90  H    0.008904
    91  H    0.004146
    92  H    0.015801
    93  H    0.006732
    94  H    0.021310
    95  H    0.035666
    96  H    0.031841
    97  H    0.029809
    98  H    0.028003
    99  H    0.050025
   100  H    0.020842
   101  H    0.047145
   102  H    0.063324
   103  H    0.014013
   104  H   -0.016650
   105  H    0.041031
   106  H    0.015973
   107  H    0.003148
   108  H   -0.008904
   109  H    0.016153
   110  H    0.001763
   111  H   -0.002331
   112  H   -0.015342
   113  H   -0.001858
   114  H   -0.008720
   115  H    0.018000
   116  H    0.008515
   117  H   -0.000346
   118  H   -0.012405
   119  H   -0.025354
   120  H   -0.004698
   121  H   -0.008381
   122  H   -0.004111
   123  H   -0.013345
   124  H   -0.009287
   125  H    0.003000
   126  H    0.012587
   127  H    0.002550
   128  H   -0.010242
   129  H   -0.000084
   130  H   -0.000481
   131  H   -0.009069
   132  H   -0.008187
   133  H   -0.008469
   134  H   -0.000112
   135  H    0.008034
   136  H    0.005601
   137  H    0.020843
   138  H    0.006278
   139  H    0.013284
   140  H    0.006847
 Sum of Mulliken charges =  -0.00000

 Dipole moment (field-independent basis, Debye):
    X=              4.9527    Y=              2.0028    Z=             -1.2722  Tot=              5.4917
 Quadrupole moment (field-independent basis, Debye-Ang):
   XX=           -375.9054   YY=           -433.4755   ZZ=           -417.6259
   XY=            -25.1504   XZ=             13.3623   YZ=             -7.7160

 Normal termination of Gaussian 16 at Wed Apr 27 14:22:58 2022.
