 Gaussian 16, Revision A.03,
 Gaussian 16:  ES64L-G16RevA.03 25-Dec-2016

 ---------------------------------
 #p PBE1PBE/Def2SVP td=(nstates=5)
 ---------------------------------

 ------------------------------------------------------
 step_1201_chromophore_27 TDDFT with PBE1PBE functional
 ------------------------------------------------------
 Symbolic Z-matrix:
 Charge =  0 Multiplicity = 1

                         Standard orientation:
 ---------------------------------------------------------------------
 Center     Atomic      Atomic             Coordinates (Angstroms)
 Number     Number       Type             X           Y           Z
 ---------------------------------------------------------------------
      1         12           0       -4.729484    0.935056   -0.018551
      2          6           0       -4.173231   -2.535440    0.414538
      3          6           0       -1.226581    1.238369    0.140566
      4          6           0       -5.072309    4.192279   -0.077552
      5          6           0       -8.119296    0.448571    0.437950
      6          7           0       -2.950508   -0.533645    0.242818
      7          6           0       -2.923935   -1.882708    0.322145
      8          6           0       -1.517090   -2.457953    0.210001
      9          6           0       -0.654838   -1.158539    0.525796
     10          6           0       -1.625745   -0.103847    0.204645
     11          6           0       -0.051674   -1.002948    1.951056
     12          6           0       -1.288148   -3.081679   -1.232538
     13          6           0       -0.603014   -4.469944   -1.211193
     14          6           0        0.734615   -4.504454   -1.986364
     15          8           0        0.937082   -4.772290   -3.165557
     16          8           0        1.819062   -4.167700   -1.213129
     17          7           0       -3.343097    2.479262    0.066635
     18          6           0       -2.008290    2.467782    0.027236
     19          6           0       -1.455563    3.752420   -0.071443
     20          6           0       -2.557248    4.610841   -0.150851
     21          6           0       -3.724215    3.798815   -0.042081
     22          6           0       -0.007457    4.027340   -0.078296
     23          6           0       -2.492324    6.193209   -0.178380
     24          8           0       -3.465815    6.923460   -0.098174
     25          6           0       -1.154368    6.795066   -0.507708
     26          7           0       -6.325483    2.160794    0.118258
     27          6           0       -6.248630    3.492069   -0.060937
     28          6           0       -7.704729    4.139278   -0.251374
     29          6           0       -8.539851    2.840565   -0.143097
     30          6           0       -7.652590    1.728757    0.254403
     31          6           0       -8.035058    5.297836    0.712868
     32          6           0       -9.400467    2.537450   -1.370696
     33          6           0      -10.950220    2.688381   -1.239881
     34          7           0       -5.915009   -0.632139    0.211399
     35          6           0       -7.236672   -0.689047    0.481260
     36          6           0       -7.670481   -2.072776    0.684214
     37          6           0       -6.494944   -2.817393    0.569586
     38          6           0       -5.458741   -1.924082    0.367150
     39          6           0       -9.053554   -2.461274    1.163593
     40          6           0       -5.942924   -4.142694    0.703593
     41          8           0       -6.431022   -5.259571    0.899269
     42          6           0       -4.321147   -3.955777    0.548690
     43          6           0       -3.648663   -4.426733    1.724922
     44          8           0       -3.841969   -4.005498    2.876605
     45          8           0       -2.903186   -5.517243    1.361032
     46          6           0       -1.855237   -6.005944    2.232907
     47          6           0        3.193812   -4.429082   -1.757476
     48          6           0        4.161492   -3.228502   -1.670451
     49          6           0        5.462836   -3.047599   -1.366230
     50          6           0        6.317943   -4.215872   -0.833882
     51          6           0        6.121476   -1.731841   -1.582177
     52          6           0        6.351012   -1.241755   -3.072216
     53          6           0        7.742138   -0.736169   -3.389140
     54          6           0        7.755524    0.765777   -3.698197
     55          6           0        7.217782    1.227308   -5.102404
     56          6           0        9.125223    1.393845   -3.439825
     57          6           0        9.213252    2.502259   -2.394298
     58          6           0       10.427196    2.483017   -1.440666
     59          6           0       10.140151    1.820574   -0.017224
     60          6           0       10.200418    0.285115   -0.106723
     61          6           0       11.110802    2.343224    1.066808
     62          6           0       10.470948    2.336273    2.506825
     63          6           0       10.993043    1.217287    3.420787
     64          6           0       10.858604    1.470780    4.941347
     65          6           0       12.107205    0.958361    5.743634
     66          6           0        9.505158    0.800693    5.565759
     67          1           0       -0.166030    1.289541   -0.115394
     68          1           0       -5.189684    5.274366   -0.161956
     69          1           0       -9.177250    0.229509    0.593057
     70          1           0       -1.376957   -3.148652    1.042103
     71          1           0        0.204687   -1.125631   -0.143009
     72          1           0        1.036194   -1.013878    1.898584
     73          1           0       -0.375237   -1.883301    2.507103
     74          1           0       -0.433862   -0.111230    2.448696
     75          1           0       -0.700217   -2.381221   -1.826899
     76          1           0       -2.236688   -3.202468   -1.755620
     77          1           0       -1.290611   -5.261611   -1.509759
     78          1           0       -0.236901   -4.620060   -0.195040
     79          1           0        0.351851    4.761584    0.642675
     80          1           0        0.250707    4.241873   -1.115384
     81          1           0        0.583754    3.152383    0.193025
     82          1           0       -1.442643    7.817653   -0.749830
     83          1           0       -0.701332    6.377780   -1.407586
     84          1           0       -0.416079    6.821189    0.294047
     85          1           0       -7.753156    4.454809   -1.293237
     86          1           0       -9.170944    2.929418    0.741138
     87          1           0       -8.141089    6.186148    0.090869
     88          1           0       -7.344205    5.331287    1.555392
     89          1           0       -9.021824    5.156986    1.153975
     90          1           0       -9.255970    1.494123   -1.651975
     91          1           0       -9.125408    3.111896   -2.255433
     92          1           0      -11.425942    1.711224   -1.154995
     93          1           0      -11.332681    3.052450   -2.193419
     94          1           0      -11.184659    3.394376   -0.442291
     95          1           0       -9.085411   -2.152127    2.208354
     96          1           0       -9.197758   -3.538966    1.232948
     97          1           0       -9.802996   -1.945587    0.563187
     98          1           0       -3.885288   -4.299831   -0.389121
     99          1           0       -1.483830   -5.338825    3.010436
    100          1           0       -1.040749   -6.166192    1.526572
    101          1           0       -2.172159   -6.984508    2.591834
    102          1           0        3.180542   -4.821125   -2.773936
    103          1           0        3.615779   -5.107775   -1.016270
    104          1           0        3.747708   -2.335023   -2.137098
    105          1           0        6.615774   -4.006335    0.194007
    106          1           0        7.085634   -4.273340   -1.605366
    107          1           0        5.870210   -5.202197   -0.956340
    108          1           0        7.075307   -1.546377   -1.088847
    109          1           0        5.399095   -1.138611   -1.021434
    110          1           0        5.621577   -0.500428   -3.399259
    111          1           0        6.149469   -2.120101   -3.685733
    112          1           0        7.960476   -1.219123   -4.341413
    113          1           0        8.526687   -1.119196   -2.736114
    114          1           0        7.071652    1.224524   -2.983581
    115          1           0        7.946523    1.791764   -5.685235
    116          1           0        6.304790    1.806405   -4.962900
    117          1           0        6.903979    0.330348   -5.636592
    118          1           0        9.527587    1.719358   -4.398713
    119          1           0        9.764877    0.581897   -3.092629
    120          1           0        8.285177    2.548873   -1.825509
    121          1           0        9.324810    3.392773   -3.014224
    122          1           0       10.908736    3.449459   -1.587941
    123          1           0       11.185496    1.794391   -1.811020
    124          1           0        9.144662    2.112125    0.315632
    125          1           0        9.239541   -0.212761    0.018045
    126          1           0       10.869503   -0.190672    0.610900
    127          1           0       10.504272   -0.043780   -1.100801
    128          1           0       11.242719    3.412000    0.896090
    129          1           0       12.078623    1.843539    1.023701
    130          1           0        9.384607    2.384060    2.437079
    131          1           0       10.812286    3.253052    2.987955
    132          1           0       12.036300    0.997053    3.196601
    133          1           0       10.438972    0.334134    3.102779
    134          1           0       10.703803    2.546918    5.029410
    135          1           0       12.614297    0.278739    5.059793
    136          1           0       11.901010    0.359080    6.630595
    137          1           0       12.675122    1.835174    6.054020
    138          1           0        8.596377    1.322812    5.265937
    139          1           0        9.584219    0.804275    6.653289
    140          1           0        9.373047   -0.227216    5.226657
 ---------------------------------------------------------------------

 SCF Done:  E(RPBE1PBE) =  -3005.34861567     A.U. after   15 cycles

 Excitation energies and oscillator strengths:

 Excited State   1:      Singlet-A      1.8782 eV  660.12 nm  f=0.3706  <S**2>=0.000
     245 -> 248        0.17553
     246 -> 247        0.69244
     246 <- 247       -0.10868
 This state for optimization and/or second-order correction.
 Total Energy, E(TD-HF/TD-DFT) =  -3005.27959270
 Copying the excited state density for this state as the 1-particle RhoCI density.

 Excited State   2:      Singlet-A      2.2282 eV  556.43 nm  f=0.1414  <S**2>=0.000
     245 -> 247        0.66013
     246 -> 248       -0.24761

 Excited State   3:      Singlet-A      3.0820 eV  402.29 nm  f=0.0002  <S**2>=0.000
     241 -> 247       -0.20436
     242 -> 247        0.54666
     242 -> 249       -0.16110
     243 -> 247       -0.33010

 Excited State   4:      Singlet-A      3.1735 eV  390.69 nm  f=0.0008  <S**2>=0.000
     242 -> 247        0.32433
     243 -> 247        0.59919
     244 -> 247        0.12652

 Excited State   5:      Singlet-A      3.2954 eV  376.23 nm  f=0.0007  <S**2>=0.000
     240 -> 247        0.56916
     240 -> 249        0.11164
     240 -> 250        0.10949
     241 -> 247        0.36586

 The electronic state is 1-A.
 Alpha  occ. eigenvalues --  -46.90683 -19.25970 -19.25517 -19.19848 -19.19813
 Alpha  occ. eigenvalues --  -19.19747 -19.19690 -14.41535 -14.40919 -14.39245
 Alpha  occ. eigenvalues --  -14.38623 -10.36750 -10.36188 -10.32957 -10.32817
 Alpha  occ. eigenvalues --  -10.30315 -10.29412 -10.28512 -10.28160 -10.28154
 Alpha  occ. eigenvalues --  -10.27884 -10.27579 -10.27129 -10.27102 -10.26820
 Alpha  occ. eigenvalues --  -10.26767 -10.26433 -10.26241 -10.25803 -10.25731
 Alpha  occ. eigenvalues --  -10.25660 -10.25537 -10.25400 -10.24825 -10.24647
 Alpha  occ. eigenvalues --  -10.24531 -10.24400 -10.24346 -10.24171 -10.24165
 Alpha  occ. eigenvalues --  -10.24125 -10.24087 -10.23935 -10.23834 -10.23794
 Alpha  occ. eigenvalues --  -10.23731 -10.23678 -10.23584 -10.23501 -10.23365
 Alpha  occ. eigenvalues --  -10.23227 -10.23166 -10.23140 -10.22987 -10.22927
 Alpha  occ. eigenvalues --  -10.22762 -10.22636 -10.22611 -10.22587 -10.22495
 Alpha  occ. eigenvalues --  -10.22359 -10.22311 -10.22273 -10.22230 -10.22214
 Alpha  occ. eigenvalues --  -10.21743  -3.13139  -1.85963  -1.85510  -1.85398
 Alpha  occ. eigenvalues --   -1.10911  -1.10737  -1.05346  -1.04066  -1.02196
 Alpha  occ. eigenvalues --   -1.01372  -0.99285  -0.98679  -0.98092  -0.97223
 Alpha  occ. eigenvalues --   -0.88325  -0.85233  -0.84142  -0.83913  -0.83836
 Alpha  occ. eigenvalues --   -0.83005  -0.82541  -0.82146  -0.81649  -0.81216
 Alpha  occ. eigenvalues --   -0.80850  -0.80034  -0.78840  -0.78386  -0.77556
 Alpha  occ. eigenvalues --   -0.76760  -0.76353  -0.75840  -0.75284  -0.74878
 Alpha  occ. eigenvalues --   -0.74153  -0.72991  -0.72497  -0.71885  -0.71105
 Alpha  occ. eigenvalues --   -0.70664  -0.69569  -0.69537  -0.69109  -0.68720
 Alpha  occ. eigenvalues --   -0.67890  -0.67341  -0.65976  -0.65269  -0.63594
 Alpha  occ. eigenvalues --   -0.63449  -0.63132  -0.61621  -0.61469  -0.60180
 Alpha  occ. eigenvalues --   -0.59931  -0.59393  -0.59174  -0.59086  -0.58271
 Alpha  occ. eigenvalues --   -0.57720  -0.57637  -0.57444  -0.56667  -0.55040
 Alpha  occ. eigenvalues --   -0.54622  -0.54137  -0.53471  -0.53422  -0.53130
 Alpha  occ. eigenvalues --   -0.52265  -0.52202  -0.50997  -0.50351  -0.49902
 Alpha  occ. eigenvalues --   -0.49624  -0.49403  -0.49208  -0.49146  -0.48671
 Alpha  occ. eigenvalues --   -0.48583  -0.48268  -0.47742  -0.47519  -0.47367
 Alpha  occ. eigenvalues --   -0.47215  -0.47124  -0.46858  -0.46585  -0.46420
 Alpha  occ. eigenvalues --   -0.45978  -0.45857  -0.45730  -0.45498  -0.45363
 Alpha  occ. eigenvalues --   -0.45243  -0.44887  -0.44753  -0.44659  -0.44339
 Alpha  occ. eigenvalues --   -0.44222  -0.44153  -0.43995  -0.43611  -0.43531
 Alpha  occ. eigenvalues --   -0.43419  -0.43226  -0.43086  -0.42664  -0.42530
 Alpha  occ. eigenvalues --   -0.42320  -0.42244  -0.42076  -0.41767  -0.41677
 Alpha  occ. eigenvalues --   -0.41402  -0.41255  -0.40936  -0.40824  -0.40543
 Alpha  occ. eigenvalues --   -0.40330  -0.40300  -0.40256  -0.39971  -0.39725
 Alpha  occ. eigenvalues --   -0.39589  -0.39357  -0.39115  -0.39021  -0.38863
 Alpha  occ. eigenvalues --   -0.38585  -0.38294  -0.38221  -0.38058  -0.37923
 Alpha  occ. eigenvalues --   -0.37794  -0.37488  -0.37305  -0.37090  -0.37064
 Alpha  occ. eigenvalues --   -0.36968  -0.36889  -0.36643  -0.36591  -0.35947
 Alpha  occ. eigenvalues --   -0.35879  -0.35597  -0.35542  -0.35509  -0.35478
 Alpha  occ. eigenvalues --   -0.35131  -0.34789  -0.34293  -0.34162  -0.33649
 Alpha  occ. eigenvalues --   -0.33597  -0.33327  -0.33288  -0.32989  -0.32568
 Alpha  occ. eigenvalues --   -0.32502  -0.32183  -0.32067  -0.31790  -0.31166
 Alpha  occ. eigenvalues --   -0.30881  -0.30623  -0.29982  -0.29875  -0.29399
 Alpha  occ. eigenvalues --   -0.29104  -0.28693  -0.28490  -0.26760  -0.26219
 Alpha  occ. eigenvalues --   -0.26149  -0.25892  -0.25659  -0.25569  -0.20664
 Alpha  occ. eigenvalues --   -0.18780
 Alpha virt. eigenvalues --   -0.11093  -0.04787  -0.03764  -0.02062  -0.00288
 Alpha virt. eigenvalues --   -0.00166   0.00183   0.00516   0.01499   0.03164
 Alpha virt. eigenvalues --    0.04194   0.04252   0.05024   0.05159   0.05449

 Mulliken charges:
               1
     1  Mg   1.016251
     2  C   -0.110118
     3  C   -0.080512
     4  C   -0.053355
     5  C   -0.099878
     6  N   -0.337643
     7  C    0.017126
     8  C   -0.089484
     9  C   -0.148227
    10  C    0.051672
    11  C    0.039183
    12  C    0.036663
    13  C   -0.011150
    14  C    0.204634
    15  O   -0.273565
    16  O   -0.389722
    17  N   -0.465244
    18  C    0.144281
    19  C   -0.184628
    20  C   -0.087792
    21  C    0.127056
    22  C    0.070211
    23  C    0.096177
    24  O   -0.225219
    25  C   -0.047218
    26  N   -0.475617
    27  C    0.071433
    28  C   -0.100105
    29  C   -0.067843
    30  C    0.133193
    31  C    0.032526
    32  C   -0.040223
    33  C   -0.070431
    34  N   -0.509228
    35  C    0.126345
    36  C   -0.208912
    37  C   -0.021259
    38  C    0.203283
    39  C    0.058265
    40  C    0.165940
    41  O   -0.215090
    42  C   -0.092198
    43  C    0.283271
    44  O   -0.264155
    45  O   -0.370305
    46  C    0.121924
    47  C    0.269346
    48  C   -0.141031
    49  C   -0.253143
    50  C    0.017313
    51  C    0.012734
    52  C   -0.035350
    53  C    0.001806
    54  C   -0.248051
    55  C    0.001045
    56  C    0.010640
    57  C   -0.022270
    58  C   -0.026802
    59  C   -0.191966
    60  C   -0.018747
    61  C   -0.002753
    62  C   -0.057253
    63  C   -0.010053
    64  C   -0.229873
    65  C   -0.016743
    66  C   -0.050747
    67  H    0.012628
    68  H    0.017318
    69  H    0.010823
    70  H    0.052848
    71  H    0.040803
    72  H    0.048550
    73  H    0.038215
    74  H    0.061009
    75  H    0.060423
    76  H    0.059522
    77  H    0.081383
    78  H    0.063139
    79  H    0.052530
    80  H    0.057158
    81  H    0.030667
    82  H    0.052587
    83  H    0.059820
    84  H    0.066421
    85  H    0.051692
    86  H    0.036003
    87  H    0.051123
    88  H    0.059828
    89  H    0.031993
    90  H    0.043662
    91  H    0.036096
    92  H    0.043036
    93  H    0.035130
    94  H    0.048630
    95  H    0.064393
    96  H    0.060121
    97  H    0.055424
    98  H    0.067817
    99  H    0.069351
   100  H    0.043901
   101  H    0.069123
   102  H    0.088526
   103  H    0.042494
   104  H    0.014385
   105  H    0.067836
   106  H    0.045121
   107  H    0.029658
   108  H    0.028066
   109  H    0.048830
   110  H    0.033325
   111  H    0.031327
   112  H    0.019840
   113  H    0.029158
   114  H    0.031486
   115  H    0.043931
   116  H    0.035701
   117  H    0.027244
   118  H    0.020234
   119  H    0.009874
   120  H    0.026696
   121  H    0.025909
   122  H    0.026647
   123  H    0.020649
   124  H    0.028444
   125  H    0.033268
   126  H    0.039683
   127  H    0.028719
   128  H    0.024233
   129  H    0.031057
   130  H    0.030839
   131  H    0.024412
   132  H    0.023408
   133  H    0.025448
   134  H    0.037131
   135  H    0.035007
   136  H    0.032481
   137  H    0.048180
   138  H    0.034141
   139  H    0.040785
   140  H    0.034252
 Sum of Mulliken charges =  -0.00000

 Dipole moment (field-independent basis, Debye):
    X=              4.8550    Y=              2.1782    Z=             -1.3291  Tot=              5.4847
 Quadrupole moment (field-independent basis, Debye-Ang):
   XX=           -369.6588   YY=           -430.7594   ZZ=           -415.1106
   XY=            -26.5423   XZ=             13.3177   YZ=             -7.9428

 Normal termination of Gaussian 16 at Wed Apr 27 14:41:21 2022.
