 Gaussian 16, Revision A.03,
 Gaussian 16:  ES64L-G16RevA.03 25-Dec-2016

 --------------------------------
 #p wB97XD/Def2SVP td=(nstates=5)
 --------------------------------

 -----------------------------------------------------
 step_1201_chromophore_27 TDDFT with wB97XD functional
 -----------------------------------------------------
 Symbolic Z-matrix:
 Charge =  0 Multiplicity = 1

                         Standard orientation:
 ---------------------------------------------------------------------
 Center     Atomic      Atomic             Coordinates (Angstroms)
 Number     Number       Type             X           Y           Z
 ---------------------------------------------------------------------
      1         12           0       -4.729484    0.935056   -0.018551
      2          6           0       -4.173231   -2.535440    0.414538
      3          6           0       -1.226581    1.238369    0.140566
      4          6           0       -5.072309    4.192279   -0.077552
      5          6           0       -8.119296    0.448571    0.437950
      6          7           0       -2.950508   -0.533645    0.242818
      7          6           0       -2.923935   -1.882708    0.322145
      8          6           0       -1.517090   -2.457953    0.210001
      9          6           0       -0.654838   -1.158539    0.525796
     10          6           0       -1.625745   -0.103847    0.204645
     11          6           0       -0.051674   -1.002948    1.951056
     12          6           0       -1.288148   -3.081679   -1.232538
     13          6           0       -0.603014   -4.469944   -1.211193
     14          6           0        0.734615   -4.504454   -1.986364
     15          8           0        0.937082   -4.772290   -3.165557
     16          8           0        1.819062   -4.167700   -1.213129
     17          7           0       -3.343097    2.479262    0.066635
     18          6           0       -2.008290    2.467782    0.027236
     19          6           0       -1.455563    3.752420   -0.071443
     20          6           0       -2.557248    4.610841   -0.150851
     21          6           0       -3.724215    3.798815   -0.042081
     22          6           0       -0.007457    4.027340   -0.078296
     23          6           0       -2.492324    6.193209   -0.178380
     24          8           0       -3.465815    6.923460   -0.098174
     25          6           0       -1.154368    6.795066   -0.507708
     26          7           0       -6.325483    2.160794    0.118258
     27          6           0       -6.248630    3.492069   -0.060937
     28          6           0       -7.704729    4.139278   -0.251374
     29          6           0       -8.539851    2.840565   -0.143097
     30          6           0       -7.652590    1.728757    0.254403
     31          6           0       -8.035058    5.297836    0.712868
     32          6           0       -9.400467    2.537450   -1.370696
     33          6           0      -10.950220    2.688381   -1.239881
     34          7           0       -5.915009   -0.632139    0.211399
     35          6           0       -7.236672   -0.689047    0.481260
     36          6           0       -7.670481   -2.072776    0.684214
     37          6           0       -6.494944   -2.817393    0.569586
     38          6           0       -5.458741   -1.924082    0.367150
     39          6           0       -9.053554   -2.461274    1.163593
     40          6           0       -5.942924   -4.142694    0.703593
     41          8           0       -6.431022   -5.259571    0.899269
     42          6           0       -4.321147   -3.955777    0.548690
     43          6           0       -3.648663   -4.426733    1.724922
     44          8           0       -3.841969   -4.005498    2.876605
     45          8           0       -2.903186   -5.517243    1.361032
     46          6           0       -1.855237   -6.005944    2.232907
     47          6           0        3.193812   -4.429082   -1.757476
     48          6           0        4.161492   -3.228502   -1.670451
     49          6           0        5.462836   -3.047599   -1.366230
     50          6           0        6.317943   -4.215872   -0.833882
     51          6           0        6.121476   -1.731841   -1.582177
     52          6           0        6.351012   -1.241755   -3.072216
     53          6           0        7.742138   -0.736169   -3.389140
     54          6           0        7.755524    0.765777   -3.698197
     55          6           0        7.217782    1.227308   -5.102404
     56          6           0        9.125223    1.393845   -3.439825
     57          6           0        9.213252    2.502259   -2.394298
     58          6           0       10.427196    2.483017   -1.440666
     59          6           0       10.140151    1.820574   -0.017224
     60          6           0       10.200418    0.285115   -0.106723
     61          6           0       11.110802    2.343224    1.066808
     62          6           0       10.470948    2.336273    2.506825
     63          6           0       10.993043    1.217287    3.420787
     64          6           0       10.858604    1.470780    4.941347
     65          6           0       12.107205    0.958361    5.743634
     66          6           0        9.505158    0.800693    5.565759
     67          1           0       -0.166030    1.289541   -0.115394
     68          1           0       -5.189684    5.274366   -0.161956
     69          1           0       -9.177250    0.229509    0.593057
     70          1           0       -1.376957   -3.148652    1.042103
     71          1           0        0.204687   -1.125631   -0.143009
     72          1           0        1.036194   -1.013878    1.898584
     73          1           0       -0.375237   -1.883301    2.507103
     74          1           0       -0.433862   -0.111230    2.448696
     75          1           0       -0.700217   -2.381221   -1.826899
     76          1           0       -2.236688   -3.202468   -1.755620
     77          1           0       -1.290611   -5.261611   -1.509759
     78          1           0       -0.236901   -4.620060   -0.195040
     79          1           0        0.351851    4.761584    0.642675
     80          1           0        0.250707    4.241873   -1.115384
     81          1           0        0.583754    3.152383    0.193025
     82          1           0       -1.442643    7.817653   -0.749830
     83          1           0       -0.701332    6.377780   -1.407586
     84          1           0       -0.416079    6.821189    0.294047
     85          1           0       -7.753156    4.454809   -1.293237
     86          1           0       -9.170944    2.929418    0.741138
     87          1           0       -8.141089    6.186148    0.090869
     88          1           0       -7.344205    5.331287    1.555392
     89          1           0       -9.021824    5.156986    1.153975
     90          1           0       -9.255970    1.494123   -1.651975
     91          1           0       -9.125408    3.111896   -2.255433
     92          1           0      -11.425942    1.711224   -1.154995
     93          1           0      -11.332681    3.052450   -2.193419
     94          1           0      -11.184659    3.394376   -0.442291
     95          1           0       -9.085411   -2.152127    2.208354
     96          1           0       -9.197758   -3.538966    1.232948
     97          1           0       -9.802996   -1.945587    0.563187
     98          1           0       -3.885288   -4.299831   -0.389121
     99          1           0       -1.483830   -5.338825    3.010436
    100          1           0       -1.040749   -6.166192    1.526572
    101          1           0       -2.172159   -6.984508    2.591834
    102          1           0        3.180542   -4.821125   -2.773936
    103          1           0        3.615779   -5.107775   -1.016270
    104          1           0        3.747708   -2.335023   -2.137098
    105          1           0        6.615774   -4.006335    0.194007
    106          1           0        7.085634   -4.273340   -1.605366
    107          1           0        5.870210   -5.202197   -0.956340
    108          1           0        7.075307   -1.546377   -1.088847
    109          1           0        5.399095   -1.138611   -1.021434
    110          1           0        5.621577   -0.500428   -3.399259
    111          1           0        6.149469   -2.120101   -3.685733
    112          1           0        7.960476   -1.219123   -4.341413
    113          1           0        8.526687   -1.119196   -2.736114
    114          1           0        7.071652    1.224524   -2.983581
    115          1           0        7.946523    1.791764   -5.685235
    116          1           0        6.304790    1.806405   -4.962900
    117          1           0        6.903979    0.330348   -5.636592
    118          1           0        9.527587    1.719358   -4.398713
    119          1           0        9.764877    0.581897   -3.092629
    120          1           0        8.285177    2.548873   -1.825509
    121          1           0        9.324810    3.392773   -3.014224
    122          1           0       10.908736    3.449459   -1.587941
    123          1           0       11.185496    1.794391   -1.811020
    124          1           0        9.144662    2.112125    0.315632
    125          1           0        9.239541   -0.212761    0.018045
    126          1           0       10.869503   -0.190672    0.610900
    127          1           0       10.504272   -0.043780   -1.100801
    128          1           0       11.242719    3.412000    0.896090
    129          1           0       12.078623    1.843539    1.023701
    130          1           0        9.384607    2.384060    2.437079
    131          1           0       10.812286    3.253052    2.987955
    132          1           0       12.036300    0.997053    3.196601
    133          1           0       10.438972    0.334134    3.102779
    134          1           0       10.703803    2.546918    5.029410
    135          1           0       12.614297    0.278739    5.059793
    136          1           0       11.901010    0.359080    6.630595
    137          1           0       12.675122    1.835174    6.054020
    138          1           0        8.596377    1.322812    5.265937
    139          1           0        9.584219    0.804275    6.653289
    140          1           0        9.373047   -0.227216    5.226657
 ---------------------------------------------------------------------

 SCF Done:  E(RwB97XD) =  -3007.85723426     A.U. after   18 cycles

 Excitation energies and oscillator strengths:

 Excited State   1:      Singlet-A      1.6580 eV  747.79 nm  f=0.3808  <S**2>=0.000
     245 -> 248        0.18660
     246 -> 247        0.68314
     245 <- 248        0.11728
 This state for optimization and/or second-order correction.
 Total Energy, E(TD-HF/TD-DFT) =  -3007.79630349
 Copying the excited state density for this state as the 1-particle RhoCI density.

 Excited State   2:      Singlet-A      2.1656 eV  572.51 nm  f=0.1506  <S**2>=0.000
     245 -> 247        0.65099
     246 -> 248       -0.26538

 Excited State   3:      Singlet-A      3.5019 eV  354.05 nm  f=0.0087  <S**2>=0.000
     243 -> 247       -0.13435
     244 -> 247        0.65098
     246 -> 248        0.11677

 Excited State   4:      Singlet-A      3.5660 eV  347.68 nm  f=0.0134  <S**2>=0.000
     241 -> 247        0.47258
     241 -> 249       -0.31842
     241 -> 250        0.13403
     242 -> 247        0.26350
     244 -> 247        0.12986
     246 -> 248        0.12275

 Excited State   5:      Singlet-A      3.6462 eV  340.04 nm  f=0.5382  <S**2>=0.000
     239 -> 247       -0.14632
     240 -> 247        0.12437
     241 -> 247       -0.13066
     242 -> 247        0.21601
     244 -> 247       -0.12277
     245 -> 247        0.21670
     246 -> 248        0.56405
     245 <- 247       -0.10373

 The electronic state is 1-A.
 Alpha  occ. eigenvalues --  -46.93603 -19.30639 -19.30081 -19.24692 -19.24645
 Alpha  occ. eigenvalues --  -19.24576 -19.24377 -14.46792 -14.45850 -14.44227
 Alpha  occ. eigenvalues --  -14.43550 -10.43538 -10.43154 -10.39913 -10.39598
 Alpha  occ. eigenvalues --  -10.36828 -10.36005 -10.34820 -10.34435 -10.34429
 Alpha  occ. eigenvalues --  -10.34179 -10.33912 -10.33463 -10.33430 -10.33113
 Alpha  occ. eigenvalues --  -10.33095 -10.32816 -10.32698 -10.32157 -10.32065
 Alpha  occ. eigenvalues --  -10.32016 -10.31880 -10.31722 -10.31281 -10.31162
 Alpha  occ. eigenvalues --  -10.31053 -10.30679 -10.30637 -10.30515 -10.30477
 Alpha  occ. eigenvalues --  -10.30444 -10.30372 -10.30311 -10.30299 -10.30184
 Alpha  occ. eigenvalues --  -10.30182 -10.29968 -10.29938 -10.29883 -10.29721
 Alpha  occ. eigenvalues --  -10.29646 -10.29566 -10.29532 -10.29343 -10.29171
 Alpha  occ. eigenvalues --  -10.29136 -10.29006 -10.28960 -10.28946 -10.28924
 Alpha  occ. eigenvalues --  -10.28764 -10.28735 -10.28705 -10.28636 -10.28608
 Alpha  occ. eigenvalues --  -10.28115  -3.19892  -1.93470  -1.93017  -1.92901
 Alpha  occ. eigenvalues --   -1.18424  -1.18124  -1.12779  -1.11642  -1.09702
 Alpha  occ. eigenvalues --   -1.08730  -1.06687  -1.06018  -1.05526  -1.04567
 Alpha  occ. eigenvalues --   -0.96021  -0.92911  -0.91819  -0.91564  -0.91390
 Alpha  occ. eigenvalues --   -0.90677  -0.90163  -0.89764  -0.89232  -0.88895
 Alpha  occ. eigenvalues --   -0.88480  -0.87668  -0.86509  -0.86050  -0.85175
 Alpha  occ. eigenvalues --   -0.84394  -0.84007  -0.83538  -0.82949  -0.82549
 Alpha  occ. eigenvalues --   -0.81825  -0.80643  -0.80151  -0.79468  -0.78796
 Alpha  occ. eigenvalues --   -0.78306  -0.77276  -0.77107  -0.76828  -0.76388
 Alpha  occ. eigenvalues --   -0.75497  -0.74905  -0.73546  -0.72886  -0.71183
 Alpha  occ. eigenvalues --   -0.71044  -0.70673  -0.69177  -0.69103  -0.67692
 Alpha  occ. eigenvalues --   -0.67430  -0.66818  -0.66790  -0.66588  -0.65971
 Alpha  occ. eigenvalues --   -0.65387  -0.65124  -0.65058  -0.64131  -0.62463
 Alpha  occ. eigenvalues --   -0.62135  -0.61561  -0.61032  -0.60949  -0.60534
 Alpha  occ. eigenvalues --   -0.59732  -0.59660  -0.58386  -0.57796  -0.57356
 Alpha  occ. eigenvalues --   -0.57040  -0.56832  -0.56664  -0.56606  -0.56091
 Alpha  occ. eigenvalues --   -0.56020  -0.55632  -0.55169  -0.54997  -0.54853
 Alpha  occ. eigenvalues --   -0.54620  -0.54414  -0.54244  -0.53918  -0.53714
 Alpha  occ. eigenvalues --   -0.53308  -0.53227  -0.53182  -0.52807  -0.52720
 Alpha  occ. eigenvalues --   -0.52608  -0.52269  -0.52048  -0.52001  -0.51677
 Alpha  occ. eigenvalues --   -0.51569  -0.51448  -0.51300  -0.50922  -0.50858
 Alpha  occ. eigenvalues --   -0.50698  -0.50471  -0.50343  -0.49965  -0.49813
 Alpha  occ. eigenvalues --   -0.49609  -0.49513  -0.49329  -0.49040  -0.48968
 Alpha  occ. eigenvalues --   -0.48649  -0.48462  -0.48174  -0.47998  -0.47748
 Alpha  occ. eigenvalues --   -0.47632  -0.47516  -0.47423  -0.47225  -0.46929
 Alpha  occ. eigenvalues --   -0.46842  -0.46552  -0.46272  -0.46163  -0.45925
 Alpha  occ. eigenvalues --   -0.45719  -0.45453  -0.45300  -0.45222  -0.45073
 Alpha  occ. eigenvalues --   -0.44933  -0.44661  -0.44449  -0.44327  -0.44207
 Alpha  occ. eigenvalues --   -0.44082  -0.44019  -0.43742  -0.43639  -0.43079
 Alpha  occ. eigenvalues --   -0.42947  -0.42713  -0.42571  -0.42552  -0.42512
 Alpha  occ. eigenvalues --   -0.42153  -0.41773  -0.41246  -0.41227  -0.40690
 Alpha  occ. eigenvalues --   -0.40491  -0.40346  -0.40250  -0.40037  -0.39598
 Alpha  occ. eigenvalues --   -0.39550  -0.39174  -0.39032  -0.38824  -0.38310
 Alpha  occ. eigenvalues --   -0.37915  -0.37633  -0.36983  -0.36654  -0.36387
 Alpha  occ. eigenvalues --   -0.36220  -0.35707  -0.35263  -0.33340  -0.33280
 Alpha  occ. eigenvalues --   -0.33093  -0.32662  -0.32315  -0.32227  -0.25611
 Alpha  occ. eigenvalues --   -0.23015
 Alpha virt. eigenvalues --   -0.07016   0.00684   0.02561   0.04484   0.06014
 Alpha virt. eigenvalues --    0.06420   0.06630   0.07162   0.08158   0.09612
 Alpha virt. eigenvalues --    0.10731   0.11045   0.11684   0.11813   0.12149

 Mulliken charges:
               1
     1  Mg   1.002678
     2  C   -0.101642
     3  C   -0.095801
     4  C   -0.069642
     5  C   -0.122413
     6  N   -0.302862
     7  C   -0.026933
     8  C   -0.050751
     9  C   -0.124361
    10  C    0.038123
    11  C    0.047611
    12  C    0.039710
    13  C    0.012322
    14  C    0.193130
    15  O   -0.271158
    16  O   -0.389468
    17  N   -0.430556
    18  C    0.132400
    19  C   -0.169551
    20  C   -0.087644
    21  C    0.123584
    22  C    0.083772
    23  C    0.089756
    24  O   -0.219709
    25  C   -0.034866
    26  N   -0.445632
    27  C    0.056679
    28  C   -0.074627
    29  C   -0.043189
    30  C    0.126549
    31  C    0.043043
    32  C   -0.025669
    33  C   -0.053173
    34  N   -0.471211
    35  C    0.120194
    36  C   -0.209147
    37  C   -0.013586
    38  C    0.184861
    39  C    0.069360
    40  C    0.146110
    41  O   -0.205029
    42  C   -0.045563
    43  C    0.257119
    44  O   -0.257191
    45  O   -0.366534
    46  C    0.136476
    47  C    0.287657
    48  C   -0.154807
    49  C   -0.234978
    50  C    0.030611
    51  C    0.032976
    52  C   -0.019325
    53  C    0.020637
    54  C   -0.217869
    55  C    0.012657
    56  C    0.031064
    57  C   -0.006819
    58  C   -0.007580
    59  C   -0.162455
    60  C   -0.006005
    61  C    0.011605
    62  C   -0.039369
    63  C    0.004832
    64  C   -0.202973
    65  C   -0.003526
    66  C   -0.036064
    67  H    0.005703
    68  H    0.010481
    69  H    0.005031
    70  H    0.029501
    71  H    0.031812
    72  H    0.044342
    73  H    0.032124
    74  H    0.055003
    75  H    0.054125
    76  H    0.052213
    77  H    0.078492
    78  H    0.049767
    79  H    0.047063
    80  H    0.051590
    81  H    0.025981
    82  H    0.050505
    83  H    0.053949
    84  H    0.061935
    85  H    0.040936
    86  H    0.022423
    87  H    0.046351
    88  H    0.054785
    89  H    0.025313
    90  H    0.033369
    91  H    0.028457
    92  H    0.037054
    93  H    0.029448
    94  H    0.041566
    95  H    0.058764
    96  H    0.057174
    97  H    0.050240
    98  H    0.057498
    99  H    0.066871
   100  H    0.038516
   101  H    0.066607
   102  H    0.085638
   103  H    0.034987
   104  H    0.009175
   105  H    0.063551
   106  H    0.037655
   107  H    0.024310
   108  H    0.015907
   109  H    0.040547
   110  H    0.024896
   111  H    0.022188
   112  H    0.010234
   113  H    0.018509
   114  H    0.014174
   115  H    0.038497
   116  H    0.030621
   117  H    0.020195
   118  H    0.011799
   119  H   -0.007870
   120  H    0.016836
   121  H    0.018716
   122  H    0.020961
   123  H    0.008194
   124  H    0.014247
   125  H    0.026075
   126  H    0.033300
   127  H    0.019625
   128  H    0.015865
   129  H    0.022815
   130  H    0.022762
   131  H    0.014837
   132  H    0.012767
   133  H    0.013417
   134  H    0.025665
   135  H    0.028049
   136  H    0.027146
   137  H    0.043139
   138  H    0.028224
   139  H    0.034281
   140  H    0.027240
 Sum of Mulliken charges =  -0.00000

 Dipole moment (field-independent basis, Debye):
    X=              5.0317    Y=              2.0335    Z=             -1.2945  Tot=              5.5794
 Quadrupole moment (field-independent basis, Debye-Ang):
   XX=           -371.2415   YY=           -429.5046   ZZ=           -414.7880
   XY=            -25.2847   XZ=             13.5099   YZ=             -8.2607

 Normal termination of Gaussian 16 at Wed Apr 27 15:06:51 2022.
