 Gaussian 16, Revision A.03,
 Gaussian 16:  ES64L-G16RevA.03 25-Dec-2016

 --------------------
 #p ZINDO=(nstates=5)
 --------------------

 ------------------------------
 step_1201_chromophore_27 ZINDO
 ------------------------------
 Symbolic Z-matrix:
 Charge =  0 Multiplicity = 1

                         Standard orientation:
 ---------------------------------------------------------------------
 Center     Atomic      Atomic             Coordinates (Angstroms)
 Number     Number       Type             X           Y           Z
 ---------------------------------------------------------------------
      1         12           0       -4.729484    0.935056   -0.018551
      2          6           0       -4.173231   -2.535440    0.414538
      3          6           0       -1.226581    1.238369    0.140566
      4          6           0       -5.072309    4.192279   -0.077552
      5          6           0       -8.119296    0.448571    0.437950
      6          7           0       -2.950508   -0.533645    0.242818
      7          6           0       -2.923935   -1.882708    0.322145
      8          6           0       -1.517090   -2.457953    0.210001
      9          6           0       -0.654838   -1.158539    0.525796
     10          6           0       -1.625745   -0.103847    0.204645
     11          6           0       -0.051674   -1.002948    1.951056
     12          6           0       -1.288148   -3.081679   -1.232538
     13          6           0       -0.603014   -4.469944   -1.211193
     14          6           0        0.734615   -4.504454   -1.986364
     15          8           0        0.937082   -4.772290   -3.165557
     16          8           0        1.819062   -4.167700   -1.213129
     17          7           0       -3.343097    2.479262    0.066635
     18          6           0       -2.008290    2.467782    0.027236
     19          6           0       -1.455563    3.752420   -0.071443
     20          6           0       -2.557248    4.610841   -0.150851
     21          6           0       -3.724215    3.798815   -0.042081
     22          6           0       -0.007457    4.027340   -0.078296
     23          6           0       -2.492324    6.193209   -0.178380
     24          8           0       -3.465815    6.923460   -0.098174
     25          6           0       -1.154368    6.795066   -0.507708
     26          7           0       -6.325483    2.160794    0.118258
     27          6           0       -6.248630    3.492069   -0.060937
     28          6           0       -7.704729    4.139278   -0.251374
     29          6           0       -8.539851    2.840565   -0.143097
     30          6           0       -7.652590    1.728757    0.254403
     31          6           0       -8.035058    5.297836    0.712868
     32          6           0       -9.400467    2.537450   -1.370696
     33          6           0      -10.950220    2.688381   -1.239881
     34          7           0       -5.915009   -0.632139    0.211399
     35          6           0       -7.236672   -0.689047    0.481260
     36          6           0       -7.670481   -2.072776    0.684214
     37          6           0       -6.494944   -2.817393    0.569586
     38          6           0       -5.458741   -1.924082    0.367150
     39          6           0       -9.053554   -2.461274    1.163593
     40          6           0       -5.942924   -4.142694    0.703593
     41          8           0       -6.431022   -5.259571    0.899269
     42          6           0       -4.321147   -3.955777    0.548690
     43          6           0       -3.648663   -4.426733    1.724922
     44          8           0       -3.841969   -4.005498    2.876605
     45          8           0       -2.903186   -5.517243    1.361032
     46          6           0       -1.855237   -6.005944    2.232907
     47          6           0        3.193812   -4.429082   -1.757476
     48          6           0        4.161492   -3.228502   -1.670451
     49          6           0        5.462836   -3.047599   -1.366230
     50          6           0        6.317943   -4.215872   -0.833882
     51          6           0        6.121476   -1.731841   -1.582177
     52          6           0        6.351012   -1.241755   -3.072216
     53          6           0        7.742138   -0.736169   -3.389140
     54          6           0        7.755524    0.765777   -3.698197
     55          6           0        7.217782    1.227308   -5.102404
     56          6           0        9.125223    1.393845   -3.439825
     57          6           0        9.213252    2.502259   -2.394298
     58          6           0       10.427196    2.483017   -1.440666
     59          6           0       10.140151    1.820574   -0.017224
     60          6           0       10.200418    0.285115   -0.106723
     61          6           0       11.110802    2.343224    1.066808
     62          6           0       10.470948    2.336273    2.506825
     63          6           0       10.993043    1.217287    3.420787
     64          6           0       10.858604    1.470780    4.941347
     65          6           0       12.107205    0.958361    5.743634
     66          6           0        9.505158    0.800693    5.565759
     67          1           0       -0.166030    1.289541   -0.115394
     68          1           0       -5.189684    5.274366   -0.161956
     69          1           0       -9.177250    0.229509    0.593057
     70          1           0       -1.376957   -3.148652    1.042103
     71          1           0        0.204687   -1.125631   -0.143009
     72          1           0        1.036194   -1.013878    1.898584
     73          1           0       -0.375237   -1.883301    2.507103
     74          1           0       -0.433862   -0.111230    2.448696
     75          1           0       -0.700217   -2.381221   -1.826899
     76          1           0       -2.236688   -3.202468   -1.755620
     77          1           0       -1.290611   -5.261611   -1.509759
     78          1           0       -0.236901   -4.620060   -0.195040
     79          1           0        0.351851    4.761584    0.642675
     80          1           0        0.250707    4.241873   -1.115384
     81          1           0        0.583754    3.152383    0.193025
     82          1           0       -1.442643    7.817653   -0.749830
     83          1           0       -0.701332    6.377780   -1.407586
     84          1           0       -0.416079    6.821189    0.294047
     85          1           0       -7.753156    4.454809   -1.293237
     86          1           0       -9.170944    2.929418    0.741138
     87          1           0       -8.141089    6.186148    0.090869
     88          1           0       -7.344205    5.331287    1.555392
     89          1           0       -9.021824    5.156986    1.153975
     90          1           0       -9.255970    1.494123   -1.651975
     91          1           0       -9.125408    3.111896   -2.255433
     92          1           0      -11.425942    1.711224   -1.154995
     93          1           0      -11.332681    3.052450   -2.193419
     94          1           0      -11.184659    3.394376   -0.442291
     95          1           0       -9.085411   -2.152127    2.208354
     96          1           0       -9.197758   -3.538966    1.232948
     97          1           0       -9.802996   -1.945587    0.563187
     98          1           0       -3.885288   -4.299831   -0.389121
     99          1           0       -1.483830   -5.338825    3.010436
    100          1           0       -1.040749   -6.166192    1.526572
    101          1           0       -2.172159   -6.984508    2.591834
    102          1           0        3.180542   -4.821125   -2.773936
    103          1           0        3.615779   -5.107775   -1.016270
    104          1           0        3.747708   -2.335023   -2.137098
    105          1           0        6.615774   -4.006335    0.194007
    106          1           0        7.085634   -4.273340   -1.605366
    107          1           0        5.870210   -5.202197   -0.956340
    108          1           0        7.075307   -1.546377   -1.088847
    109          1           0        5.399095   -1.138611   -1.021434
    110          1           0        5.621577   -0.500428   -3.399259
    111          1           0        6.149469   -2.120101   -3.685733
    112          1           0        7.960476   -1.219123   -4.341413
    113          1           0        8.526687   -1.119196   -2.736114
    114          1           0        7.071652    1.224524   -2.983581
    115          1           0        7.946523    1.791764   -5.685235
    116          1           0        6.304790    1.806405   -4.962900
    117          1           0        6.903979    0.330348   -5.636592
    118          1           0        9.527587    1.719358   -4.398713
    119          1           0        9.764877    0.581897   -3.092629
    120          1           0        8.285177    2.548873   -1.825509
    121          1           0        9.324810    3.392773   -3.014224
    122          1           0       10.908736    3.449459   -1.587941
    123          1           0       11.185496    1.794391   -1.811020
    124          1           0        9.144662    2.112125    0.315632
    125          1           0        9.239541   -0.212761    0.018045
    126          1           0       10.869503   -0.190672    0.610900
    127          1           0       10.504272   -0.043780   -1.100801
    128          1           0       11.242719    3.412000    0.896090
    129          1           0       12.078623    1.843539    1.023701
    130          1           0        9.384607    2.384060    2.437079
    131          1           0       10.812286    3.253052    2.987955
    132          1           0       12.036300    0.997053    3.196601
    133          1           0       10.438972    0.334134    3.102779
    134          1           0       10.703803    2.546918    5.029410
    135          1           0       12.614297    0.278739    5.059793
    136          1           0       11.901010    0.359080    6.630595
    137          1           0       12.675122    1.835174    6.054020
    138          1           0        8.596377    1.322812    5.265937
    139          1           0        9.584219    0.804275    6.653289
    140          1           0        9.373047   -0.227216    5.226657
 ---------------------------------------------------------------------

 SCF Done:  E(RZINDO/S) =  -474.396833232     A.U. after   19 cycles

 Excitation energies and oscillator strengths:

 Excited State   1:      Singlet-A      1.2268 eV 1010.66 nm  f=0.6054  <S**2>=0.000
     175 ->178         0.19094
     176 ->177         0.66241
 This state for optimization and/or second-order correction.
 Total Energy, E(CIS/TDA) =  -474.351750551
 Copying the excited state density for this state as the 1-particle RhoCI density.

 Excited State   2:      Singlet-A      1.8861 eV  657.36 nm  f=0.1050  <S**2>=0.000
     175 ->177         0.58085
     176 ->178        -0.37064

 Excited State   3:      Singlet-A      2.9946 eV  414.02 nm  f=0.0010  <S**2>=0.000
     168 ->177         0.33470
     168 ->178        -0.21245
     168 ->179        -0.39780
     168 ->180         0.14459
     168 ->182        -0.16838
     168 ->186        -0.18163
     169 ->177         0.10951
     169 ->179        -0.12058

 Excited State   4:      Singlet-A      2.9980 eV  413.56 nm  f=0.7283  <S**2>=0.000
     175 ->177         0.28733
     176 ->178         0.52116
     176 ->179         0.30348

 Excited State   5:      Singlet-A      3.1101 eV  398.65 nm  f=0.0040  <S**2>=0.000
     168 ->180        -0.12286
     169 ->177         0.22839
     169 ->179         0.28562
     169 ->180         0.37058
     169 ->181         0.15023
     169 ->182        -0.19355
     169 ->186         0.20753
     169 ->187        -0.16448

 The electronic state is 1-A.
 Alpha  occ. eigenvalues --   -1.86265  -1.83244  -1.81577  -1.73233  -1.73048
 Alpha  occ. eigenvalues --   -1.71265  -1.65381  -1.60164  -1.59398  -1.58582
 Alpha  occ. eigenvalues --   -1.54403  -1.50462  -1.49146  -1.48028  -1.45948
 Alpha  occ. eigenvalues --   -1.44628  -1.43294  -1.41014  -1.39823  -1.39745
 Alpha  occ. eigenvalues --   -1.37241  -1.34174  -1.32438  -1.31791  -1.29615
 Alpha  occ. eigenvalues --   -1.25850  -1.25635  -1.21878  -1.20916  -1.19252
 Alpha  occ. eigenvalues --   -1.17604  -1.16518  -1.15405  -1.15233  -1.14578
 Alpha  occ. eigenvalues --   -1.13177  -1.11191  -1.10814  -1.05423  -1.03924
 Alpha  occ. eigenvalues --   -1.02007  -1.01840  -0.99478  -0.98499  -0.96222
 Alpha  occ. eigenvalues --   -0.95791  -0.94748  -0.94030  -0.93835  -0.93125
 Alpha  occ. eigenvalues --   -0.91057  -0.90792  -0.88801  -0.88583  -0.87494
 Alpha  occ. eigenvalues --   -0.86347  -0.84465  -0.83211  -0.81492  -0.80328
 Alpha  occ. eigenvalues --   -0.79531  -0.78165  -0.77744  -0.76939  -0.76365
 Alpha  occ. eigenvalues --   -0.76220  -0.75274  -0.74850  -0.74540  -0.73979
 Alpha  occ. eigenvalues --   -0.73279  -0.72412  -0.71649  -0.71171  -0.70585
 Alpha  occ. eigenvalues --   -0.70405  -0.69425  -0.69021  -0.68869  -0.67913
 Alpha  occ. eigenvalues --   -0.67620  -0.67426  -0.67128  -0.66918  -0.66344
 Alpha  occ. eigenvalues --   -0.65709  -0.65313  -0.64071  -0.63953  -0.63647
 Alpha  occ. eigenvalues --   -0.63279  -0.62941  -0.62675  -0.62410  -0.61932
 Alpha  occ. eigenvalues --   -0.61591  -0.61253  -0.60718  -0.60390  -0.59872
 Alpha  occ. eigenvalues --   -0.59571  -0.59004  -0.58820  -0.58468  -0.58061
 Alpha  occ. eigenvalues --   -0.57705  -0.57680  -0.57446  -0.56980  -0.56877
 Alpha  occ. eigenvalues --   -0.56116  -0.55670  -0.55415  -0.55288  -0.54992
 Alpha  occ. eigenvalues --   -0.54898  -0.54306  -0.53772  -0.53427  -0.53078
 Alpha  occ. eigenvalues --   -0.53002  -0.52652  -0.52278  -0.51978  -0.51245
 Alpha  occ. eigenvalues --   -0.51178  -0.50722  -0.50505  -0.50191  -0.50096
 Alpha  occ. eigenvalues --   -0.50033  -0.49651  -0.49628  -0.49380  -0.49170
 Alpha  occ. eigenvalues --   -0.48700  -0.48515  -0.48257  -0.47938  -0.47603
 Alpha  occ. eigenvalues --   -0.47287  -0.47209  -0.46981  -0.46860  -0.46687
 Alpha  occ. eigenvalues --   -0.46431  -0.46134  -0.45776  -0.45747  -0.45604
 Alpha  occ. eigenvalues --   -0.45290  -0.44997  -0.44875  -0.44590  -0.44516
 Alpha  occ. eigenvalues --   -0.43494  -0.43460  -0.42854  -0.42318  -0.42226
 Alpha  occ. eigenvalues --   -0.41972  -0.41706  -0.41491  -0.39014  -0.38858
 Alpha  occ. eigenvalues --   -0.38186  -0.37400  -0.35589  -0.35436  -0.34779
 Alpha  occ. eigenvalues --   -0.33587  -0.32739  -0.32369  -0.32045  -0.26269
 Alpha  occ. eigenvalues --   -0.21882
 Alpha virt. eigenvalues --   -0.08740  -0.01738  -0.00308   0.01359   0.01700
 Alpha virt. eigenvalues --    0.01893   0.02763   0.03057   0.04613   0.04801
 Alpha virt. eigenvalues --    0.06126   0.07214   0.07683   0.07768   0.08087

 Mulliken charges:
               1
     1  Mg   0.425259
     2  C   -0.028207
     3  C   -0.090984
     4  C   -0.061010
     5  C   -0.078888
     6  N   -0.292610
     7  C    0.124012
     8  C    0.003529
     9  C    0.007150
    10  C    0.120294
    11  C   -0.046723
    12  C   -0.013029
    13  C    0.009046
    14  C    0.464469
    15  O   -0.522847
    16  O   -0.282458
    17  N   -0.317003
    18  C    0.108021
    19  C    0.009702
    20  C   -0.056429
    21  C    0.132857
    22  C   -0.041447
    23  C    0.324805
    24  O   -0.508150
    25  C   -0.035795
    26  N   -0.279381
    27  C    0.131312
    28  C   -0.002583
    29  C    0.014376
    30  C    0.131865
    31  C   -0.048066
    32  C   -0.030460
    33  C   -0.062237
    34  N   -0.310509
    35  C    0.106297
    36  C    0.024009
    37  C   -0.032716
    38  C    0.105274
    39  C   -0.037195
    40  C    0.334781
    41  O   -0.510236
    42  C    0.051417
    43  C    0.500965
    44  O   -0.535695
    45  O   -0.276733
    46  C    0.075533
    47  C    0.108768
    48  C   -0.102604
    49  C    0.010621
    50  C   -0.053370
    51  C   -0.022566
    52  C   -0.029718
    53  C   -0.029123
    54  C   -0.010928
    55  C   -0.058515
    56  C   -0.037571
    57  C   -0.035886
    58  C   -0.045482
    59  C   -0.002060
    60  C   -0.056822
    61  C   -0.037311
    62  C   -0.040053
    63  C   -0.031427
    64  C   -0.018552
    65  C   -0.058841
    66  C   -0.064739
    67  H    0.021874
    68  H    0.033330
    69  H    0.037649
    70  H    0.037324
    71  H    0.023989
    72  H    0.023284
    73  H    0.020477
    74  H    0.033844
    75  H    0.036105
    76  H    0.029508
    77  H    0.052198
    78  H    0.033373
    79  H    0.031401
    80  H    0.032593
    81  H    0.015424
    82  H    0.029451
    83  H    0.034932
    84  H    0.043325
    85  H    0.033217
    86  H    0.022659
    87  H    0.028394
    88  H    0.036624
    89  H    0.013277
    90  H    0.016604
    91  H    0.021731
    92  H    0.022659
    93  H    0.014881
    94  H    0.026265
    95  H    0.033871
    96  H    0.035239
    97  H    0.032430
    98  H    0.054470
    99  H    0.054150
   100  H    0.021702
   101  H    0.046900
   102  H    0.073286
   103  H    0.034155
   104  H    0.011346
   105  H    0.038609
   106  H    0.027719
   107  H    0.021555
   108  H    0.020793
   109  H    0.023413
   110  H    0.025547
   111  H    0.014739
   112  H    0.007223
   113  H    0.029978
   114  H    0.012152
   115  H    0.028561
   116  H    0.017155
   117  H    0.016612
   118  H    0.018416
   119  H    0.010776
   120  H    0.023124
   121  H    0.011677
   122  H    0.027535
   123  H    0.010982
   124  H    0.021290
   125  H    0.012510
   126  H    0.020205
   127  H    0.017783
   128  H    0.009097
   129  H    0.028477
   130  H    0.026718
   131  H    0.010222
   132  H    0.018714
   133  H    0.013693
   134  H    0.023146
   135  H    0.022450
   136  H    0.020622
   137  H    0.023155
   138  H    0.016513
   139  H    0.018653
   140  H    0.018846
 Sum of Mulliken charges =  -0.00000

 Dipole moment (field-independent basis, Debye):
    X=              6.1387    Y=              1.5053    Z=             -2.0731  Tot=              6.6519
 N-N= 4.372289676807D+03 E-N= 0.000000000000D+00  KE=-9.418494399817D+03
 Leave Link  601 at Wed Apr 27 15:19:02 2022, MaxMem=  6710886400 cpu:               2.7 elap:               0.1
 (Enter /sw/apps/gaussian-16.0/g16/l9999.exe)
 1\1\GINC-BP1-COMPUTE137\SP\RZINDO CIS\STO-3G\C55H74Mg1N4O6\OF15641\27-
 Apr-2022\0\\#p ZINDO=(nstates=5)\\step_1201_chromophore_27 ZINDO\\0,1\
 Mg,0,-5.163,25.202,26.714\C,0,-3.514,27.072,29.229\C,0,-6.18,23.087,29
 .337\C,0,-6.464,23.177,24.492\C,0,-3.573,27.071,24.282\N,0,-4.851,25.1
 49,29.014\C,0,-4.231,26.02,29.841\C,0,-4.502,25.738,31.314\C,0,-5.022,
 24.237,31.223\C,0,-5.451,24.183,29.819\C,0,-4.036,23.092,31.592\C,0,-5
 .553,26.779,31.892\C,0,-5.16,27.363,33.271\C,0,-6.206,27.083,34.375\O,

 Normal termination of Gaussian 16 at Wed Apr 27 15:19:02 2022.
