 Gaussian 16, Revision A.03,
 Gaussian 16:  ES64L-G16RevA.03 25-Dec-2016

 ------------------------------
 #p blyp/Def2SVP td=(nstates=5)
 ------------------------------

 --------------------------------------------------
 step_151_chromophore_16 TDDFT with blyp functional
 --------------------------------------------------
 Symbolic Z-matrix:
 Charge =  0 Multiplicity = 1

                         Standard orientation:
 ---------------------------------------------------------------------
 Center     Atomic      Atomic             Coordinates (Angstroms)
 Number     Number       Type             X           Y           Z
 ---------------------------------------------------------------------
      1         12           0        6.132089    0.565371    0.086231
      2          6           0        3.717795   -2.141099   -0.097500
      3          6           0        3.502903    2.760973   -0.428541
      4          6           0        8.278104    2.910700    0.040359
      5          6           0        8.552190   -1.909115    0.379402
      6          7           0        3.832738    0.231548   -0.287532
      7          6           0        3.101345   -0.853941   -0.179087
      8          6           0        1.602036   -0.563290   -0.302378
      9          6           0        1.601562    0.948934   -0.632749
     10          6           0        3.063565    1.412799   -0.452242
     11          6           0        0.786349    1.364041   -1.956220
     12          6           0        0.787608   -1.054266    0.965074
     13          6           0       -0.639103   -0.602633    1.116926
     14          6           0       -1.694609   -1.771852    0.981057
     15          8           0       -1.833319   -2.770566    1.687237
     16          8           0       -2.395593   -1.491058   -0.123323
     17          7           0        5.915467    2.535981   -0.230059
     18          6           0        4.799501    3.280833   -0.239544
     19          6           0        5.175605    4.682884   -0.350735
     20          6           0        6.594686    4.755589   -0.262949
     21          6           0        6.962764    3.342435   -0.203089
     22          6           0        4.231216    5.797014   -0.502475
     23          6           0        7.533560    5.991086   -0.247902
     24          8           0        8.740503    5.916781   -0.215643
     25          6           0        6.996417    7.384086   -0.202249
     26          7           0        8.149069    0.448288    0.009464
     27          6           0        8.812511    1.665659    0.136713
     28          6           0       10.289453    1.406552    0.517417
     29          6           0       10.348988   -0.142719    0.757244
     30          6           0        8.941228   -0.531175    0.432597
     31          6           0       11.358441    1.945043   -0.403275
     32          6           0       10.838064   -0.609994    2.159988
     33          6           0        9.816605   -0.928817    3.310158
     34          7           0        6.127858   -1.599624    0.098082
     35          6           0        7.203702   -2.466644    0.220147
     36          6           0        6.764530   -3.821357    0.197937
     37          6           0        5.364157   -3.747458    0.032649
     38          6           0        5.092487   -2.379305    0.068467
     39          6           0        7.668577   -4.956702    0.184767
     40          6           0        4.194085   -4.526566   -0.128237
     41          8           0        3.962423   -5.724331   -0.326380
     42          6           0        3.039304   -3.470908   -0.184949
     43          6           0        2.412281   -3.553313   -1.505842
     44          8           0        3.025306   -3.590277   -2.516660
     45          8           0        1.006268   -3.690429   -1.398751
     46          6           0        0.273338   -3.763953   -2.684976
     47          6           0       -3.360278   -2.520755   -0.590986
     48          6           0       -4.828499   -2.104525   -0.108998
     49          6           0       -5.831785   -2.900621    0.403287
     50          6           0       -5.912322   -4.435493    0.442316
     51          6           0       -6.973348   -2.277533    1.021398
     52          6           0       -7.988636   -1.570774    0.147888
     53          6           0       -8.676856   -0.371201    0.776461
     54          6           0       -8.802468    0.729466   -0.366402
     55          6           0       -7.813047    1.856430   -0.018190
     56          6           0      -10.227503    1.339916   -0.556391
     57          6           0      -11.113931    0.253382   -1.183372
     58          6           0      -11.841706    0.812697   -2.415477
     59          6           0      -13.340317    1.141021   -2.100204
     60          6           0      -14.123121    1.448037   -3.514926
     61          6           0      -13.573054    2.222947   -1.048659
     62          6           0      -14.485787    1.807796    0.105588
     63          6           0      -14.126258    2.274195    1.568716
     64          6           0      -14.378068    1.185753    2.604187
     65          6           0      -13.440136    1.371456    3.832282
     66          6           0      -15.865153    1.176433    3.123609
     67          1           0        2.681743    3.474507   -0.515704
     68          1           0        9.030741    3.666107    0.278731
     69          1           0        9.318357   -2.684974    0.324226
     70          1           0        1.213034   -1.072654   -1.184277
     71          1           0        1.087661    1.476417    0.169957
     72          1           0        1.234148    2.285902   -2.327854
     73          1           0       -0.254934    1.650078   -1.804968
     74          1           0        0.677198    0.489886   -2.597896
     75          1           0        1.478194   -0.737858    1.747876
     76          1           0        0.777672   -2.143823    0.999253
     77          1           0       -0.954898    0.093386    0.339452
     78          1           0       -0.733956    0.021874    2.004472
     79          1           0        4.471056    6.356714   -1.406544
     80          1           0        4.238864    6.540239    0.294647
     81          1           0        3.154298    5.633789   -0.522439
     82          1           0        6.531405    7.643493   -1.153201
     83          1           0        7.819160    8.056413    0.040236
     84          1           0        6.327063    7.637024    0.621165
     85          1           0       10.411440    1.852826    1.504559
     86          1           0       11.007517   -0.616927    0.029100
     87          1           0       10.878054    2.318842   -1.307653
     88          1           0       12.081087    1.180929   -0.689712
     89          1           0       11.953038    2.719522    0.081148
     90          1           0       11.480626    0.195882    2.517232
     91          1           0       11.476991   -1.489330    2.075752
     92          1           0        9.820970   -2.000834    3.508110
     93          1           0        8.845456   -0.661187    2.892221
     94          1           0       10.116720   -0.333864    4.172878
     95          1           0        8.696453   -4.750570   -0.112562
     96          1           0        7.385216   -5.604200   -0.644662
     97          1           0        7.599733   -5.357523    1.196961
     98          1           0        2.308026   -3.786006    0.558971
     99          1           0        0.275291   -4.814191   -2.976544
    100          1           0        0.767053   -3.160140   -3.446167
    101          1           0       -0.710449   -3.301043   -2.611598
    102          1           0       -3.156001   -3.511774   -0.187033
    103          1           0       -3.339656   -2.605095   -1.676933
    104          1           0       -4.915206   -1.022298   -0.009653
    105          1           0       -6.878847   -4.701213    0.013063
    106          1           0       -5.865485   -4.811318    1.464672
    107          1           0       -5.110465   -5.020873   -0.006765
    108          1           0       -6.500017   -1.630956    1.761213
    109          1           0       -7.429758   -2.890395    1.799095
    110          1           0       -8.738103   -2.360582    0.108320
    111          1           0       -7.606262   -1.520962   -0.871127
    112          1           0       -8.103924    0.020853    1.616371
    113          1           0       -9.692973   -0.631973    1.074329
    114          1           0       -8.487653    0.316939   -1.324800
    115          1           0       -8.340479    2.757635    0.292243
    116          1           0       -7.161786    2.052695   -0.869784
    117          1           0       -7.128359    1.661660    0.807405
    118          1           0      -10.177743    2.281493   -1.102855
    119          1           0      -10.660980    1.745645    0.357306
    120          1           0      -11.875219    0.010905   -0.441593
    121          1           0      -10.636952   -0.653427   -1.554969
    122          1           0      -11.824706    0.080967   -3.223291
    123          1           0      -11.338102    1.701461   -2.795614
    124          1           0      -13.747751    0.174218   -1.803362
    125          1           0      -15.078560    0.924174   -3.552412
    126          1           0      -13.538251    1.180247   -4.393999
    127          1           0      -14.309584    2.521394   -3.555945
    128          1           0      -14.169390    3.034797   -1.466092
    129          1           0      -12.589060    2.543220   -0.706041
    130          1           0      -14.527534    0.721383    0.024362
    131          1           0      -15.413869    2.159160   -0.344329
    132          1           0      -14.790757    3.100416    1.821217
    133          1           0      -13.058772    2.495257    1.601901
    134          1           0      -14.072368    0.216145    2.211767
    135          1           0      -13.105907    2.388659    4.038047
    136          1           0      -12.522159    0.894374    3.486929
    137          1           0      -13.697750    0.943411    4.800537
    138          1           0      -16.318387    0.231197    2.824225
    139          1           0      -16.432585    1.936327    2.585827
    140          1           0      -15.968202    1.435879    4.177777
 ---------------------------------------------------------------------

 SCF Done:  E(RB-LYP) =  -3007.33460760     A.U. after   20 cycles

 Excitation energies and oscillator strengths:

 Excited State   1:      Singlet-A      1.8006 eV  688.59 nm  f=0.2688  <S**2>=0.000
     245 -> 248        0.19225
     246 -> 247        0.68336
     246 <- 247       -0.14113
 This state for optimization and/or second-order correction.
 Total Energy, E(TD-HF/TD-DFT) =  -3007.26843845
 Copying the excited state density for this state as the 1-particle RhoCI density.

 Excited State   2:      Singlet-A      1.8625 eV  665.70 nm  f=0.0117  <S**2>=0.000
     244 -> 247        0.67353
     245 -> 247        0.20159

 Excited State   3:      Singlet-A      1.9687 eV  629.78 nm  f=0.1029  <S**2>=0.000
     243 -> 247       -0.16361
     244 -> 247       -0.20729
     245 -> 247        0.61435
     246 -> 248       -0.19162

 Excited State   4:      Singlet-A      2.0847 eV  594.74 nm  f=0.0077  <S**2>=0.000
     243 -> 247        0.68534
     245 -> 247        0.14685

 Excited State   5:      Singlet-A      2.2236 eV  557.58 nm  f=0.0000  <S**2>=0.000
     242 -> 247        0.70708

 The electronic state is 1-A.
 Alpha  occ. eigenvalues --  -46.27530 -18.83193 -18.81101 -18.76681 -18.76515
 Alpha  occ. eigenvalues --  -18.75990 -18.75186 -14.03128 -14.03066 -14.01543
 Alpha  occ. eigenvalues --  -14.00393 -10.04359 -10.02945 -10.00457  -9.98898
 Alpha  occ. eigenvalues --   -9.98779  -9.97345  -9.96792  -9.96696  -9.96406
 Alpha  occ. eigenvalues --   -9.95869  -9.95652  -9.95534  -9.95342  -9.94035
 Alpha  occ. eigenvalues --   -9.93871  -9.93799  -9.93692  -9.93559  -9.93494
 Alpha  occ. eigenvalues --   -9.93406  -9.93379  -9.93341  -9.93305  -9.93200
 Alpha  occ. eigenvalues --   -9.92943  -9.92871  -9.92864  -9.92824  -9.92714
 Alpha  occ. eigenvalues --   -9.92699  -9.92560  -9.92422  -9.92399  -9.92251
 Alpha  occ. eigenvalues --   -9.92104  -9.92075  -9.92035  -9.91947  -9.91908
 Alpha  occ. eigenvalues --   -9.91803  -9.91755  -9.91630  -9.91533  -9.91500
 Alpha  occ. eigenvalues --   -9.91319  -9.91160  -9.91043  -9.90972  -9.90901
 Alpha  occ. eigenvalues --   -9.90867  -9.90829  -9.90825  -9.90776  -9.90684
 Alpha  occ. eigenvalues --   -9.90543  -2.92244  -1.72654  -1.72135  -1.71963
 Alpha  occ. eigenvalues --   -0.98628  -0.97133  -0.92808  -0.90260  -0.89776
 Alpha  occ. eigenvalues --   -0.89578  -0.87767  -0.87284  -0.86340  -0.85351
 Alpha  occ. eigenvalues --   -0.75676  -0.74241  -0.73100  -0.72468  -0.72314
 Alpha  occ. eigenvalues --   -0.72147  -0.71971  -0.71197  -0.70822  -0.70677
 Alpha  occ. eigenvalues --   -0.70407  -0.68873  -0.67989  -0.67279  -0.66976
 Alpha  occ. eigenvalues --   -0.66330  -0.65769  -0.65245  -0.64894  -0.64125
 Alpha  occ. eigenvalues --   -0.63800  -0.62986  -0.62292  -0.61900  -0.60888
 Alpha  occ. eigenvalues --   -0.60719  -0.60209  -0.60038  -0.59489  -0.58957
 Alpha  occ. eigenvalues --   -0.58432  -0.57920  -0.56870  -0.55400  -0.55004
 Alpha  occ. eigenvalues --   -0.54047  -0.53736  -0.53161  -0.52874  -0.51450
 Alpha  occ. eigenvalues --   -0.51228  -0.51000  -0.50700  -0.50224  -0.50169
 Alpha  occ. eigenvalues --   -0.49486  -0.49349  -0.48696  -0.47849  -0.47485
 Alpha  occ. eigenvalues --   -0.46453  -0.46022  -0.45683  -0.44968  -0.44499
 Alpha  occ. eigenvalues --   -0.44379  -0.44015  -0.43225  -0.42908  -0.42434
 Alpha  occ. eigenvalues --   -0.42221  -0.42142  -0.41861  -0.41498  -0.40896
 Alpha  occ. eigenvalues --   -0.40814  -0.40517  -0.40312  -0.40093  -0.40014
 Alpha  occ. eigenvalues --   -0.39893  -0.39619  -0.39477  -0.39378  -0.39179
 Alpha  occ. eigenvalues --   -0.39041  -0.38665  -0.38529  -0.38497  -0.38402
 Alpha  occ. eigenvalues --   -0.38220  -0.38028  -0.37789  -0.37707  -0.37339
 Alpha  occ. eigenvalues --   -0.37179  -0.37070  -0.36744  -0.36451  -0.36361
 Alpha  occ. eigenvalues --   -0.36181  -0.36113  -0.35800  -0.35747  -0.35662
 Alpha  occ. eigenvalues --   -0.35331  -0.35230  -0.34988  -0.34882  -0.34810
 Alpha  occ. eigenvalues --   -0.34725  -0.34616  -0.34313  -0.34165  -0.34045
 Alpha  occ. eigenvalues --   -0.33892  -0.33593  -0.33294  -0.33260  -0.32992
 Alpha  occ. eigenvalues --   -0.32866  -0.32714  -0.32646  -0.32568  -0.32192
 Alpha  occ. eigenvalues --   -0.31983  -0.31894  -0.31737  -0.31687  -0.31549
 Alpha  occ. eigenvalues --   -0.31451  -0.31055  -0.30869  -0.30655  -0.30573
 Alpha  occ. eigenvalues --   -0.30353  -0.30214  -0.29997  -0.29783  -0.29740
 Alpha  occ. eigenvalues --   -0.29479  -0.29302  -0.29251  -0.29149  -0.28909
 Alpha  occ. eigenvalues --   -0.28794  -0.28366  -0.28300  -0.27910  -0.27882
 Alpha  occ. eigenvalues --   -0.27778  -0.27333  -0.27016  -0.26806  -0.26755
 Alpha  occ. eigenvalues --   -0.26230  -0.26216  -0.25864  -0.25469  -0.25300
 Alpha  occ. eigenvalues --   -0.25218  -0.24703  -0.24290  -0.23619  -0.23535
 Alpha  occ. eigenvalues --   -0.23344  -0.22236  -0.21722  -0.21666  -0.21221
 Alpha  occ. eigenvalues --   -0.20683  -0.19726  -0.19122  -0.18284  -0.16891
 Alpha  occ. eigenvalues --   -0.15906
 Alpha virt. eigenvalues --   -0.11554  -0.06812  -0.06056  -0.04658  -0.02924
 Alpha virt. eigenvalues --   -0.02629  -0.02465  -0.01530  -0.01354   0.00293
 Alpha virt. eigenvalues --    0.01159   0.01308   0.01506   0.02271   0.02617

 Mulliken charges:
               1
     1  Mg   0.695988
     2  C   -0.016379
     3  C   -0.064184
     4  C   -0.054385
     5  C   -0.062490
     6  N   -0.168195
     7  C   -0.126145
     8  C    0.030008
     9  C    0.020752
    10  C    0.015378
    11  C    0.115885
    12  C    0.105091
    13  C    0.131606
    14  C    0.087256
    15  O   -0.193150
    16  O   -0.248104
    17  N   -0.268000
    18  C    0.123012
    19  C   -0.112228
    20  C    0.024598
    21  C    0.113193
    22  C    0.156046
    23  C   -0.052024
    24  O   -0.146254
    25  C    0.117972
    26  N   -0.260149
    27  C    0.016962
    28  C    0.030324
    29  C    0.062700
    30  C    0.004132
    31  C    0.151613
    32  C    0.042952
    33  C    0.078092
    34  N   -0.174926
    35  C    0.067735
    36  C   -0.162776
    37  C    0.079377
    38  C    0.090484
    39  C    0.170264
    40  C   -0.065343
    41  O   -0.136324
    42  C    0.087535
    43  C    0.072062
    44  O   -0.131331
    45  O   -0.312123
    46  C    0.213004
    47  C    0.284095
    48  C   -0.122466
    49  C   -0.110185
    50  C    0.131587
    51  C    0.089821
    52  C    0.105396
    53  C    0.147799
    54  C   -0.093590
    55  C    0.107901
    56  C    0.071559
    57  C    0.099659
    58  C    0.070889
    59  C   -0.106116
    60  C    0.080777
    61  C    0.131159
    62  C    0.031149
    63  C    0.151311
    64  C   -0.106679
    65  C    0.075655
    66  C    0.115728
    67  H   -0.064097
    68  H   -0.048338
    69  H   -0.063945
    70  H   -0.026250
    71  H   -0.033767
    72  H   -0.008069
    73  H   -0.013831
    74  H   -0.001749
    75  H   -0.032141
    76  H    0.008395
    77  H   -0.019036
    78  H   -0.004827
    79  H   -0.004706
    80  H   -0.009865
    81  H   -0.024692
    82  H    0.010445
    83  H   -0.011934
    84  H    0.001128
    85  H   -0.027344
    86  H   -0.022665
    87  H    0.001839
    88  H   -0.018207
    89  H   -0.005678
    90  H   -0.026757
    91  H   -0.024184
    92  H   -0.002269
    93  H    0.006813
    94  H   -0.000608
    95  H   -0.020357
    96  H    0.014004
    97  H    0.017646
    98  H    0.001663
    99  H    0.026950
   100  H    0.008643
   101  H    0.010233
   102  H    0.011718
   103  H    0.008402
   104  H   -0.029809
   105  H    0.001318
   106  H    0.004048
   107  H   -0.019345
   108  H   -0.030775
   109  H   -0.050908
   110  H   -0.034439
   111  H   -0.019421
   112  H   -0.020136
   113  H   -0.030768
   114  H   -0.027655
   115  H   -0.022270
   116  H   -0.020178
   117  H   -0.027029
   118  H   -0.025229
   119  H   -0.032668
   120  H   -0.026306
   121  H   -0.019541
   122  H   -0.043935
   123  H   -0.030571
   124  H   -0.031462
   125  H   -0.012589
   126  H   -0.017334
   127  H   -0.019827
   128  H   -0.033559
   129  H   -0.038124
   130  H   -0.036482
   131  H   -0.035040
   132  H   -0.023501
   133  H   -0.026945
   134  H   -0.027778
   135  H   -0.021440
   136  H   -0.027725
   137  H   -0.011415
   138  H   -0.010867
   139  H   -0.029690
   140  H   -0.008122
 Sum of Mulliken charges =  -0.00000

 Dipole moment (field-independent basis, Debye):
    X=             -2.4332    Y=              4.2028    Z=              1.0222  Tot=              4.9627
 Quadrupole moment (field-independent basis, Debye-Ang):
   XX=           -373.5394   YY=           -427.2493   ZZ=           -407.9989
   XY=              1.9414   XZ=             21.6595   YZ=              3.5137

 Normal termination of Gaussian 16 at Wed May  4 09:12:13 2022.
