 Gaussian 16, Revision A.03,
 Gaussian 16:  ES64L-G16RevA.03 25-Dec-2016

 -----------------------------------
 #p cam-b3lyp/Def2SVP td=(nstates=5)
 -----------------------------------

 -------------------------------------------------------
 step_151_chromophore_16 TDDFT with cam-b3lyp functional
 -------------------------------------------------------
 Symbolic Z-matrix:
 Charge =  0 Multiplicity = 1

                         Standard orientation:
 ---------------------------------------------------------------------
 Center     Atomic      Atomic             Coordinates (Angstroms)
 Number     Number       Type             X           Y           Z
 ---------------------------------------------------------------------
      1         12           0        6.132089    0.565371    0.086231
      2          6           0        3.717795   -2.141099   -0.097500
      3          6           0        3.502903    2.760973   -0.428541
      4          6           0        8.278104    2.910700    0.040359
      5          6           0        8.552190   -1.909115    0.379402
      6          7           0        3.832738    0.231548   -0.287532
      7          6           0        3.101345   -0.853941   -0.179087
      8          6           0        1.602036   -0.563290   -0.302378
      9          6           0        1.601562    0.948934   -0.632749
     10          6           0        3.063565    1.412799   -0.452242
     11          6           0        0.786349    1.364041   -1.956220
     12          6           0        0.787608   -1.054266    0.965074
     13          6           0       -0.639103   -0.602633    1.116926
     14          6           0       -1.694609   -1.771852    0.981057
     15          8           0       -1.833319   -2.770566    1.687237
     16          8           0       -2.395593   -1.491058   -0.123323
     17          7           0        5.915467    2.535981   -0.230059
     18          6           0        4.799501    3.280833   -0.239544
     19          6           0        5.175605    4.682884   -0.350735
     20          6           0        6.594686    4.755589   -0.262949
     21          6           0        6.962764    3.342435   -0.203089
     22          6           0        4.231216    5.797014   -0.502475
     23          6           0        7.533560    5.991086   -0.247902
     24          8           0        8.740503    5.916781   -0.215643
     25          6           0        6.996417    7.384086   -0.202249
     26          7           0        8.149069    0.448288    0.009464
     27          6           0        8.812511    1.665659    0.136713
     28          6           0       10.289453    1.406552    0.517417
     29          6           0       10.348988   -0.142719    0.757244
     30          6           0        8.941228   -0.531175    0.432597
     31          6           0       11.358441    1.945043   -0.403275
     32          6           0       10.838064   -0.609994    2.159988
     33          6           0        9.816605   -0.928817    3.310158
     34          7           0        6.127858   -1.599624    0.098082
     35          6           0        7.203702   -2.466644    0.220147
     36          6           0        6.764530   -3.821357    0.197937
     37          6           0        5.364157   -3.747458    0.032649
     38          6           0        5.092487   -2.379305    0.068467
     39          6           0        7.668577   -4.956702    0.184767
     40          6           0        4.194085   -4.526566   -0.128237
     41          8           0        3.962423   -5.724331   -0.326380
     42          6           0        3.039304   -3.470908   -0.184949
     43          6           0        2.412281   -3.553313   -1.505842
     44          8           0        3.025306   -3.590277   -2.516660
     45          8           0        1.006268   -3.690429   -1.398751
     46          6           0        0.273338   -3.763953   -2.684976
     47          6           0       -3.360278   -2.520755   -0.590986
     48          6           0       -4.828499   -2.104525   -0.108998
     49          6           0       -5.831785   -2.900621    0.403287
     50          6           0       -5.912322   -4.435493    0.442316
     51          6           0       -6.973348   -2.277533    1.021398
     52          6           0       -7.988636   -1.570774    0.147888
     53          6           0       -8.676856   -0.371201    0.776461
     54          6           0       -8.802468    0.729466   -0.366402
     55          6           0       -7.813047    1.856430   -0.018190
     56          6           0      -10.227503    1.339916   -0.556391
     57          6           0      -11.113931    0.253382   -1.183372
     58          6           0      -11.841706    0.812697   -2.415477
     59          6           0      -13.340317    1.141021   -2.100204
     60          6           0      -14.123121    1.448037   -3.514926
     61          6           0      -13.573054    2.222947   -1.048659
     62          6           0      -14.485787    1.807796    0.105588
     63          6           0      -14.126258    2.274195    1.568716
     64          6           0      -14.378068    1.185753    2.604187
     65          6           0      -13.440136    1.371456    3.832282
     66          6           0      -15.865153    1.176433    3.123609
     67          1           0        2.681743    3.474507   -0.515704
     68          1           0        9.030741    3.666107    0.278731
     69          1           0        9.318357   -2.684974    0.324226
     70          1           0        1.213034   -1.072654   -1.184277
     71          1           0        1.087661    1.476417    0.169957
     72          1           0        1.234148    2.285902   -2.327854
     73          1           0       -0.254934    1.650078   -1.804968
     74          1           0        0.677198    0.489886   -2.597896
     75          1           0        1.478194   -0.737858    1.747876
     76          1           0        0.777672   -2.143823    0.999253
     77          1           0       -0.954898    0.093386    0.339452
     78          1           0       -0.733956    0.021874    2.004472
     79          1           0        4.471056    6.356714   -1.406544
     80          1           0        4.238864    6.540239    0.294647
     81          1           0        3.154298    5.633789   -0.522439
     82          1           0        6.531405    7.643493   -1.153201
     83          1           0        7.819160    8.056413    0.040236
     84          1           0        6.327063    7.637024    0.621165
     85          1           0       10.411440    1.852826    1.504559
     86          1           0       11.007517   -0.616927    0.029100
     87          1           0       10.878054    2.318842   -1.307653
     88          1           0       12.081087    1.180929   -0.689712
     89          1           0       11.953038    2.719522    0.081148
     90          1           0       11.480626    0.195882    2.517232
     91          1           0       11.476991   -1.489330    2.075752
     92          1           0        9.820970   -2.000834    3.508110
     93          1           0        8.845456   -0.661187    2.892221
     94          1           0       10.116720   -0.333864    4.172878
     95          1           0        8.696453   -4.750570   -0.112562
     96          1           0        7.385216   -5.604200   -0.644662
     97          1           0        7.599733   -5.357523    1.196961
     98          1           0        2.308026   -3.786006    0.558971
     99          1           0        0.275291   -4.814191   -2.976544
    100          1           0        0.767053   -3.160140   -3.446167
    101          1           0       -0.710449   -3.301043   -2.611598
    102          1           0       -3.156001   -3.511774   -0.187033
    103          1           0       -3.339656   -2.605095   -1.676933
    104          1           0       -4.915206   -1.022298   -0.009653
    105          1           0       -6.878847   -4.701213    0.013063
    106          1           0       -5.865485   -4.811318    1.464672
    107          1           0       -5.110465   -5.020873   -0.006765
    108          1           0       -6.500017   -1.630956    1.761213
    109          1           0       -7.429758   -2.890395    1.799095
    110          1           0       -8.738103   -2.360582    0.108320
    111          1           0       -7.606262   -1.520962   -0.871127
    112          1           0       -8.103924    0.020853    1.616371
    113          1           0       -9.692973   -0.631973    1.074329
    114          1           0       -8.487653    0.316939   -1.324800
    115          1           0       -8.340479    2.757635    0.292243
    116          1           0       -7.161786    2.052695   -0.869784
    117          1           0       -7.128359    1.661660    0.807405
    118          1           0      -10.177743    2.281493   -1.102855
    119          1           0      -10.660980    1.745645    0.357306
    120          1           0      -11.875219    0.010905   -0.441593
    121          1           0      -10.636952   -0.653427   -1.554969
    122          1           0      -11.824706    0.080967   -3.223291
    123          1           0      -11.338102    1.701461   -2.795614
    124          1           0      -13.747751    0.174218   -1.803362
    125          1           0      -15.078560    0.924174   -3.552412
    126          1           0      -13.538251    1.180247   -4.393999
    127          1           0      -14.309584    2.521394   -3.555945
    128          1           0      -14.169390    3.034797   -1.466092
    129          1           0      -12.589060    2.543220   -0.706041
    130          1           0      -14.527534    0.721383    0.024362
    131          1           0      -15.413869    2.159160   -0.344329
    132          1           0      -14.790757    3.100416    1.821217
    133          1           0      -13.058772    2.495257    1.601901
    134          1           0      -14.072368    0.216145    2.211767
    135          1           0      -13.105907    2.388659    4.038047
    136          1           0      -12.522159    0.894374    3.486929
    137          1           0      -13.697750    0.943411    4.800537
    138          1           0      -16.318387    0.231197    2.824225
    139          1           0      -16.432585    1.936327    2.585827
    140          1           0      -15.968202    1.435879    4.177777
 ---------------------------------------------------------------------

 SCF Done:  E(RCAM-B3LYP) =  -3007.13384741     A.U. after   16 cycles

 Excitation energies and oscillator strengths:

 Excited State   1:      Singlet-A      1.7404 eV  712.38 nm  f=0.3646  <S**2>=0.000
     245 -> 248        0.18240
     246 -> 247        0.68444
     245 <- 248        0.10504
 This state for optimization and/or second-order correction.
 Total Energy, E(TD-HF/TD-DFT) =  -3007.06988788
 Copying the excited state density for this state as the 1-particle RhoCI density.

 Excited State   2:      Singlet-A      2.1677 eV  571.97 nm  f=0.1620  <S**2>=0.000
     245 -> 247        0.65662
     246 -> 248       -0.25348

 Excited State   3:      Singlet-A      3.2809 eV  377.90 nm  f=0.0015  <S**2>=0.000
     240 -> 247       -0.15395
     241 -> 247        0.58623
     241 -> 249        0.26477
     241 -> 250        0.13638
     241 -> 251       -0.11216

 Excited State   4:      Singlet-A      3.4202 eV  362.51 nm  f=0.0493  <S**2>=0.000
     242 -> 247        0.31478
     243 -> 247        0.54121
     246 -> 248        0.29878

 Excited State   5:      Singlet-A      3.6095 eV  343.49 nm  f=0.7271  <S**2>=0.000
     240 -> 247        0.10921
     242 -> 247       -0.12824
     243 -> 247       -0.26233
     245 -> 247        0.25382
     246 -> 248        0.56521
     245 <- 247       -0.10421

 The electronic state is 1-A.
 Alpha  occ. eigenvalues --  -46.89105 -19.26086 -19.24188 -19.19843 -19.19605
 Alpha  occ. eigenvalues --  -19.18931 -19.18758 -14.42036 -14.41904 -14.39851
 Alpha  occ. eigenvalues --  -14.38944 -10.39649 -10.38522 -10.35357 -10.34577
 Alpha  occ. eigenvalues --  -10.32999 -10.31490 -10.31424 -10.31143 -10.31002
 Alpha  occ. eigenvalues --  -10.30106 -10.30039 -10.29628 -10.29260 -10.28479
 Alpha  occ. eigenvalues --  -10.28223 -10.27976 -10.27908 -10.27832 -10.27646
 Alpha  occ. eigenvalues --  -10.27643 -10.27608 -10.27516 -10.27377 -10.27193
 Alpha  occ. eigenvalues --  -10.27091 -10.27037 -10.26935 -10.26645 -10.26578
 Alpha  occ. eigenvalues --  -10.26519 -10.26446 -10.26431 -10.26107 -10.25992
 Alpha  occ. eigenvalues --  -10.25964 -10.25888 -10.25855 -10.25720 -10.25615
 Alpha  occ. eigenvalues --  -10.25431 -10.25352 -10.25337 -10.25301 -10.25295
 Alpha  occ. eigenvalues --  -10.25100 -10.25007 -10.24802 -10.24655 -10.24647
 Alpha  occ. eigenvalues --  -10.24584 -10.24546 -10.24485 -10.24409 -10.24275
 Alpha  occ. eigenvalues --  -10.24127  -3.17726  -1.92609  -1.92190  -1.92038
 Alpha  occ. eigenvalues --   -1.17069  -1.15951  -1.10994  -1.08891  -1.07921
 Alpha  occ. eigenvalues --   -1.07437  -1.05443  -1.05012  -1.03990  -1.03034
 Alpha  occ. eigenvalues --   -0.93105  -0.91140  -0.89922  -0.89167  -0.89106
 Alpha  occ. eigenvalues --   -0.88729  -0.88660  -0.88103  -0.87259  -0.87241
 Alpha  occ. eigenvalues --   -0.86895  -0.85152  -0.84211  -0.83453  -0.83240
 Alpha  occ. eigenvalues --   -0.82361  -0.81806  -0.81219  -0.80758  -0.79935
 Alpha  occ. eigenvalues --   -0.79612  -0.78639  -0.77928  -0.77423  -0.76317
 Alpha  occ. eigenvalues --   -0.76128  -0.75529  -0.75375  -0.74767  -0.74208
 Alpha  occ. eigenvalues --   -0.73502  -0.73051  -0.71812  -0.70168  -0.69711
 Alpha  occ. eigenvalues --   -0.68755  -0.68303  -0.67540  -0.67175  -0.65743
 Alpha  occ. eigenvalues --   -0.65176  -0.65111  -0.64823  -0.64241  -0.64183
 Alpha  occ. eigenvalues --   -0.63368  -0.63273  -0.62600  -0.61667  -0.60985
 Alpha  occ. eigenvalues --   -0.59936  -0.59742  -0.59327  -0.58571  -0.58060
 Alpha  occ. eigenvalues --   -0.57831  -0.57568  -0.56322  -0.55866  -0.55435
 Alpha  occ. eigenvalues --   -0.55405  -0.55249  -0.54850  -0.54788  -0.54059
 Alpha  occ. eigenvalues --   -0.53943  -0.53261  -0.53149  -0.52912  -0.52833
 Alpha  occ. eigenvalues --   -0.52558  -0.52446  -0.52166  -0.52142  -0.51763
 Alpha  occ. eigenvalues --   -0.51538  -0.51318  -0.51001  -0.50743  -0.50719
 Alpha  occ. eigenvalues --   -0.50650  -0.50325  -0.50135  -0.49927  -0.49823
 Alpha  occ. eigenvalues --   -0.49524  -0.49344  -0.49278  -0.49079  -0.48710
 Alpha  occ. eigenvalues --   -0.48492  -0.48219  -0.48043  -0.47780  -0.47736
 Alpha  occ. eigenvalues --   -0.47665  -0.47471  -0.47102  -0.46785  -0.46707
 Alpha  occ. eigenvalues --   -0.46521  -0.46501  -0.46205  -0.46003  -0.45851
 Alpha  occ. eigenvalues --   -0.45717  -0.45560  -0.45267  -0.44895  -0.44810
 Alpha  occ. eigenvalues --   -0.44661  -0.44445  -0.44230  -0.44178  -0.43924
 Alpha  occ. eigenvalues --   -0.43806  -0.43531  -0.43347  -0.43121  -0.43108
 Alpha  occ. eigenvalues --   -0.42978  -0.42556  -0.42356  -0.42255  -0.42000
 Alpha  occ. eigenvalues --   -0.41946  -0.41797  -0.41471  -0.41303  -0.40963
 Alpha  occ. eigenvalues --   -0.40891  -0.40606  -0.40512  -0.40263  -0.40060
 Alpha  occ. eigenvalues --   -0.39962  -0.39370  -0.39333  -0.38925  -0.38854
 Alpha  occ. eigenvalues --   -0.38767  -0.38155  -0.38023  -0.37808  -0.37598
 Alpha  occ. eigenvalues --   -0.36997  -0.36925  -0.36615  -0.36601  -0.36472
 Alpha  occ. eigenvalues --   -0.36051  -0.35735  -0.34748  -0.34590  -0.34433
 Alpha  occ. eigenvalues --   -0.33870  -0.33664  -0.32972  -0.31195  -0.30989
 Alpha  occ. eigenvalues --   -0.30732  -0.30473  -0.30143  -0.29311  -0.23562
 Alpha  occ. eigenvalues --   -0.21331
 Alpha virt. eigenvalues --   -0.08725  -0.01480   0.00394   0.02210   0.02428
 Alpha virt. eigenvalues --    0.04465   0.05284   0.05884   0.06262   0.06827
 Alpha virt. eigenvalues --    0.07234   0.07850   0.08371   0.08693   0.09028

 Mulliken charges:
               1
     1  Mg   0.829889
     2  C   -0.050016
     3  C   -0.069019
     4  C   -0.071076
     5  C   -0.069542
     6  N   -0.234628
     7  C   -0.076109
     8  C   -0.015361
     9  C   -0.036889
    10  C    0.027293
    11  C    0.063625
    12  C    0.053589
    13  C    0.062801
    14  C    0.166975
    15  O   -0.236162
    16  O   -0.313331
    17  N   -0.357847
    18  C    0.126860
    19  C   -0.121900
    20  C   -0.044427
    21  C    0.135147
    22  C    0.093839
    23  C    0.026396
    24  O   -0.188917
    25  C    0.036993
    26  N   -0.335429
    27  C    0.030584
    28  C   -0.025597
    29  C    0.007907
    30  C    0.023395
    31  C    0.088353
    32  C   -0.010402
    33  C    0.020385
    34  N   -0.265094
    35  C    0.074747
    36  C   -0.153450
    37  C    0.000792
    38  C    0.132300
    39  C    0.112494
    40  C    0.040827
    41  O   -0.172349
    42  C    0.006165
    43  C    0.165023
    44  O   -0.166009
    45  O   -0.376498
    46  C    0.176694
    47  C    0.255213
    48  C   -0.139524
    49  C   -0.135167
    50  C    0.072449
    51  C    0.029436
    52  C    0.043525
    53  C    0.093806
    54  C   -0.146197
    55  C    0.050934
    56  C    0.022787
    57  C    0.039425
    58  C    0.023699
    59  C   -0.161118
    60  C    0.027995
    61  C    0.074083
    62  C   -0.014559
    63  C    0.091977
    64  C   -0.163187
    65  C    0.017687
    66  C    0.054407
    67  H   -0.029825
    68  H   -0.007692
    69  H   -0.029684
    70  H    0.005321
    71  H    0.000320
    72  H    0.016341
    73  H    0.009739
    74  H    0.020082
    75  H    0.000614
    76  H    0.036028
    77  H    0.015624
    78  H    0.028744
    79  H    0.019867
    80  H    0.015115
    81  H    0.003552
    82  H    0.036343
    83  H    0.022472
    84  H    0.028645
    85  H    0.007906
    86  H    0.014427
    87  H    0.028320
    88  H    0.006165
    89  H    0.019019
    90  H    0.002489
    91  H    0.004539
    92  H    0.020774
    93  H    0.025933
    94  H    0.023595
    95  H    0.008392
    96  H    0.042269
    97  H    0.045315
    98  H    0.046175
    99  H    0.050344
   100  H    0.033492
   101  H    0.029146
   102  H    0.041851
   103  H    0.033925
   104  H    0.001828
   105  H    0.024112
   106  H    0.029032
   107  H    0.005647
   108  H   -0.000110
   109  H   -0.017059
   110  H   -0.005575
   111  H    0.009620
   112  H    0.007440
   113  H   -0.002139
   114  H    0.003303
   115  H    0.001892
   116  H    0.004044
   117  H   -0.003616
   118  H    0.003019
   119  H   -0.007898
   120  H   -0.000620
   121  H    0.008635
   122  H   -0.013417
   123  H   -0.002901
   124  H    0.000092
   125  H    0.010959
   126  H    0.006625
   127  H    0.002759
   128  H   -0.003696
   129  H   -0.013118
   130  H   -0.010314
   131  H   -0.007381
   132  H    0.005355
   133  H   -0.000422
   134  H    0.002711
   135  H    0.003178
   136  H   -0.004991
   137  H    0.013720
   138  H    0.012975
   139  H   -0.006050
   140  H    0.015991
 Sum of Mulliken charges =  -0.00000

 Dipole moment (field-independent basis, Debye):
    X=             -2.5113    Y=              3.9261    Z=              1.0876  Tot=              4.7858
 Quadrupole moment (field-independent basis, Debye-Ang):
   XX=           -373.0619   YY=           -423.9699   ZZ=           -407.9052
   XY=             -1.2198   XZ=             23.8090   YZ=              4.0034

 Normal termination of Gaussian 16 at Wed May  4 08:16:16 2022.
