 Gaussian 16, Revision A.03,
 Gaussian 16:  ES64L-G16RevA.03 25-Dec-2016

 ---------------------------------
 #p PBE1PBE/Def2SVP td=(nstates=5)
 ---------------------------------

 -----------------------------------------------------
 step_151_chromophore_16 TDDFT with PBE1PBE functional
 -----------------------------------------------------
 Symbolic Z-matrix:
 Charge =  0 Multiplicity = 1

                         Standard orientation:
 ---------------------------------------------------------------------
 Center     Atomic      Atomic             Coordinates (Angstroms)
 Number     Number       Type             X           Y           Z
 ---------------------------------------------------------------------
      1         12           0        6.132089    0.565371    0.086231
      2          6           0        3.717795   -2.141099   -0.097500
      3          6           0        3.502903    2.760973   -0.428541
      4          6           0        8.278104    2.910700    0.040359
      5          6           0        8.552190   -1.909115    0.379402
      6          7           0        3.832738    0.231548   -0.287532
      7          6           0        3.101345   -0.853941   -0.179087
      8          6           0        1.602036   -0.563290   -0.302378
      9          6           0        1.601562    0.948934   -0.632749
     10          6           0        3.063565    1.412799   -0.452242
     11          6           0        0.786349    1.364041   -1.956220
     12          6           0        0.787608   -1.054266    0.965074
     13          6           0       -0.639103   -0.602633    1.116926
     14          6           0       -1.694609   -1.771852    0.981057
     15          8           0       -1.833319   -2.770566    1.687237
     16          8           0       -2.395593   -1.491058   -0.123323
     17          7           0        5.915467    2.535981   -0.230059
     18          6           0        4.799501    3.280833   -0.239544
     19          6           0        5.175605    4.682884   -0.350735
     20          6           0        6.594686    4.755589   -0.262949
     21          6           0        6.962764    3.342435   -0.203089
     22          6           0        4.231216    5.797014   -0.502475
     23          6           0        7.533560    5.991086   -0.247902
     24          8           0        8.740503    5.916781   -0.215643
     25          6           0        6.996417    7.384086   -0.202249
     26          7           0        8.149069    0.448288    0.009464
     27          6           0        8.812511    1.665659    0.136713
     28          6           0       10.289453    1.406552    0.517417
     29          6           0       10.348988   -0.142719    0.757244
     30          6           0        8.941228   -0.531175    0.432597
     31          6           0       11.358441    1.945043   -0.403275
     32          6           0       10.838064   -0.609994    2.159988
     33          6           0        9.816605   -0.928817    3.310158
     34          7           0        6.127858   -1.599624    0.098082
     35          6           0        7.203702   -2.466644    0.220147
     36          6           0        6.764530   -3.821357    0.197937
     37          6           0        5.364157   -3.747458    0.032649
     38          6           0        5.092487   -2.379305    0.068467
     39          6           0        7.668577   -4.956702    0.184767
     40          6           0        4.194085   -4.526566   -0.128237
     41          8           0        3.962423   -5.724331   -0.326380
     42          6           0        3.039304   -3.470908   -0.184949
     43          6           0        2.412281   -3.553313   -1.505842
     44          8           0        3.025306   -3.590277   -2.516660
     45          8           0        1.006268   -3.690429   -1.398751
     46          6           0        0.273338   -3.763953   -2.684976
     47          6           0       -3.360278   -2.520755   -0.590986
     48          6           0       -4.828499   -2.104525   -0.108998
     49          6           0       -5.831785   -2.900621    0.403287
     50          6           0       -5.912322   -4.435493    0.442316
     51          6           0       -6.973348   -2.277533    1.021398
     52          6           0       -7.988636   -1.570774    0.147888
     53          6           0       -8.676856   -0.371201    0.776461
     54          6           0       -8.802468    0.729466   -0.366402
     55          6           0       -7.813047    1.856430   -0.018190
     56          6           0      -10.227503    1.339916   -0.556391
     57          6           0      -11.113931    0.253382   -1.183372
     58          6           0      -11.841706    0.812697   -2.415477
     59          6           0      -13.340317    1.141021   -2.100204
     60          6           0      -14.123121    1.448037   -3.514926
     61          6           0      -13.573054    2.222947   -1.048659
     62          6           0      -14.485787    1.807796    0.105588
     63          6           0      -14.126258    2.274195    1.568716
     64          6           0      -14.378068    1.185753    2.604187
     65          6           0      -13.440136    1.371456    3.832282
     66          6           0      -15.865153    1.176433    3.123609
     67          1           0        2.681743    3.474507   -0.515704
     68          1           0        9.030741    3.666107    0.278731
     69          1           0        9.318357   -2.684974    0.324226
     70          1           0        1.213034   -1.072654   -1.184277
     71          1           0        1.087661    1.476417    0.169957
     72          1           0        1.234148    2.285902   -2.327854
     73          1           0       -0.254934    1.650078   -1.804968
     74          1           0        0.677198    0.489886   -2.597896
     75          1           0        1.478194   -0.737858    1.747876
     76          1           0        0.777672   -2.143823    0.999253
     77          1           0       -0.954898    0.093386    0.339452
     78          1           0       -0.733956    0.021874    2.004472
     79          1           0        4.471056    6.356714   -1.406544
     80          1           0        4.238864    6.540239    0.294647
     81          1           0        3.154298    5.633789   -0.522439
     82          1           0        6.531405    7.643493   -1.153201
     83          1           0        7.819160    8.056413    0.040236
     84          1           0        6.327063    7.637024    0.621165
     85          1           0       10.411440    1.852826    1.504559
     86          1           0       11.007517   -0.616927    0.029100
     87          1           0       10.878054    2.318842   -1.307653
     88          1           0       12.081087    1.180929   -0.689712
     89          1           0       11.953038    2.719522    0.081148
     90          1           0       11.480626    0.195882    2.517232
     91          1           0       11.476991   -1.489330    2.075752
     92          1           0        9.820970   -2.000834    3.508110
     93          1           0        8.845456   -0.661187    2.892221
     94          1           0       10.116720   -0.333864    4.172878
     95          1           0        8.696453   -4.750570   -0.112562
     96          1           0        7.385216   -5.604200   -0.644662
     97          1           0        7.599733   -5.357523    1.196961
     98          1           0        2.308026   -3.786006    0.558971
     99          1           0        0.275291   -4.814191   -2.976544
    100          1           0        0.767053   -3.160140   -3.446167
    101          1           0       -0.710449   -3.301043   -2.611598
    102          1           0       -3.156001   -3.511774   -0.187033
    103          1           0       -3.339656   -2.605095   -1.676933
    104          1           0       -4.915206   -1.022298   -0.009653
    105          1           0       -6.878847   -4.701213    0.013063
    106          1           0       -5.865485   -4.811318    1.464672
    107          1           0       -5.110465   -5.020873   -0.006765
    108          1           0       -6.500017   -1.630956    1.761213
    109          1           0       -7.429758   -2.890395    1.799095
    110          1           0       -8.738103   -2.360582    0.108320
    111          1           0       -7.606262   -1.520962   -0.871127
    112          1           0       -8.103924    0.020853    1.616371
    113          1           0       -9.692973   -0.631973    1.074329
    114          1           0       -8.487653    0.316939   -1.324800
    115          1           0       -8.340479    2.757635    0.292243
    116          1           0       -7.161786    2.052695   -0.869784
    117          1           0       -7.128359    1.661660    0.807405
    118          1           0      -10.177743    2.281493   -1.102855
    119          1           0      -10.660980    1.745645    0.357306
    120          1           0      -11.875219    0.010905   -0.441593
    121          1           0      -10.636952   -0.653427   -1.554969
    122          1           0      -11.824706    0.080967   -3.223291
    123          1           0      -11.338102    1.701461   -2.795614
    124          1           0      -13.747751    0.174218   -1.803362
    125          1           0      -15.078560    0.924174   -3.552412
    126          1           0      -13.538251    1.180247   -4.393999
    127          1           0      -14.309584    2.521394   -3.555945
    128          1           0      -14.169390    3.034797   -1.466092
    129          1           0      -12.589060    2.543220   -0.706041
    130          1           0      -14.527534    0.721383    0.024362
    131          1           0      -15.413869    2.159160   -0.344329
    132          1           0      -14.790757    3.100416    1.821217
    133          1           0      -13.058772    2.495257    1.601901
    134          1           0      -14.072368    0.216145    2.211767
    135          1           0      -13.105907    2.388659    4.038047
    136          1           0      -12.522159    0.894374    3.486929
    137          1           0      -13.697750    0.943411    4.800537
    138          1           0      -16.318387    0.231197    2.824225
    139          1           0      -16.432585    1.936327    2.585827
    140          1           0      -15.968202    1.435879    4.177777
 ---------------------------------------------------------------------

 SCF Done:  E(RPBE1PBE) =  -3005.32359058     A.U. after   16 cycles

 Excitation energies and oscillator strengths:

 Excited State   1:      Singlet-A      1.8646 eV  664.94 nm  f=0.3481  <S**2>=0.000
     245 -> 248        0.17840
     246 -> 247        0.69076
     246 <- 247       -0.10076
 This state for optimization and/or second-order correction.
 Total Energy, E(TD-HF/TD-DFT) =  -3005.25506776
 Copying the excited state density for this state as the 1-particle RhoCI density.

 Excited State   2:      Singlet-A      2.1714 eV  570.99 nm  f=0.1502  <S**2>=0.000
     245 -> 247        0.66530
     246 -> 248       -0.23070

 Excited State   3:      Singlet-A      2.8406 eV  436.47 nm  f=0.0000  <S**2>=0.000
     243 -> 247        0.67536
     243 -> 249        0.15518
     243 -> 250       -0.10585

 Excited State   4:      Singlet-A      3.1674 eV  391.44 nm  f=0.0041  <S**2>=0.000
     242 -> 247        0.67110
     246 -> 248        0.19130

 Excited State   5:      Singlet-A      3.2843 eV  377.50 nm  f=0.0051  <S**2>=0.000
     240 -> 247        0.14581
     241 -> 247        0.63453
     241 -> 249       -0.12407
     246 -> 248       -0.15337

 The electronic state is 1-A.
 Alpha  occ. eigenvalues --  -46.92492 -19.26790 -19.24733 -19.19900 -19.19867
 Alpha  occ. eigenvalues --  -19.19351 -19.18755 -14.41491 -14.41457 -14.39573
 Alpha  occ. eigenvalues --  -14.38458 -10.36695 -10.35397 -10.32699 -10.31493
 Alpha  occ. eigenvalues --  -10.30406 -10.28992 -10.28942 -10.28680 -10.28622
 Alpha  occ. eigenvalues --  -10.27943 -10.27545 -10.27511 -10.27314 -10.25885
 Alpha  occ. eigenvalues --  -10.25860 -10.25849 -10.25585 -10.25544 -10.25342
 Alpha  occ. eigenvalues --  -10.25310 -10.25298 -10.25218 -10.25050 -10.24855
 Alpha  occ. eigenvalues --  -10.24722 -10.24691 -10.24546 -10.24488 -10.24116
 Alpha  occ. eigenvalues --  -10.24114 -10.24037 -10.24035 -10.23640 -10.23633
 Alpha  occ. eigenvalues --  -10.23606 -10.23461 -10.23211 -10.23166 -10.23125
 Alpha  occ. eigenvalues --  -10.22982 -10.22981 -10.22874 -10.22852 -10.22704
 Alpha  occ. eigenvalues --  -10.22650 -10.22604 -10.22357 -10.22194 -10.22192
 Alpha  occ. eigenvalues --  -10.22123 -10.22033 -10.22022 -10.21798 -10.21691
 Alpha  occ. eigenvalues --  -10.21537  -3.14693  -1.87519  -1.87076  -1.86929
 Alpha  occ. eigenvalues --   -1.11903  -1.10534  -1.05941  -1.03406  -1.02618
 Alpha  occ. eigenvalues --   -1.02297  -1.00124  -0.99746  -0.98624  -0.97625
 Alpha  occ. eigenvalues --   -0.87310  -0.85262  -0.84005  -0.83502  -0.83282
 Alpha  occ. eigenvalues --   -0.83088  -0.82773  -0.82265  -0.81705  -0.81361
 Alpha  occ. eigenvalues --   -0.81280  -0.79419  -0.78410  -0.77665  -0.77497
 Alpha  occ. eigenvalues --   -0.76583  -0.76060  -0.75476  -0.74984  -0.74229
 Alpha  occ. eigenvalues --   -0.73737  -0.73021  -0.72192  -0.71694  -0.70568
 Alpha  occ. eigenvalues --   -0.70299  -0.69882  -0.69454  -0.68930  -0.68358
 Alpha  occ. eigenvalues --   -0.67818  -0.67426  -0.66241  -0.64507  -0.64017
 Alpha  occ. eigenvalues --   -0.63177  -0.62535  -0.61914  -0.61656  -0.59938
 Alpha  occ. eigenvalues --   -0.59701  -0.59551  -0.59307  -0.58762  -0.58377
 Alpha  occ. eigenvalues --   -0.57788  -0.57460  -0.56799  -0.56151  -0.55689
 Alpha  occ. eigenvalues --   -0.54309  -0.54203  -0.53859  -0.53027  -0.52426
 Alpha  occ. eigenvalues --   -0.52371  -0.52032  -0.51003  -0.50331  -0.50050
 Alpha  occ. eigenvalues --   -0.49888  -0.49593  -0.49281  -0.49144  -0.48539
 Alpha  occ. eigenvalues --   -0.48451  -0.47836  -0.47606  -0.47485  -0.47350
 Alpha  occ. eigenvalues --   -0.47102  -0.46873  -0.46671  -0.46637  -0.46360
 Alpha  occ. eigenvalues --   -0.46046  -0.45862  -0.45518  -0.45406  -0.45315
 Alpha  occ. eigenvalues --   -0.45231  -0.44899  -0.44652  -0.44537  -0.44361
 Alpha  occ. eigenvalues --   -0.44111  -0.43979  -0.43843  -0.43613  -0.43452
 Alpha  occ. eigenvalues --   -0.43049  -0.42825  -0.42674  -0.42508  -0.42305
 Alpha  occ. eigenvalues --   -0.42273  -0.42114  -0.41811  -0.41498  -0.41333
 Alpha  occ. eigenvalues --   -0.41281  -0.41117  -0.40930  -0.40735  -0.40592
 Alpha  occ. eigenvalues --   -0.40295  -0.40226  -0.39969  -0.39561  -0.39542
 Alpha  occ. eigenvalues --   -0.39383  -0.39188  -0.38986  -0.38873  -0.38735
 Alpha  occ. eigenvalues --   -0.38541  -0.38309  -0.38001  -0.37919  -0.37801
 Alpha  occ. eigenvalues --   -0.37780  -0.37370  -0.37198  -0.37024  -0.36853
 Alpha  occ. eigenvalues --   -0.36742  -0.36565  -0.36194  -0.36060  -0.35773
 Alpha  occ. eigenvalues --   -0.35659  -0.35430  -0.35314  -0.35066  -0.34974
 Alpha  occ. eigenvalues --   -0.34877  -0.34211  -0.34153  -0.33850  -0.33691
 Alpha  occ. eigenvalues --   -0.33623  -0.33029  -0.32928  -0.32640  -0.32370
 Alpha  occ. eigenvalues --   -0.32005  -0.31761  -0.31574  -0.31534  -0.31333
 Alpha  occ. eigenvalues --   -0.31082  -0.30667  -0.29662  -0.29582  -0.29308
 Alpha  occ. eigenvalues --   -0.28874  -0.28531  -0.28456  -0.26745  -0.26266
 Alpha  occ. eigenvalues --   -0.26012  -0.25707  -0.25361  -0.24577  -0.20519
 Alpha  occ. eigenvalues --   -0.18894
 Alpha virt. eigenvalues --   -0.11179  -0.05061  -0.03816  -0.02096  -0.00456
 Alpha virt. eigenvalues --    0.00057   0.00748   0.01446   0.01755   0.03242
 Alpha virt. eigenvalues --    0.03969   0.04039   0.04447   0.05109   0.05518

 Mulliken charges:
               1
     1  Mg   0.978955
     2  C   -0.056280
     3  C   -0.068442
     4  C   -0.057816
     5  C   -0.048798
     6  N   -0.338539
     7  C    0.007077
     8  C   -0.087860
     9  C   -0.110805
    10  C    0.066933
    11  C    0.003622
    12  C   -0.001107
    13  C   -0.012265
    14  C    0.234409
    15  O   -0.269354
    16  O   -0.344072
    17  N   -0.484642
    18  C    0.161240
    19  C   -0.160093
    20  C   -0.082751
    21  C    0.165200
    22  C    0.040187
    23  C    0.075161
    24  O   -0.224182
    25  C   -0.033906
    26  N   -0.441125
    27  C    0.056392
    28  C   -0.103169
    29  C   -0.058598
    30  C    0.046451
    31  C    0.029488
    32  C   -0.068081
    33  C   -0.056931
    34  N   -0.392312
    35  C    0.090695
    36  C   -0.176844
    37  C   -0.042028
    38  C    0.180122
    39  C    0.061489
    40  C    0.139240
    41  O   -0.221409
    42  C   -0.113726
    43  C    0.260454
    44  O   -0.200484
    45  O   -0.408097
    46  C    0.118689
    47  C    0.210625
    48  C   -0.148068
    49  C   -0.179653
    50  C    0.009699
    51  C   -0.028417
    52  C   -0.022923
    53  C    0.040161
    54  C   -0.235030
    55  C   -0.003901
    56  C   -0.031488
    57  C   -0.027592
    58  C   -0.029614
    59  C   -0.245003
    60  C   -0.031266
    61  C    0.015783
    62  C   -0.069281
    63  C    0.025516
    64  C   -0.254846
    65  C   -0.042648
    66  C   -0.004582
    67  H    0.002485
    68  H    0.024886
    69  H    0.002559
    70  H    0.049962
    71  H    0.040331
    72  H    0.043631
    73  H    0.036404
    74  H    0.047283
    75  H    0.034436
    76  H    0.072042
    77  H    0.049978
    78  H    0.059851
    79  H    0.049130
    80  H    0.043429
    81  H    0.030984
    82  H    0.063222
    83  H    0.050687
    84  H    0.054824
    85  H    0.046919
    86  H    0.050745
    87  H    0.055993
    88  H    0.034101
    89  H    0.045908
    90  H    0.035011
    91  H    0.036439
    92  H    0.048457
    93  H    0.059533
    94  H    0.050672
    95  H    0.033189
    96  H    0.068194
    97  H    0.072064
    98  H    0.080819
    99  H    0.072556
   100  H    0.054078
   101  H    0.052351
   102  H    0.068132
   103  H    0.060541
   104  H    0.031757
   105  H    0.052258
   106  H    0.056334
   107  H    0.032417
   108  H    0.032437
   109  H    0.014510
   110  H    0.029091
   111  H    0.039841
   112  H    0.038056
   113  H    0.031090
   114  H    0.041482
   115  H    0.028852
   116  H    0.031723
   117  H    0.023059
   118  H    0.033218
   119  H    0.025849
   120  H    0.034674
   121  H    0.040924
   122  H    0.019620
   123  H    0.030503
   124  H    0.037975
   125  H    0.038463
   126  H    0.033176
   127  H    0.030102
   128  H    0.029392
   129  H    0.023988
   130  H    0.021062
   131  H    0.025080
   132  H    0.038331
   133  H    0.033907
   134  H    0.039495
   135  H    0.030831
   136  H    0.023848
   137  H    0.041054
   138  H    0.040412
   139  H    0.021428
   140  H    0.042374
 Sum of Mulliken charges =  -0.00000

 Dipole moment (field-independent basis, Debye):
    X=             -2.4512    Y=              4.5164    Z=              1.0892  Tot=              5.2528
 Quadrupole moment (field-independent basis, Debye-Ang):
   XX=           -366.8423   YY=           -420.4101   ZZ=           -405.5605
   XY=              1.6203   XZ=             24.1147   YZ=              3.8539

 Normal termination of Gaussian 16 at Wed May  4 08:36:12 2022.
