 Gaussian 16, Revision A.03,
 Gaussian 16:  ES64L-G16RevA.03 25-Dec-2016

 --------------------------------
 #p wB97XD/Def2SVP td=(nstates=5)
 --------------------------------

 ----------------------------------------------------
 step_151_chromophore_16 TDDFT with wB97XD functional
 ----------------------------------------------------
 Symbolic Z-matrix:
 Charge =  0 Multiplicity = 1

                         Standard orientation:
 ---------------------------------------------------------------------
 Center     Atomic      Atomic             Coordinates (Angstroms)
 Number     Number       Type             X           Y           Z
 ---------------------------------------------------------------------
      1         12           0        6.132089    0.565371    0.086231
      2          6           0        3.717795   -2.141099   -0.097500
      3          6           0        3.502903    2.760973   -0.428541
      4          6           0        8.278104    2.910700    0.040359
      5          6           0        8.552190   -1.909115    0.379402
      6          7           0        3.832738    0.231548   -0.287532
      7          6           0        3.101345   -0.853941   -0.179087
      8          6           0        1.602036   -0.563290   -0.302378
      9          6           0        1.601562    0.948934   -0.632749
     10          6           0        3.063565    1.412799   -0.452242
     11          6           0        0.786349    1.364041   -1.956220
     12          6           0        0.787608   -1.054266    0.965074
     13          6           0       -0.639103   -0.602633    1.116926
     14          6           0       -1.694609   -1.771852    0.981057
     15          8           0       -1.833319   -2.770566    1.687237
     16          8           0       -2.395593   -1.491058   -0.123323
     17          7           0        5.915467    2.535981   -0.230059
     18          6           0        4.799501    3.280833   -0.239544
     19          6           0        5.175605    4.682884   -0.350735
     20          6           0        6.594686    4.755589   -0.262949
     21          6           0        6.962764    3.342435   -0.203089
     22          6           0        4.231216    5.797014   -0.502475
     23          6           0        7.533560    5.991086   -0.247902
     24          8           0        8.740503    5.916781   -0.215643
     25          6           0        6.996417    7.384086   -0.202249
     26          7           0        8.149069    0.448288    0.009464
     27          6           0        8.812511    1.665659    0.136713
     28          6           0       10.289453    1.406552    0.517417
     29          6           0       10.348988   -0.142719    0.757244
     30          6           0        8.941228   -0.531175    0.432597
     31          6           0       11.358441    1.945043   -0.403275
     32          6           0       10.838064   -0.609994    2.159988
     33          6           0        9.816605   -0.928817    3.310158
     34          7           0        6.127858   -1.599624    0.098082
     35          6           0        7.203702   -2.466644    0.220147
     36          6           0        6.764530   -3.821357    0.197937
     37          6           0        5.364157   -3.747458    0.032649
     38          6           0        5.092487   -2.379305    0.068467
     39          6           0        7.668577   -4.956702    0.184767
     40          6           0        4.194085   -4.526566   -0.128237
     41          8           0        3.962423   -5.724331   -0.326380
     42          6           0        3.039304   -3.470908   -0.184949
     43          6           0        2.412281   -3.553313   -1.505842
     44          8           0        3.025306   -3.590277   -2.516660
     45          8           0        1.006268   -3.690429   -1.398751
     46          6           0        0.273338   -3.763953   -2.684976
     47          6           0       -3.360278   -2.520755   -0.590986
     48          6           0       -4.828499   -2.104525   -0.108998
     49          6           0       -5.831785   -2.900621    0.403287
     50          6           0       -5.912322   -4.435493    0.442316
     51          6           0       -6.973348   -2.277533    1.021398
     52          6           0       -7.988636   -1.570774    0.147888
     53          6           0       -8.676856   -0.371201    0.776461
     54          6           0       -8.802468    0.729466   -0.366402
     55          6           0       -7.813047    1.856430   -0.018190
     56          6           0      -10.227503    1.339916   -0.556391
     57          6           0      -11.113931    0.253382   -1.183372
     58          6           0      -11.841706    0.812697   -2.415477
     59          6           0      -13.340317    1.141021   -2.100204
     60          6           0      -14.123121    1.448037   -3.514926
     61          6           0      -13.573054    2.222947   -1.048659
     62          6           0      -14.485787    1.807796    0.105588
     63          6           0      -14.126258    2.274195    1.568716
     64          6           0      -14.378068    1.185753    2.604187
     65          6           0      -13.440136    1.371456    3.832282
     66          6           0      -15.865153    1.176433    3.123609
     67          1           0        2.681743    3.474507   -0.515704
     68          1           0        9.030741    3.666107    0.278731
     69          1           0        9.318357   -2.684974    0.324226
     70          1           0        1.213034   -1.072654   -1.184277
     71          1           0        1.087661    1.476417    0.169957
     72          1           0        1.234148    2.285902   -2.327854
     73          1           0       -0.254934    1.650078   -1.804968
     74          1           0        0.677198    0.489886   -2.597896
     75          1           0        1.478194   -0.737858    1.747876
     76          1           0        0.777672   -2.143823    0.999253
     77          1           0       -0.954898    0.093386    0.339452
     78          1           0       -0.733956    0.021874    2.004472
     79          1           0        4.471056    6.356714   -1.406544
     80          1           0        4.238864    6.540239    0.294647
     81          1           0        3.154298    5.633789   -0.522439
     82          1           0        6.531405    7.643493   -1.153201
     83          1           0        7.819160    8.056413    0.040236
     84          1           0        6.327063    7.637024    0.621165
     85          1           0       10.411440    1.852826    1.504559
     86          1           0       11.007517   -0.616927    0.029100
     87          1           0       10.878054    2.318842   -1.307653
     88          1           0       12.081087    1.180929   -0.689712
     89          1           0       11.953038    2.719522    0.081148
     90          1           0       11.480626    0.195882    2.517232
     91          1           0       11.476991   -1.489330    2.075752
     92          1           0        9.820970   -2.000834    3.508110
     93          1           0        8.845456   -0.661187    2.892221
     94          1           0       10.116720   -0.333864    4.172878
     95          1           0        8.696453   -4.750570   -0.112562
     96          1           0        7.385216   -5.604200   -0.644662
     97          1           0        7.599733   -5.357523    1.196961
     98          1           0        2.308026   -3.786006    0.558971
     99          1           0        0.275291   -4.814191   -2.976544
    100          1           0        0.767053   -3.160140   -3.446167
    101          1           0       -0.710449   -3.301043   -2.611598
    102          1           0       -3.156001   -3.511774   -0.187033
    103          1           0       -3.339656   -2.605095   -1.676933
    104          1           0       -4.915206   -1.022298   -0.009653
    105          1           0       -6.878847   -4.701213    0.013063
    106          1           0       -5.865485   -4.811318    1.464672
    107          1           0       -5.110465   -5.020873   -0.006765
    108          1           0       -6.500017   -1.630956    1.761213
    109          1           0       -7.429758   -2.890395    1.799095
    110          1           0       -8.738103   -2.360582    0.108320
    111          1           0       -7.606262   -1.520962   -0.871127
    112          1           0       -8.103924    0.020853    1.616371
    113          1           0       -9.692973   -0.631973    1.074329
    114          1           0       -8.487653    0.316939   -1.324800
    115          1           0       -8.340479    2.757635    0.292243
    116          1           0       -7.161786    2.052695   -0.869784
    117          1           0       -7.128359    1.661660    0.807405
    118          1           0      -10.177743    2.281493   -1.102855
    119          1           0      -10.660980    1.745645    0.357306
    120          1           0      -11.875219    0.010905   -0.441593
    121          1           0      -10.636952   -0.653427   -1.554969
    122          1           0      -11.824706    0.080967   -3.223291
    123          1           0      -11.338102    1.701461   -2.795614
    124          1           0      -13.747751    0.174218   -1.803362
    125          1           0      -15.078560    0.924174   -3.552412
    126          1           0      -13.538251    1.180247   -4.393999
    127          1           0      -14.309584    2.521394   -3.555945
    128          1           0      -14.169390    3.034797   -1.466092
    129          1           0      -12.589060    2.543220   -0.706041
    130          1           0      -14.527534    0.721383    0.024362
    131          1           0      -15.413869    2.159160   -0.344329
    132          1           0      -14.790757    3.100416    1.821217
    133          1           0      -13.058772    2.495257    1.601901
    134          1           0      -14.072368    0.216145    2.211767
    135          1           0      -13.105907    2.388659    4.038047
    136          1           0      -12.522159    0.894374    3.486929
    137          1           0      -13.697750    0.943411    4.800537
    138          1           0      -16.318387    0.231197    2.824225
    139          1           0      -16.432585    1.936327    2.585827
    140          1           0      -15.968202    1.435879    4.177777
 ---------------------------------------------------------------------

 SCF Done:  E(RwB97XD) =  -3007.83345224     A.U. after   17 cycles

 Excitation energies and oscillator strengths:

 Excited State   1:      Singlet-A      1.6991 eV  729.70 nm  f=0.3625  <S**2>=0.000
     245 -> 248        0.18685
     246 -> 247        0.68201
     245 <- 248        0.11330
 This state for optimization and/or second-order correction.
 Total Energy, E(TD-HF/TD-DFT) =  -3007.77101105
 Copying the excited state density for this state as the 1-particle RhoCI density.

 Excited State   2:      Singlet-A      2.1161 eV  585.91 nm  f=0.1593  <S**2>=0.000
     245 -> 247        0.65442
     246 -> 248       -0.25624

 Excited State   3:      Singlet-A      3.2929 eV  376.52 nm  f=0.0019  <S**2>=0.000
     241 -> 247        0.58404
     241 -> 249        0.28916
     241 -> 250        0.17558

 Excited State   4:      Singlet-A      3.4193 eV  362.60 nm  f=0.0541  <S**2>=0.000
     241 -> 247        0.10194
     242 -> 247       -0.42545
     243 -> 247        0.43782
     246 -> 248       -0.30862

 Excited State   5:      Singlet-A      3.6314 eV  341.42 nm  f=0.7625  <S**2>=0.000
     239 -> 247       -0.14414
     242 -> 247       -0.18899
     243 -> 247        0.22308
     245 -> 247        0.25881
     246 -> 248        0.55594
     245 <- 247       -0.10795

 The electronic state is 1-A.
 Alpha  occ. eigenvalues --  -46.95430 -19.31348 -19.29449 -19.24781 -19.24594
 Alpha  occ. eigenvalues --  -19.23931 -19.23871 -14.46638 -14.46482 -14.44373
 Alpha  occ. eigenvalues --  -14.43592 -10.43499 -10.42393 -10.39252 -10.38692
 Alpha  occ. eigenvalues --  -10.36921 -10.35488 -10.35248 -10.35213 -10.35001
 Alpha  occ. eigenvalues --  -10.34265 -10.34015 -10.33542 -10.33170 -10.32544
 Alpha  occ. eigenvalues --  -10.32446 -10.32017 -10.31935 -10.31912 -10.31823
 Alpha  occ. eigenvalues --  -10.31668 -10.31606 -10.31570 -10.31313 -10.31210
 Alpha  occ. eigenvalues --  -10.31193 -10.31127 -10.30936 -10.30654 -10.30471
 Alpha  occ. eigenvalues --  -10.30440 -10.30425 -10.30289 -10.29938 -10.29927
 Alpha  occ. eigenvalues --  -10.29911 -10.29892 -10.29867 -10.29532 -10.29450
 Alpha  occ. eigenvalues --  -10.29448 -10.29353 -10.29331 -10.29237 -10.29162
 Alpha  occ. eigenvalues --  -10.29035 -10.28969 -10.28724 -10.28576 -10.28566
 Alpha  occ. eigenvalues --  -10.28475 -10.28434 -10.28405 -10.28217 -10.28102
 Alpha  occ. eigenvalues --  -10.27952  -3.21490  -1.95066  -1.94624  -1.94469
 Alpha  occ. eigenvalues --   -1.19294  -1.18114  -1.13135  -1.11214  -1.10162
 Alpha  occ. eigenvalues --   -1.09661  -1.07528  -1.07018  -1.05997  -1.05053
 Alpha  occ. eigenvalues --   -0.95171  -0.92938  -0.91681  -0.91056  -0.90961
 Alpha  occ. eigenvalues --   -0.90611  -0.90437  -0.90106  -0.89129  -0.89025
 Alpha  occ. eigenvalues --   -0.88807  -0.87039  -0.86048  -0.85374  -0.85173
 Alpha  occ. eigenvalues --   -0.84216  -0.83695  -0.83096  -0.82670  -0.81901
 Alpha  occ. eigenvalues --   -0.81425  -0.80572  -0.79829  -0.79331  -0.78246
 Alpha  occ. eigenvalues --   -0.77993  -0.77464  -0.77152  -0.76597  -0.76036
 Alpha  occ. eigenvalues --   -0.75448  -0.75054  -0.73782  -0.72099  -0.71658
 Alpha  occ. eigenvalues --   -0.70771  -0.70173  -0.69429  -0.69110  -0.67590
 Alpha  occ. eigenvalues --   -0.67138  -0.67061  -0.66810  -0.66238  -0.66032
 Alpha  occ. eigenvalues --   -0.65290  -0.65130  -0.64436  -0.63697  -0.62933
 Alpha  occ. eigenvalues --   -0.61866  -0.61740  -0.61347  -0.60553  -0.59999
 Alpha  occ. eigenvalues --   -0.59796  -0.59543  -0.58288  -0.57793  -0.57418
 Alpha  occ. eigenvalues --   -0.57349  -0.57098  -0.56773  -0.56662  -0.56052
 Alpha  occ. eigenvalues --   -0.55866  -0.55213  -0.55026  -0.54836  -0.54727
 Alpha  occ. eigenvalues --   -0.54486  -0.54379  -0.54106  -0.54047  -0.53699
 Alpha  occ. eigenvalues --   -0.53418  -0.53261  -0.52887  -0.52638  -0.52618
 Alpha  occ. eigenvalues --   -0.52539  -0.52205  -0.52051  -0.51812  -0.51739
 Alpha  occ. eigenvalues --   -0.51399  -0.51295  -0.51174  -0.51033  -0.50627
 Alpha  occ. eigenvalues --   -0.50366  -0.50106  -0.49976  -0.49704  -0.49661
 Alpha  occ. eigenvalues --   -0.49550  -0.49375  -0.49043  -0.48734  -0.48585
 Alpha  occ. eigenvalues --   -0.48426  -0.48361  -0.48097  -0.47929  -0.47786
 Alpha  occ. eigenvalues --   -0.47545  -0.47499  -0.47209  -0.46769  -0.46761
 Alpha  occ. eigenvalues --   -0.46567  -0.46371  -0.46166  -0.46081  -0.45863
 Alpha  occ. eigenvalues --   -0.45696  -0.45431  -0.45192  -0.45046  -0.44983
 Alpha  occ. eigenvalues --   -0.44874  -0.44560  -0.44305  -0.44217  -0.43934
 Alpha  occ. eigenvalues --   -0.43875  -0.43675  -0.43448  -0.43185  -0.42844
 Alpha  occ. eigenvalues --   -0.42755  -0.42476  -0.42413  -0.42158  -0.41962
 Alpha  occ. eigenvalues --   -0.41875  -0.41231  -0.41220  -0.40878  -0.40724
 Alpha  occ. eigenvalues --   -0.40677  -0.39983  -0.39936  -0.39665  -0.39438
 Alpha  occ. eigenvalues --   -0.39043  -0.38764  -0.38580  -0.38556  -0.38355
 Alpha  occ. eigenvalues --   -0.38107  -0.37570  -0.36612  -0.36578  -0.36430
 Alpha  occ. eigenvalues --   -0.35716  -0.35610  -0.35245  -0.33273  -0.32994
 Alpha  occ. eigenvalues --   -0.32807  -0.32661  -0.32317  -0.31349  -0.25488
 Alpha  occ. eigenvalues --   -0.23155
 Alpha virt. eigenvalues --   -0.07065   0.00453   0.02450   0.04425   0.05398
 Alpha virt. eigenvalues --    0.06709   0.07576   0.08212   0.08407   0.09680
 Alpha virt. eigenvalues --    0.10412   0.10670   0.11385   0.11856   0.12296

 Mulliken charges:
               1
     1  Mg   0.969114
     2  C   -0.061041
     3  C   -0.077156
     4  C   -0.076335
     5  C   -0.075430
     6  N   -0.301610
     7  C   -0.028217
     8  C   -0.055953
     9  C   -0.087012
    10  C    0.047168
    11  C    0.018447
    12  C    0.015148
    13  C    0.005625
    14  C    0.222457
    15  O   -0.266506
    16  O   -0.343592
    17  N   -0.447214
    18  C    0.144352
    19  C   -0.145302
    20  C   -0.083818
    21  C    0.155213
    22  C    0.048946
    23  C    0.073092
    24  O   -0.221233
    25  C   -0.024907
    26  N   -0.410703
    27  C    0.046030
    28  C   -0.076309
    29  C   -0.041763
    30  C    0.047982
    31  C    0.039021
    32  C   -0.056604
    33  C   -0.035152
    34  N   -0.354381
    35  C    0.088824
    36  C   -0.166489
    37  C   -0.042131
    38  C    0.166743
    39  C    0.068458
    40  C    0.122887
    41  O   -0.208674
    42  C   -0.073817
    43  C    0.238118
    44  O   -0.196080
    45  O   -0.406162
    46  C    0.133776
    47  C    0.229415
    48  C   -0.161314
    49  C   -0.163710
    50  C    0.023116
    51  C   -0.011989
    52  C   -0.005014
    53  C    0.053656
    54  C   -0.200963
    55  C    0.006380
    56  C   -0.015354
    57  C   -0.008161
    58  C   -0.012190
    59  C   -0.217298
    60  C   -0.017017
    61  C    0.034225
    62  C   -0.051534
    63  C    0.045709
    64  C   -0.225499
    65  C   -0.030379
    66  C    0.005926
    67  H   -0.005234
    68  H    0.019163
    69  H   -0.004474
    70  H    0.028960
    71  H    0.027233
    72  H    0.037619
    73  H    0.030495
    74  H    0.040473
    75  H    0.026711
    76  H    0.057460
    77  H    0.040017
    78  H    0.056264
    79  H    0.041638
    80  H    0.036045
    81  H    0.026402
    82  H    0.058138
    83  H    0.048245
    84  H    0.049576
    85  H    0.034839
    86  H    0.041521
    87  H    0.050278
    88  H    0.027501
    89  H    0.041281
    90  H    0.027023
    91  H    0.029984
    92  H    0.042859
    93  H    0.045665
    94  H    0.046836
    95  H    0.030292
    96  H    0.065417
    97  H    0.069221
    98  H    0.077129
    99  H    0.069457
   100  H    0.049984
   101  H    0.049922
   102  H    0.061198
   103  H    0.056206
   104  H    0.028063
   105  H    0.045706
   106  H    0.050879
   107  H    0.027650
   108  H    0.022208
   109  H    0.008369
   110  H    0.019857
   111  H    0.030002
   112  H    0.028441
   113  H    0.022946
   114  H    0.027233
   115  H    0.022895
   116  H    0.026627
   117  H    0.016294
   118  H    0.023309
   119  H    0.014062
   120  H    0.021212
   121  H    0.032368
   122  H    0.011714
   123  H    0.019590
   124  H    0.024196
   125  H    0.033036
   126  H    0.027519
   127  H    0.022655
   128  H    0.020629
   129  H    0.006838
   130  H    0.007663
   131  H    0.017468
   132  H    0.029745
   133  H    0.021914
   134  H    0.028469
   135  H    0.024483
   136  H    0.016114
   137  H    0.036145
   138  H    0.035237
   139  H    0.014020
   140  H    0.037286
 Sum of Mulliken charges =  -0.00000

 Dipole moment (field-independent basis, Debye):
    X=             -2.5414    Y=              3.8020    Z=              1.1258  Tot=              4.7097
 Quadrupole moment (field-independent basis, Debye-Ang):
   XX=           -367.9863   YY=           -419.6868   ZZ=           -405.0348
   XY=             -2.4240   XZ=             24.6966   YZ=              4.0781

 Normal termination of Gaussian 16 at Wed May  4 09:00:30 2022.
