 Gaussian 16, Revision A.03,
 Gaussian 16:  ES64L-G16RevA.03 25-Dec-2016

 --------------------
 #p ZINDO=(nstates=5)
 --------------------

 -----------------------------
 step_151_chromophore_16 ZINDO
 -----------------------------
 Symbolic Z-matrix:
 Charge =  0 Multiplicity = 1

                         Standard orientation:
 ---------------------------------------------------------------------
 Center     Atomic      Atomic             Coordinates (Angstroms)
 Number     Number       Type             X           Y           Z
 ---------------------------------------------------------------------
      1         12           0        6.132089    0.565371    0.086231
      2          6           0        3.717795   -2.141099   -0.097500
      3          6           0        3.502903    2.760973   -0.428541
      4          6           0        8.278104    2.910700    0.040359
      5          6           0        8.552190   -1.909115    0.379402
      6          7           0        3.832738    0.231548   -0.287532
      7          6           0        3.101345   -0.853941   -0.179087
      8          6           0        1.602036   -0.563290   -0.302378
      9          6           0        1.601562    0.948934   -0.632749
     10          6           0        3.063565    1.412799   -0.452242
     11          6           0        0.786349    1.364041   -1.956220
     12          6           0        0.787608   -1.054266    0.965074
     13          6           0       -0.639103   -0.602633    1.116926
     14          6           0       -1.694609   -1.771852    0.981057
     15          8           0       -1.833319   -2.770566    1.687237
     16          8           0       -2.395593   -1.491058   -0.123323
     17          7           0        5.915467    2.535981   -0.230059
     18          6           0        4.799501    3.280833   -0.239544
     19          6           0        5.175605    4.682884   -0.350735
     20          6           0        6.594686    4.755589   -0.262949
     21          6           0        6.962764    3.342435   -0.203089
     22          6           0        4.231216    5.797014   -0.502475
     23          6           0        7.533560    5.991086   -0.247902
     24          8           0        8.740503    5.916781   -0.215643
     25          6           0        6.996417    7.384086   -0.202249
     26          7           0        8.149069    0.448288    0.009464
     27          6           0        8.812511    1.665659    0.136713
     28          6           0       10.289453    1.406552    0.517417
     29          6           0       10.348988   -0.142719    0.757244
     30          6           0        8.941228   -0.531175    0.432597
     31          6           0       11.358441    1.945043   -0.403275
     32          6           0       10.838064   -0.609994    2.159988
     33          6           0        9.816605   -0.928817    3.310158
     34          7           0        6.127858   -1.599624    0.098082
     35          6           0        7.203702   -2.466644    0.220147
     36          6           0        6.764530   -3.821357    0.197937
     37          6           0        5.364157   -3.747458    0.032649
     38          6           0        5.092487   -2.379305    0.068467
     39          6           0        7.668577   -4.956702    0.184767
     40          6           0        4.194085   -4.526566   -0.128237
     41          8           0        3.962423   -5.724331   -0.326380
     42          6           0        3.039304   -3.470908   -0.184949
     43          6           0        2.412281   -3.553313   -1.505842
     44          8           0        3.025306   -3.590277   -2.516660
     45          8           0        1.006268   -3.690429   -1.398751
     46          6           0        0.273338   -3.763953   -2.684976
     47          6           0       -3.360278   -2.520755   -0.590986
     48          6           0       -4.828499   -2.104525   -0.108998
     49          6           0       -5.831785   -2.900621    0.403287
     50          6           0       -5.912322   -4.435493    0.442316
     51          6           0       -6.973348   -2.277533    1.021398
     52          6           0       -7.988636   -1.570774    0.147888
     53          6           0       -8.676856   -0.371201    0.776461
     54          6           0       -8.802468    0.729466   -0.366402
     55          6           0       -7.813047    1.856430   -0.018190
     56          6           0      -10.227503    1.339916   -0.556391
     57          6           0      -11.113931    0.253382   -1.183372
     58          6           0      -11.841706    0.812697   -2.415477
     59          6           0      -13.340317    1.141021   -2.100204
     60          6           0      -14.123121    1.448037   -3.514926
     61          6           0      -13.573054    2.222947   -1.048659
     62          6           0      -14.485787    1.807796    0.105588
     63          6           0      -14.126258    2.274195    1.568716
     64          6           0      -14.378068    1.185753    2.604187
     65          6           0      -13.440136    1.371456    3.832282
     66          6           0      -15.865153    1.176433    3.123609
     67          1           0        2.681743    3.474507   -0.515704
     68          1           0        9.030741    3.666107    0.278731
     69          1           0        9.318357   -2.684974    0.324226
     70          1           0        1.213034   -1.072654   -1.184277
     71          1           0        1.087661    1.476417    0.169957
     72          1           0        1.234148    2.285902   -2.327854
     73          1           0       -0.254934    1.650078   -1.804968
     74          1           0        0.677198    0.489886   -2.597896
     75          1           0        1.478194   -0.737858    1.747876
     76          1           0        0.777672   -2.143823    0.999253
     77          1           0       -0.954898    0.093386    0.339452
     78          1           0       -0.733956    0.021874    2.004472
     79          1           0        4.471056    6.356714   -1.406544
     80          1           0        4.238864    6.540239    0.294647
     81          1           0        3.154298    5.633789   -0.522439
     82          1           0        6.531405    7.643493   -1.153201
     83          1           0        7.819160    8.056413    0.040236
     84          1           0        6.327063    7.637024    0.621165
     85          1           0       10.411440    1.852826    1.504559
     86          1           0       11.007517   -0.616927    0.029100
     87          1           0       10.878054    2.318842   -1.307653
     88          1           0       12.081087    1.180929   -0.689712
     89          1           0       11.953038    2.719522    0.081148
     90          1           0       11.480626    0.195882    2.517232
     91          1           0       11.476991   -1.489330    2.075752
     92          1           0        9.820970   -2.000834    3.508110
     93          1           0        8.845456   -0.661187    2.892221
     94          1           0       10.116720   -0.333864    4.172878
     95          1           0        8.696453   -4.750570   -0.112562
     96          1           0        7.385216   -5.604200   -0.644662
     97          1           0        7.599733   -5.357523    1.196961
     98          1           0        2.308026   -3.786006    0.558971
     99          1           0        0.275291   -4.814191   -2.976544
    100          1           0        0.767053   -3.160140   -3.446167
    101          1           0       -0.710449   -3.301043   -2.611598
    102          1           0       -3.156001   -3.511774   -0.187033
    103          1           0       -3.339656   -2.605095   -1.676933
    104          1           0       -4.915206   -1.022298   -0.009653
    105          1           0       -6.878847   -4.701213    0.013063
    106          1           0       -5.865485   -4.811318    1.464672
    107          1           0       -5.110465   -5.020873   -0.006765
    108          1           0       -6.500017   -1.630956    1.761213
    109          1           0       -7.429758   -2.890395    1.799095
    110          1           0       -8.738103   -2.360582    0.108320
    111          1           0       -7.606262   -1.520962   -0.871127
    112          1           0       -8.103924    0.020853    1.616371
    113          1           0       -9.692973   -0.631973    1.074329
    114          1           0       -8.487653    0.316939   -1.324800
    115          1           0       -8.340479    2.757635    0.292243
    116          1           0       -7.161786    2.052695   -0.869784
    117          1           0       -7.128359    1.661660    0.807405
    118          1           0      -10.177743    2.281493   -1.102855
    119          1           0      -10.660980    1.745645    0.357306
    120          1           0      -11.875219    0.010905   -0.441593
    121          1           0      -10.636952   -0.653427   -1.554969
    122          1           0      -11.824706    0.080967   -3.223291
    123          1           0      -11.338102    1.701461   -2.795614
    124          1           0      -13.747751    0.174218   -1.803362
    125          1           0      -15.078560    0.924174   -3.552412
    126          1           0      -13.538251    1.180247   -4.393999
    127          1           0      -14.309584    2.521394   -3.555945
    128          1           0      -14.169390    3.034797   -1.466092
    129          1           0      -12.589060    2.543220   -0.706041
    130          1           0      -14.527534    0.721383    0.024362
    131          1           0      -15.413869    2.159160   -0.344329
    132          1           0      -14.790757    3.100416    1.821217
    133          1           0      -13.058772    2.495257    1.601901
    134          1           0      -14.072368    0.216145    2.211767
    135          1           0      -13.105907    2.388659    4.038047
    136          1           0      -12.522159    0.894374    3.486929
    137          1           0      -13.697750    0.943411    4.800537
    138          1           0      -16.318387    0.231197    2.824225
    139          1           0      -16.432585    1.936327    2.585827
    140          1           0      -15.968202    1.435879    4.177777
 ---------------------------------------------------------------------

 SCF Done:  E(RZINDO/S) =  -474.475505587     A.U. after   19 cycles

 Excitation energies and oscillator strengths:

 Excited State   1:      Singlet-A      1.3085 eV  947.55 nm  f=0.5199  <S**2>=0.000
     175 ->178         0.17479
     176 ->177         0.66950
 This state for optimization and/or second-order correction.
 Total Energy, E(CIS/TDA) =  -474.427419987
 Copying the excited state density for this state as the 1-particle RhoCI density.

 Excited State   2:      Singlet-A      1.8615 eV  666.06 nm  f=0.1114  <S**2>=0.000
     175 ->177         0.58645
     176 ->178        -0.36211

 Excited State   3:      Singlet-A      2.8250 eV  438.88 nm  f=0.0012  <S**2>=0.000
     168 ->177         0.43554
     168 ->179        -0.39373
     168 ->180         0.20329
     168 ->186         0.18451

 Excited State   4:      Singlet-A      2.9577 eV  419.19 nm  f=1.0543  <S**2>=0.000
     171 ->177        -0.17195
     172 ->177         0.13729
     175 ->177         0.32029
     176 ->178         0.54737

 Excited State   5:      Singlet-A      3.0791 eV  402.67 nm  f=0.0006  <S**2>=0.000
     169 ->179         0.13326
     169 ->180         0.22461
     169 ->186        -0.10621
     170 ->177         0.16995
     170 ->179         0.23644
     170 ->180         0.42030
     170 ->186        -0.19224
     170 ->187         0.16573
     170 ->188        -0.12286

 The electronic state is 1-A.
 Alpha  occ. eigenvalues --   -1.87399  -1.83868  -1.80677  -1.73676  -1.72740
 Alpha  occ. eigenvalues --   -1.71425  -1.66255  -1.61019  -1.59657  -1.59264
 Alpha  occ. eigenvalues --   -1.55550  -1.50744  -1.48573  -1.47728  -1.46638
 Alpha  occ. eigenvalues --   -1.44935  -1.44116  -1.41371  -1.38439  -1.38056
 Alpha  occ. eigenvalues --   -1.37283  -1.34865  -1.32344  -1.31363  -1.28491
 Alpha  occ. eigenvalues --   -1.27329  -1.24894  -1.21786  -1.20330  -1.19075
 Alpha  occ. eigenvalues --   -1.17447  -1.16065  -1.15016  -1.14233  -1.13388
 Alpha  occ. eigenvalues --   -1.12372  -1.10876  -1.10588  -1.05087  -1.04584
 Alpha  occ. eigenvalues --   -1.02756  -1.01608  -0.98513  -0.98017  -0.97119
 Alpha  occ. eigenvalues --   -0.97028  -0.95352  -0.93518  -0.92958  -0.92000
 Alpha  occ. eigenvalues --   -0.91664  -0.90274  -0.89638  -0.87412  -0.87087
 Alpha  occ. eigenvalues --   -0.85872  -0.83448  -0.82782  -0.81408  -0.80806
 Alpha  occ. eigenvalues --   -0.79970  -0.79218  -0.78531  -0.78027  -0.76586
 Alpha  occ. eigenvalues --   -0.76218  -0.76043  -0.75686  -0.73886  -0.73857
 Alpha  occ. eigenvalues --   -0.73415  -0.72754  -0.71955  -0.71005  -0.70707
 Alpha  occ. eigenvalues --   -0.69786  -0.69539  -0.68847  -0.68489  -0.67567
 Alpha  occ. eigenvalues --   -0.66856  -0.66694  -0.66334  -0.65931  -0.65582
 Alpha  occ. eigenvalues --   -0.65396  -0.65255  -0.64695  -0.64422  -0.63961
 Alpha  occ. eigenvalues --   -0.63905  -0.63349  -0.63238  -0.62862  -0.61938
 Alpha  occ. eigenvalues --   -0.61902  -0.61195  -0.60223  -0.59859  -0.59695
 Alpha  occ. eigenvalues --   -0.59102  -0.58943  -0.58858  -0.58091  -0.57596
 Alpha  occ. eigenvalues --   -0.57411  -0.57075  -0.56831  -0.56258  -0.56067
 Alpha  occ. eigenvalues --   -0.55902  -0.55412  -0.55322  -0.54737  -0.54685
 Alpha  occ. eigenvalues --   -0.54314  -0.54003  -0.53781  -0.53493  -0.53060
 Alpha  occ. eigenvalues --   -0.52386  -0.52258  -0.52176  -0.51850  -0.51502
 Alpha  occ. eigenvalues --   -0.51209  -0.50694  -0.50350  -0.50262  -0.49931
 Alpha  occ. eigenvalues --   -0.49830  -0.49603  -0.49403  -0.49093  -0.48908
 Alpha  occ. eigenvalues --   -0.48747  -0.48534  -0.48331  -0.48107  -0.47423
 Alpha  occ. eigenvalues --   -0.47085  -0.46916  -0.46659  -0.46466  -0.46424
 Alpha  occ. eigenvalues --   -0.46160  -0.45859  -0.45815  -0.45290  -0.45234
 Alpha  occ. eigenvalues --   -0.45092  -0.44836  -0.44770  -0.44570  -0.44113
 Alpha  occ. eigenvalues --   -0.43541  -0.43506  -0.42493  -0.42247  -0.42037
 Alpha  occ. eigenvalues --   -0.41840  -0.41630  -0.41186  -0.39013  -0.38681
 Alpha  occ. eigenvalues --   -0.38025  -0.37142  -0.35466  -0.34845  -0.34342
 Alpha  occ. eigenvalues --   -0.33729  -0.32362  -0.31922  -0.31399  -0.26248
 Alpha  occ. eigenvalues --   -0.22067
 Alpha virt. eigenvalues --   -0.08556  -0.01716  -0.00333   0.01714   0.01881
 Alpha virt. eigenvalues --    0.02365   0.02951   0.03295   0.04282   0.04777
 Alpha virt. eigenvalues --    0.06543   0.06684   0.07633   0.07645   0.07999

 Mulliken charges:
               1
     1  Mg   0.438796
     2  C   -0.064412
     3  C   -0.054459
     4  C   -0.050469
     5  C   -0.102665
     6  N   -0.285094
     7  C    0.170513
     8  C    0.003389
     9  C   -0.001220
    10  C    0.062587
    11  C   -0.058098
    12  C   -0.018847
    13  C    0.007924
    14  C    0.472447
    15  O   -0.519979
    16  O   -0.254766
    17  N   -0.282092
    18  C    0.061349
    19  C   -0.006420
    20  C   -0.081673
    21  C    0.124224
    22  C   -0.043524
    23  C    0.334334
    24  O   -0.521079
    25  C   -0.029930
    26  N   -0.263229
    27  C    0.086311
    28  C    0.004442
    29  C    0.006387
    30  C    0.191316
    31  C   -0.045310
    32  C   -0.035223
    33  C   -0.058892
    34  N   -0.335000
    35  C    0.112914
    36  C    0.072529
    37  C   -0.041465
    38  C    0.156146
    39  C   -0.036530
    40  C    0.338317
    41  O   -0.518690
    42  C    0.053058
    43  C    0.495942
    44  O   -0.505552
    45  O   -0.295528
    46  C    0.072177
    47  C    0.095477
    48  C   -0.118412
    49  C    0.026022
    50  C   -0.042766
    51  C   -0.019332
    52  C   -0.027161
    53  C   -0.027601
    54  C   -0.019402
    55  C   -0.063771
    56  C   -0.032739
    57  C   -0.037485
    58  C   -0.037374
    59  C   -0.019558
    60  C   -0.073240
    61  C   -0.032975
    62  C   -0.053093
    63  C   -0.024614
    64  C   -0.008766
    65  C   -0.066210
    66  C   -0.061355
    67  H    0.025582
    68  H    0.041858
    69  H    0.028211
    70  H    0.034650
    71  H    0.015707
    72  H    0.030279
    73  H    0.014658
    74  H    0.031080
    75  H    0.024517
    76  H    0.031970
    77  H    0.028660
    78  H    0.042362
    79  H    0.023296
    80  H    0.019423
    81  H    0.017905
    82  H    0.039447
    83  H    0.029801
    84  H    0.030294
    85  H    0.026274
    86  H    0.034887
    87  H    0.028774
    88  H    0.015284
    89  H    0.023930
    90  H    0.015912
    91  H    0.016589
    92  H    0.023749
    93  H    0.027672
    94  H    0.028533
    95  H    0.023831
    96  H    0.040791
    97  H    0.046296
    98  H    0.056790
    99  H    0.049919
   100  H    0.040011
   101  H    0.034046
   102  H    0.054830
   103  H    0.039933
   104  H    0.029097
   105  H    0.027070
   106  H    0.030218
   107  H    0.021731
   108  H    0.012946
   109  H    0.015125
   110  H    0.008208
   111  H    0.034101
   112  H    0.031879
   113  H    0.021735
   114  H    0.026465
   115  H    0.016626
   116  H    0.012823
   117  H    0.013874
   118  H    0.019518
   119  H    0.018007
   120  H    0.019355
   121  H    0.026112
   122  H    0.010376
   123  H    0.018678
   124  H    0.018466
   125  H    0.019216
   126  H    0.020953
   127  H    0.016687
   128  H    0.020338
   129  H    0.022714
   130  H    0.016408
   131  H    0.021760
   132  H    0.028534
   133  H    0.024901
   134  H    0.024783
   135  H    0.016077
   136  H    0.003027
   137  H    0.023105
   138  H    0.020272
   139  H    0.011957
   140  H    0.028502
 Sum of Mulliken charges =  -0.00000

 Dipole moment (field-independent basis, Debye):
    X=             -2.9094    Y=              3.1277    Z=              3.2211  Tot=              5.3501
 N-N= 4.272942746617D+03 E-N= 0.000000000000D+00  KE=-9.220341868727D+03
 Leave Link  601 at Wed May  4 09:12:20 2022, MaxMem=  6710886400 cpu:               0.8 elap:               0.0
 (Enter /sw/apps/gaussian-16.0/g16/l9999.exe)
 1\1\GINC-BP1-COMPUTE067\SP\RZINDO CIS\STO-3G\C55H74Mg1N4O6\OF15641\04-
 May-2022\0\\#p ZINDO=(nstates=5)\\step_151_chromophore_16 ZINDO\\0,1\M
 g,0,40.711,41.113,26.682\C,0,39.836,43.512,29.264\C,0,41.318,38.823,29
 .209\C,0,41.674,39.087,24.429\C,0,40.214,43.701,24.419\N,0,40.617,41.2
 73,29.028\C,0,40.13,42.219,29.798\C,0,40.078,41.804,31.272\C,0,40.764,
 40.417,31.232\C,0,40.94,40.085,29.734\C,0,42.,40.231,32.245\C,0,38.615
 ,41.9,31.873\C,0,38.351,41.274,33.215\C,0,38.025,42.322,34.353\O,0,37.

 Normal termination of Gaussian 16 at Wed May  4 09:12:20 2022.
