 Gaussian 16, Revision A.03,
 Gaussian 16:  ES64L-G16RevA.03 25-Dec-2016

 ------------------------------
 #p blyp/Def2SVP td=(nstates=5)
 ------------------------------

 -------------------------------------------------
 step_701_chromophore_8 TDDFT with blyp functional
 -------------------------------------------------
 Symbolic Z-matrix:
 Charge =  0 Multiplicity = 1

                         Standard orientation:
 ---------------------------------------------------------------------
 Center     Atomic      Atomic             Coordinates (Angstroms)
 Number     Number       Type             X           Y           Z
 ---------------------------------------------------------------------
      1         12           0       -4.503238   -0.814691    0.028629
      2          6           0       -3.591178    2.463784    0.609835
      3          6           0       -4.390846   -0.163611   -3.381242
      4          6           0       -5.158164   -4.017301   -0.375183
      5          6           0       -4.177900   -1.345599    3.567521
      6          7           0       -3.948007    0.947785   -1.205839
      7          6           0       -3.522306    2.154837   -0.774829
      8          6           0       -3.089800    3.070370   -1.961448
      9          6           0       -3.653208    2.260446   -3.225259
     10          6           0       -3.990018    0.937277   -2.570606
     11          6           0       -4.916968    2.837468   -3.908153
     12          6           0       -1.515403    3.163713   -2.080539
     13          6           0       -0.873529    4.514773   -1.813603
     14          6           0        0.448956    4.753846   -0.909163
     15          8           0        0.526424    4.952182    0.311623
     16          8           0        1.576348    4.759523   -1.771258
     17          7           0       -4.703303   -1.989123   -1.622476
     18          6           0       -4.644719   -1.511987   -2.922935
     19          6           0       -4.719919   -2.685126   -3.760442
     20          6           0       -5.033438   -3.847216   -2.968311
     21          6           0       -4.944914   -3.362766   -1.591007
     22          6           0       -4.602419   -2.641855   -5.287474
     23          6           0       -5.195971   -5.344584   -3.432204
     24          8           0       -4.993656   -5.623746   -4.587149
     25          6           0       -5.687653   -6.457779   -2.527969
     26          7           0       -4.551939   -2.485704    1.380480
     27          6           0       -5.021037   -3.704568    0.999939
     28          6           0       -5.375301   -4.601362    2.197136
     29          6           0       -4.621001   -3.878189    3.353524
     30          6           0       -4.390313   -2.457312    2.768016
     31          6           0       -6.935055   -4.881046    2.370603
     32          6           0       -3.354570   -4.548351    3.830447
     33          6           0       -3.471335   -5.598283    4.972062
     34          7           0       -4.092860    0.297272    1.785999
     35          6           0       -4.002359   -0.034499    3.123724
     36          6           0       -3.855501    1.187194    3.908234
     37          6           0       -3.663474    2.230273    2.979584
     38          6           0       -3.812537    1.579942    1.663373
     39          6           0       -3.820019    1.278519    5.382518
     40          6           0       -3.448441    3.598641    2.760205
     41          8           0       -3.246477    4.457337    3.576530
     42          6           0       -3.443865    3.866177    1.285551
     43          6           0       -4.508064    4.861623    1.011828
     44          8           0       -5.663622    4.719984    1.467832
     45          8           0       -3.974812    5.973711    0.367214
     46          6           0       -4.971024    6.942950   -0.027752
     47          6           0        2.959053    4.943909   -1.216329
     48          6           0        3.397482    3.614820   -0.634194
     49          6           0        4.686848    3.244878   -0.434773
     50          6           0        5.882973    4.203652   -0.761004
     51          6           0        5.012305    1.841024    0.168846
     52          6           0        4.900043    0.626443   -0.769967
     53          6           0        4.460623   -0.572252   -0.020201
     54          6           0        5.181696   -1.862166   -0.457201
     55          6           0        4.314840   -2.973565   -1.068318
     56          6           0        6.119253   -2.373282    0.661149
     57          6           0        7.389456   -1.467050    0.775324
     58          6           0        8.671770   -2.354009    0.794279
     59          6           0        9.580426   -1.844715   -0.333812
     60          6           0        9.372810   -2.852365   -1.531747
     61          6           0       11.026817   -1.860185    0.136414
     62          6           0       12.003651   -1.082759   -0.807984
     63          6           0       13.076908   -0.236227   -0.033610
     64          6           0       14.053568   -1.175456    0.751095
     65          6           0       15.414487   -1.151508    0.048465
     66          6           0       14.200904   -0.661220    2.173696
     67          1           0       -4.261825   -0.002886   -4.454053
     68          1           0       -5.620592   -4.983095   -0.588122
     69          1           0       -4.317046   -1.581622    4.625040
     70          1           0       -3.625980    3.998072   -1.759771
     71          1           0       -2.997988    2.179316   -4.091914
     72          1           0       -4.816954    3.104207   -4.959498
     73          1           0       -5.278010    3.673553   -3.307856
     74          1           0       -5.679980    2.058328   -3.886073
     75          1           0       -1.314174    3.053657   -3.146691
     76          1           0       -1.026976    2.329952   -1.576003
     77          1           0       -1.635398    5.183214   -1.413224
     78          1           0       -0.530877    4.842018   -2.794381
     79          1           0       -5.593745   -2.677678   -5.738649
     80          1           0       -4.014457   -3.460443   -5.704626
     81          1           0       -4.091366   -1.717144   -5.555340
     82          1           0       -6.492897   -6.178947   -1.847690
     83          1           0       -4.798938   -6.792098   -1.993064
     84          1           0       -5.951570   -7.304050   -3.162062
     85          1           0       -4.939625   -5.577180    1.981511
     86          1           0       -5.212812   -3.797570    4.265389
     87          1           0       -7.215471   -5.864437    1.993602
     88          1           0       -7.550585   -4.123104    1.887120
     89          1           0       -7.271473   -4.886941    3.407957
     90          1           0       -2.579102   -3.822991    4.079427
     91          1           0       -3.019913   -4.994718    2.893835
     92          1           0       -2.505879   -5.683005    5.471076
     93          1           0       -3.834322   -6.515131    4.508528
     94          1           0       -4.210528   -5.261110    5.699113
     95          1           0       -4.376639    0.417109    5.750886
     96          1           0       -4.071987    2.301435    5.661541
     97          1           0       -2.801046    1.231254    5.768255
     98          1           0       -2.521253    4.371536    1.000921
     99          1           0       -5.549989    6.346909   -0.732627
    100          1           0       -4.554858    7.821596   -0.520009
    101          1           0       -5.518194    7.405135    0.793829
    102          1           0        3.047444    5.741267   -0.477659
    103          1           0        3.701053    5.023743   -2.010776
    104          1           0        2.510996    3.003088   -0.466817
    105          1           0        6.282158    3.937844   -1.739718
    106          1           0        6.669132    4.041667   -0.024551
    107          1           0        5.625042    5.262222   -0.798738
    108          1           0        4.454248    1.630159    1.080905
    109          1           0        6.050762    1.899807    0.494015
    110          1           0        5.909028    0.605571   -1.182903
    111          1           0        4.160126    0.744869   -1.561241
    112          1           0        3.371612   -0.618769   -0.011863
    113          1           0        4.770820   -0.416858    1.013235
    114          1           0        5.763878   -1.620707   -1.346369
    115          1           0        3.283603   -2.636079   -0.960076
    116          1           0        4.450689   -3.905605   -0.519510
    117          1           0        4.611476   -3.179762   -2.097264
    118          1           0        6.288629   -3.429494    0.452377
    119          1           0        5.675726   -2.273298    1.652227
    120          1           0        7.420018   -0.898280    1.704707
    121          1           0        7.384534   -0.814023   -0.097161
    122          1           0        8.550147   -3.427488    0.649437
    123          1           0        9.153899   -2.106362    1.739682
    124          1           0        9.315169   -0.843950   -0.674973
    125          1           0        8.619442   -3.622728   -1.366825
    126          1           0       10.266549   -3.406022   -1.821691
    127          1           0        8.912675   -2.250898   -2.315325
    128          1           0       11.393405   -2.882834    0.233724
    129          1           0       11.111604   -1.407629    1.124219
    130          1           0       11.385636   -0.460878   -1.455387
    131          1           0       12.594378   -1.741897   -1.443734
    132          1           0       12.549680    0.513312    0.556637
    133          1           0       13.595221    0.353685   -0.789227
    134          1           0       13.793523   -2.234204    0.761058
    135          1           0       16.101437   -1.832519    0.549744
    136          1           0       15.794390   -0.129746    0.066768
    137          1           0       15.357269   -1.384886   -1.014902
    138          1           0       15.212732   -0.337825    2.416420
    139          1           0       13.911713   -1.456367    2.860360
    140          1           0       13.534879    0.171293    2.399124
 ---------------------------------------------------------------------

 SCF Done:  E(RB-LYP) =  -3007.36669410     A.U. after   21 cycles

 Excitation energies and oscillator strengths:

 Excited State   1:      Singlet-A      1.8208 eV  680.95 nm  f=0.0433  <S**2>=0.000
     244 -> 247        0.57543
     245 -> 247       -0.32783
     246 -> 247        0.23459
 This state for optimization and/or second-order correction.
 Total Energy, E(TD-HF/TD-DFT) =  -3007.29978223
 Copying the excited state density for this state as the 1-particle RhoCI density.

 Excited State   2:      Singlet-A      1.8526 eV  669.24 nm  f=0.2583  <S**2>=0.000
     244 -> 247       -0.19946
     245 -> 247        0.13355
     245 -> 248       -0.20184
     246 -> 247        0.64236
     246 <- 247       -0.13233

 Excited State   3:      Singlet-A      2.0289 eV  611.10 nm  f=0.0004  <S**2>=0.000
     243 -> 247        0.70317

 Excited State   4:      Singlet-A      2.0763 eV  597.14 nm  f=0.0551  <S**2>=0.000
     244 -> 247        0.33882
     245 -> 247        0.53646
     246 -> 248        0.29002

 Excited State   5:      Singlet-A      2.2381 eV  553.98 nm  f=0.0000  <S**2>=0.000
     242 -> 247        0.70710

 The electronic state is 1-A.
 Alpha  occ. eigenvalues --  -46.27111 -18.83046 -18.81827 -18.77584 -18.76831
 Alpha  occ. eigenvalues --  -18.75688 -18.74368 -14.03884 -14.03132 -14.01022
 Alpha  occ. eigenvalues --  -14.00866 -10.05052 -10.04101 -10.00284  -9.98064
 Alpha  occ. eigenvalues --   -9.97996  -9.97926  -9.97152  -9.96900  -9.96821
 Alpha  occ. eigenvalues --   -9.96404  -9.95910  -9.95802  -9.95585  -9.95506
 Alpha  occ. eigenvalues --   -9.94840  -9.94708  -9.94597  -9.94215  -9.94170
 Alpha  occ. eigenvalues --   -9.94020  -9.93804  -9.93598  -9.93532  -9.93452
 Alpha  occ. eigenvalues --   -9.93139  -9.93100  -9.93004  -9.92872  -9.92842
 Alpha  occ. eigenvalues --   -9.92685  -9.92676  -9.92665  -9.92519  -9.92508
 Alpha  occ. eigenvalues --   -9.92422  -9.92009  -9.91888  -9.91811  -9.91485
 Alpha  occ. eigenvalues --   -9.91481  -9.91453  -9.91093  -9.91080  -9.91046
 Alpha  occ. eigenvalues --   -9.90964  -9.90885  -9.90811  -9.90759  -9.90646
 Alpha  occ. eigenvalues --   -9.90631  -9.90583  -9.90496  -9.90456  -9.90441
 Alpha  occ. eigenvalues --   -9.90369  -2.91715  -1.72149  -1.71601  -1.71418
 Alpha  occ. eigenvalues --   -0.97502  -0.95604  -0.92590  -0.91682  -0.89288
 Alpha  occ. eigenvalues --   -0.88828  -0.86917  -0.86093  -0.85246  -0.83997
 Alpha  occ. eigenvalues --   -0.75348  -0.73715  -0.72991  -0.72751  -0.72660
 Alpha  occ. eigenvalues --   -0.71813  -0.71603  -0.71149  -0.70979  -0.70362
 Alpha  occ. eigenvalues --   -0.69193  -0.68379  -0.68207  -0.67617  -0.67191
 Alpha  occ. eigenvalues --   -0.66396  -0.66080  -0.65225  -0.64819  -0.64353
 Alpha  occ. eigenvalues --   -0.63844  -0.62685  -0.62257  -0.61381  -0.60905
 Alpha  occ. eigenvalues --   -0.60330  -0.60013  -0.59812  -0.59381  -0.58603
 Alpha  occ. eigenvalues --   -0.57982  -0.57537  -0.57042  -0.55312  -0.55045
 Alpha  occ. eigenvalues --   -0.54229  -0.53279  -0.52779  -0.51830  -0.51686
 Alpha  occ. eigenvalues --   -0.51271  -0.50744  -0.50717  -0.50210  -0.50186
 Alpha  occ. eigenvalues --   -0.49356  -0.49000  -0.48905  -0.48429  -0.46436
 Alpha  occ. eigenvalues --   -0.46304  -0.45895  -0.45679  -0.45286  -0.44205
 Alpha  occ. eigenvalues --   -0.44042  -0.43301  -0.43208  -0.42753  -0.42550
 Alpha  occ. eigenvalues --   -0.42153  -0.41994  -0.41794  -0.41242  -0.41190
 Alpha  occ. eigenvalues --   -0.41028  -0.40992  -0.40696  -0.40412  -0.40031
 Alpha  occ. eigenvalues --   -0.39725  -0.39485  -0.39440  -0.39267  -0.39062
 Alpha  occ. eigenvalues --   -0.38989  -0.38767  -0.38484  -0.38295  -0.38217
 Alpha  occ. eigenvalues --   -0.38084  -0.37984  -0.37537  -0.37210  -0.37125
 Alpha  occ. eigenvalues --   -0.36913  -0.36803  -0.36510  -0.36435  -0.36063
 Alpha  occ. eigenvalues --   -0.35953  -0.35911  -0.35848  -0.35465  -0.35424
 Alpha  occ. eigenvalues --   -0.35302  -0.35213  -0.35009  -0.34789  -0.34543
 Alpha  occ. eigenvalues --   -0.34382  -0.34332  -0.34245  -0.34150  -0.33949
 Alpha  occ. eigenvalues --   -0.33937  -0.33766  -0.33751  -0.33591  -0.33345
 Alpha  occ. eigenvalues --   -0.33235  -0.33159  -0.32775  -0.32443  -0.32223
 Alpha  occ. eigenvalues --   -0.32017  -0.31787  -0.31596  -0.31446  -0.31119
 Alpha  occ. eigenvalues --   -0.30967  -0.30921  -0.30627  -0.30449  -0.30254
 Alpha  occ. eigenvalues --   -0.30240  -0.30072  -0.29973  -0.29908  -0.29839
 Alpha  occ. eigenvalues --   -0.29756  -0.29689  -0.29478  -0.29339  -0.29073
 Alpha  occ. eigenvalues --   -0.29013  -0.28899  -0.28575  -0.28394  -0.28313
 Alpha  occ. eigenvalues --   -0.28107  -0.27405  -0.27116  -0.26513  -0.26445
 Alpha  occ. eigenvalues --   -0.26235  -0.26053  -0.25783  -0.25515  -0.25346
 Alpha  occ. eigenvalues --   -0.25186  -0.24737  -0.24485  -0.23933  -0.23577
 Alpha  occ. eigenvalues --   -0.22749  -0.22400  -0.21854  -0.21329  -0.20472
 Alpha  occ. eigenvalues --   -0.19982  -0.19604  -0.18763  -0.18079  -0.17276
 Alpha  occ. eigenvalues --   -0.15862
 Alpha virt. eigenvalues --   -0.11379  -0.07056  -0.05895  -0.04393  -0.03884
 Alpha virt. eigenvalues --   -0.03786  -0.02249  -0.01805  -0.01489  -0.00038
 Alpha virt. eigenvalues --    0.00944   0.01344   0.01983   0.02128   0.02355

 Mulliken charges:
               1
     1  Mg   0.690269
     2  C    0.003563
     3  C   -0.060974
     4  C   -0.016628
     5  C   -0.099576
     6  N   -0.192576
     7  C   -0.110770
     8  C    0.048984
     9  C   -0.044962
    10  C    0.030084
    11  C    0.120283
    12  C    0.166468
    13  C    0.080019
    14  C    0.112443
    15  O   -0.183645
    16  O   -0.315018
    17  N   -0.341904
    18  C    0.160026
    19  C   -0.165781
    20  C    0.030530
    21  C    0.105481
    22  C    0.174087
    23  C   -0.081341
    24  O   -0.146427
    25  C    0.146797
    26  N   -0.228667
    27  C   -0.004453
    28  C    0.058393
    29  C    0.014996
    30  C    0.037619
    31  C    0.116380
    32  C    0.070031
    33  C    0.095112
    34  N   -0.223280
    35  C    0.147688
    36  C   -0.195770
    37  C    0.130430
    38  C    0.072601
    39  C    0.184832
    40  C   -0.105620
    41  O   -0.112109
    42  C    0.111265
    43  C    0.103381
    44  O   -0.202788
    45  O   -0.266571
    46  C    0.227309
    47  C    0.311977
    48  C   -0.130922
    49  C   -0.129647
    50  C    0.112321
    51  C    0.109006
    52  C    0.087896
    53  C    0.129387
    54  C   -0.123966
    55  C    0.123883
    56  C    0.116754
    57  C    0.042396
    58  C    0.139077
    59  C   -0.113915
    60  C    0.100935
    61  C    0.101042
    62  C    0.059766
    63  C    0.096073
    64  C   -0.076451
    65  C    0.091510
    66  C    0.116458
    67  H   -0.051933
    68  H   -0.107249
    69  H   -0.056655
    70  H   -0.019205
    71  H   -0.019189
    72  H   -0.005128
    73  H   -0.013155
    74  H   -0.007415
    75  H   -0.022213
    76  H   -0.001089
    77  H    0.013341
    78  H   -0.004477
    79  H    0.007135
    80  H    0.006955
    81  H   -0.028279
    82  H    0.032472
    83  H    0.006062
    84  H   -0.009094
    85  H   -0.030375
    86  H   -0.047825
    87  H   -0.005573
    88  H   -0.001784
    89  H   -0.010378
    90  H   -0.024692
    91  H   -0.032039
    92  H    0.002879
    93  H   -0.003777
    94  H   -0.013233
    95  H   -0.003448
    96  H    0.009153
    97  H    0.000971
    98  H   -0.007904
    99  H    0.007417
   100  H    0.007745
   101  H    0.025311
   102  H    0.024871
   103  H    0.007390
   104  H   -0.026437
   105  H    0.005763
   106  H   -0.001478
   107  H   -0.002519
   108  H   -0.011479
   109  H   -0.046406
   110  H   -0.027989
   111  H   -0.029406
   112  H   -0.027612
   113  H   -0.039614
   114  H   -0.038053
   115  H   -0.024937
   116  H   -0.028704
   117  H   -0.012926
   118  H   -0.034300
   119  H   -0.032722
   120  H   -0.022411
   121  H   -0.011069
   122  H   -0.020749
   123  H   -0.048533
   124  H   -0.030924
   125  H   -0.023027
   126  H   -0.008449
   127  H   -0.019045
   128  H   -0.033811
   129  H   -0.039698
   130  H   -0.041646
   131  H   -0.033067
   132  H   -0.033501
   133  H   -0.039788
   134  H   -0.022128
   135  H   -0.014454
   136  H   -0.021615
   137  H   -0.021300
   138  H   -0.021209
   139  H   -0.021321
   140  H   -0.022824
 Sum of Mulliken charges =  -0.00000

 Dipole moment (field-independent basis, Debye):
    X=              1.1168    Y=             -1.8438    Z=             -1.4650  Tot=              2.6064
 Quadrupole moment (field-independent basis, Debye-Ang):
   XX=           -393.3088   YY=           -403.0012   ZZ=           -413.2109
   XY=             12.3541   XZ=             -2.7613   YZ=            -57.6108

 Normal termination of Gaussian 16 at Thu May  5 08:30:58 2022.
