 Gaussian 16, Revision A.03,
 Gaussian 16:  ES64L-G16RevA.03 25-Dec-2016

 -----------------------------------
 #p cam-b3lyp/Def2SVP td=(nstates=5)
 -----------------------------------

 ------------------------------------------------------
 step_701_chromophore_8 TDDFT with cam-b3lyp functional
 ------------------------------------------------------
 Symbolic Z-matrix:
 Charge =  0 Multiplicity = 1

                         Standard orientation:
 ---------------------------------------------------------------------
 Center     Atomic      Atomic             Coordinates (Angstroms)
 Number     Number       Type             X           Y           Z
 ---------------------------------------------------------------------
      1         12           0       -4.503238   -0.814691    0.028629
      2          6           0       -3.591178    2.463784    0.609835
      3          6           0       -4.390846   -0.163611   -3.381242
      4          6           0       -5.158164   -4.017301   -0.375183
      5          6           0       -4.177900   -1.345599    3.567521
      6          7           0       -3.948007    0.947785   -1.205839
      7          6           0       -3.522306    2.154837   -0.774829
      8          6           0       -3.089800    3.070370   -1.961448
      9          6           0       -3.653208    2.260446   -3.225259
     10          6           0       -3.990018    0.937277   -2.570606
     11          6           0       -4.916968    2.837468   -3.908153
     12          6           0       -1.515403    3.163713   -2.080539
     13          6           0       -0.873529    4.514773   -1.813603
     14          6           0        0.448956    4.753846   -0.909163
     15          8           0        0.526424    4.952182    0.311623
     16          8           0        1.576348    4.759523   -1.771258
     17          7           0       -4.703303   -1.989123   -1.622476
     18          6           0       -4.644719   -1.511987   -2.922935
     19          6           0       -4.719919   -2.685126   -3.760442
     20          6           0       -5.033438   -3.847216   -2.968311
     21          6           0       -4.944914   -3.362766   -1.591007
     22          6           0       -4.602419   -2.641855   -5.287474
     23          6           0       -5.195971   -5.344584   -3.432204
     24          8           0       -4.993656   -5.623746   -4.587149
     25          6           0       -5.687653   -6.457779   -2.527969
     26          7           0       -4.551939   -2.485704    1.380480
     27          6           0       -5.021037   -3.704568    0.999939
     28          6           0       -5.375301   -4.601362    2.197136
     29          6           0       -4.621001   -3.878189    3.353524
     30          6           0       -4.390313   -2.457312    2.768016
     31          6           0       -6.935055   -4.881046    2.370603
     32          6           0       -3.354570   -4.548351    3.830447
     33          6           0       -3.471335   -5.598283    4.972062
     34          7           0       -4.092860    0.297272    1.785999
     35          6           0       -4.002359   -0.034499    3.123724
     36          6           0       -3.855501    1.187194    3.908234
     37          6           0       -3.663474    2.230273    2.979584
     38          6           0       -3.812537    1.579942    1.663373
     39          6           0       -3.820019    1.278519    5.382518
     40          6           0       -3.448441    3.598641    2.760205
     41          8           0       -3.246477    4.457337    3.576530
     42          6           0       -3.443865    3.866177    1.285551
     43          6           0       -4.508064    4.861623    1.011828
     44          8           0       -5.663622    4.719984    1.467832
     45          8           0       -3.974812    5.973711    0.367214
     46          6           0       -4.971024    6.942950   -0.027752
     47          6           0        2.959053    4.943909   -1.216329
     48          6           0        3.397482    3.614820   -0.634194
     49          6           0        4.686848    3.244878   -0.434773
     50          6           0        5.882973    4.203652   -0.761004
     51          6           0        5.012305    1.841024    0.168846
     52          6           0        4.900043    0.626443   -0.769967
     53          6           0        4.460623   -0.572252   -0.020201
     54          6           0        5.181696   -1.862166   -0.457201
     55          6           0        4.314840   -2.973565   -1.068318
     56          6           0        6.119253   -2.373282    0.661149
     57          6           0        7.389456   -1.467050    0.775324
     58          6           0        8.671770   -2.354009    0.794279
     59          6           0        9.580426   -1.844715   -0.333812
     60          6           0        9.372810   -2.852365   -1.531747
     61          6           0       11.026817   -1.860185    0.136414
     62          6           0       12.003651   -1.082759   -0.807984
     63          6           0       13.076908   -0.236227   -0.033610
     64          6           0       14.053568   -1.175456    0.751095
     65          6           0       15.414487   -1.151508    0.048465
     66          6           0       14.200904   -0.661220    2.173696
     67          1           0       -4.261825   -0.002886   -4.454053
     68          1           0       -5.620592   -4.983095   -0.588122
     69          1           0       -4.317046   -1.581622    4.625040
     70          1           0       -3.625980    3.998072   -1.759771
     71          1           0       -2.997988    2.179316   -4.091914
     72          1           0       -4.816954    3.104207   -4.959498
     73          1           0       -5.278010    3.673553   -3.307856
     74          1           0       -5.679980    2.058328   -3.886073
     75          1           0       -1.314174    3.053657   -3.146691
     76          1           0       -1.026976    2.329952   -1.576003
     77          1           0       -1.635398    5.183214   -1.413224
     78          1           0       -0.530877    4.842018   -2.794381
     79          1           0       -5.593745   -2.677678   -5.738649
     80          1           0       -4.014457   -3.460443   -5.704626
     81          1           0       -4.091366   -1.717144   -5.555340
     82          1           0       -6.492897   -6.178947   -1.847690
     83          1           0       -4.798938   -6.792098   -1.993064
     84          1           0       -5.951570   -7.304050   -3.162062
     85          1           0       -4.939625   -5.577180    1.981511
     86          1           0       -5.212812   -3.797570    4.265389
     87          1           0       -7.215471   -5.864437    1.993602
     88          1           0       -7.550585   -4.123104    1.887120
     89          1           0       -7.271473   -4.886941    3.407957
     90          1           0       -2.579102   -3.822991    4.079427
     91          1           0       -3.019913   -4.994718    2.893835
     92          1           0       -2.505879   -5.683005    5.471076
     93          1           0       -3.834322   -6.515131    4.508528
     94          1           0       -4.210528   -5.261110    5.699113
     95          1           0       -4.376639    0.417109    5.750886
     96          1           0       -4.071987    2.301435    5.661541
     97          1           0       -2.801046    1.231254    5.768255
     98          1           0       -2.521253    4.371536    1.000921
     99          1           0       -5.549989    6.346909   -0.732627
    100          1           0       -4.554858    7.821596   -0.520009
    101          1           0       -5.518194    7.405135    0.793829
    102          1           0        3.047444    5.741267   -0.477659
    103          1           0        3.701053    5.023743   -2.010776
    104          1           0        2.510996    3.003088   -0.466817
    105          1           0        6.282158    3.937844   -1.739718
    106          1           0        6.669132    4.041667   -0.024551
    107          1           0        5.625042    5.262222   -0.798738
    108          1           0        4.454248    1.630159    1.080905
    109          1           0        6.050762    1.899807    0.494015
    110          1           0        5.909028    0.605571   -1.182903
    111          1           0        4.160126    0.744869   -1.561241
    112          1           0        3.371612   -0.618769   -0.011863
    113          1           0        4.770820   -0.416858    1.013235
    114          1           0        5.763878   -1.620707   -1.346369
    115          1           0        3.283603   -2.636079   -0.960076
    116          1           0        4.450689   -3.905605   -0.519510
    117          1           0        4.611476   -3.179762   -2.097264
    118          1           0        6.288629   -3.429494    0.452377
    119          1           0        5.675726   -2.273298    1.652227
    120          1           0        7.420018   -0.898280    1.704707
    121          1           0        7.384534   -0.814023   -0.097161
    122          1           0        8.550147   -3.427488    0.649437
    123          1           0        9.153899   -2.106362    1.739682
    124          1           0        9.315169   -0.843950   -0.674973
    125          1           0        8.619442   -3.622728   -1.366825
    126          1           0       10.266549   -3.406022   -1.821691
    127          1           0        8.912675   -2.250898   -2.315325
    128          1           0       11.393405   -2.882834    0.233724
    129          1           0       11.111604   -1.407629    1.124219
    130          1           0       11.385636   -0.460878   -1.455387
    131          1           0       12.594378   -1.741897   -1.443734
    132          1           0       12.549680    0.513312    0.556637
    133          1           0       13.595221    0.353685   -0.789227
    134          1           0       13.793523   -2.234204    0.761058
    135          1           0       16.101437   -1.832519    0.549744
    136          1           0       15.794390   -0.129746    0.066768
    137          1           0       15.357269   -1.384886   -1.014902
    138          1           0       15.212732   -0.337825    2.416420
    139          1           0       13.911713   -1.456367    2.860360
    140          1           0       13.534879    0.171293    2.399124
 ---------------------------------------------------------------------

 SCF Done:  E(RCAM-B3LYP) =  -3007.15274559     A.U. after   19 cycles

 Excitation energies and oscillator strengths:

 Excited State   1:      Singlet-A      1.7287 eV  717.20 nm  f=0.3599  <S**2>=0.000
     245 -> 248        0.19713
     246 -> 247        0.68187
     245 <- 248        0.11305
 This state for optimization and/or second-order correction.
 Total Energy, E(TD-HF/TD-DFT) =  -3007.08921599
 Copying the excited state density for this state as the 1-particle RhoCI density.

 Excited State   2:      Singlet-A      2.2600 eV  548.61 nm  f=0.0727  <S**2>=0.000
     245 -> 247        0.61893
     246 -> 248       -0.33310

 Excited State   3:      Singlet-A      3.3426 eV  370.92 nm  f=0.0093  <S**2>=0.000
     243 -> 247        0.67755
     246 -> 248        0.13152

 Excited State   4:      Singlet-A      3.4155 eV  363.00 nm  f=0.1001  <S**2>=0.000
     241 -> 247        0.43090
     241 -> 249        0.22691
     241 -> 250       -0.13228
     242 -> 247       -0.33734
     245 -> 247       -0.12291
     246 -> 248       -0.29155

 Excited State   5:      Singlet-A      3.5457 eV  349.68 nm  f=0.3465  <S**2>=0.000
     239 -> 247        0.12619
     241 -> 247        0.37178
     241 -> 249        0.18004
     241 -> 250       -0.10036
     242 -> 247        0.25906
     243 -> 247       -0.10730
     245 -> 247        0.21121
     246 -> 248        0.41162

 The electronic state is 1-A.
 Alpha  occ. eigenvalues --  -46.88683 -19.26075 -19.24634 -19.20623 -19.20007
 Alpha  occ. eigenvalues --  -19.18891 -19.17534 -14.42812 -14.42102 -14.39510
 Alpha  occ. eigenvalues --  -14.39345 -10.40562 -10.39680 -10.35443 -10.33139
 Alpha  occ. eigenvalues --  -10.32101 -10.31940 -10.31796 -10.31434 -10.31335
 Alpha  occ. eigenvalues --  -10.30866 -10.30359 -10.30152 -10.29881 -10.29719
 Alpha  occ. eigenvalues --  -10.28997 -10.28863 -10.28742 -10.28344 -10.28325
 Alpha  occ. eigenvalues --  -10.28163 -10.28138 -10.27978 -10.27753 -10.27707
 Alpha  occ. eigenvalues --  -10.27326 -10.27236 -10.27093 -10.26974 -10.26894
 Alpha  occ. eigenvalues --  -10.26826 -10.26542 -10.26461 -10.26395 -10.26199
 Alpha  occ. eigenvalues --  -10.26163 -10.25721 -10.25556 -10.25517 -10.25421
 Alpha  occ. eigenvalues --  -10.25263 -10.25161 -10.24749 -10.24744 -10.24728
 Alpha  occ. eigenvalues --  -10.24641 -10.24563 -10.24524 -10.24446 -10.24335
 Alpha  occ. eigenvalues --  -10.24226 -10.24225 -10.24208 -10.24082 -10.23985
 Alpha  occ. eigenvalues --  -10.23921  -3.17192  -1.92104  -1.91648  -1.91492
 Alpha  occ. eigenvalues --   -1.16032  -1.13977  -1.11031  -1.10123  -1.07328
 Alpha  occ. eigenvalues --   -1.06609  -1.04713  -1.03769  -1.02904  -1.01500
 Alpha  occ. eigenvalues --   -0.92537  -0.90552  -0.89785  -0.89520  -0.89373
 Alpha  occ. eigenvalues --   -0.88496  -0.88294  -0.87738  -0.87575  -0.86990
 Alpha  occ. eigenvalues --   -0.85618  -0.84802  -0.84539  -0.83818  -0.83375
 Alpha  occ. eigenvalues --   -0.82452  -0.82130  -0.81286  -0.80598  -0.80196
 Alpha  occ. eigenvalues --   -0.79614  -0.78347  -0.77819  -0.76964  -0.76382
 Alpha  occ. eigenvalues --   -0.75651  -0.75356  -0.75148  -0.74638  -0.73797
 Alpha  occ. eigenvalues --   -0.73004  -0.72496  -0.72004  -0.70104  -0.69664
 Alpha  occ. eigenvalues --   -0.68874  -0.67823  -0.67165  -0.66130  -0.65941
 Alpha  occ. eigenvalues --   -0.65354  -0.64947  -0.64862  -0.64256  -0.64166
 Alpha  occ. eigenvalues --   -0.63301  -0.62815  -0.62535  -0.62245  -0.59927
 Alpha  occ. eigenvalues --   -0.59904  -0.59526  -0.59046  -0.58727  -0.57833
 Alpha  occ. eigenvalues --   -0.57556  -0.56605  -0.56533  -0.55987  -0.55778
 Alpha  occ. eigenvalues --   -0.55481  -0.55158  -0.54513  -0.54042  -0.53893
 Alpha  occ. eigenvalues --   -0.53834  -0.53762  -0.53403  -0.53046  -0.52788
 Alpha  occ. eigenvalues --   -0.52199  -0.52037  -0.52014  -0.51994  -0.51854
 Alpha  occ. eigenvalues --   -0.51674  -0.51357  -0.51063  -0.50861  -0.50626
 Alpha  occ. eigenvalues --   -0.50419  -0.50259  -0.49864  -0.49507  -0.49436
 Alpha  occ. eigenvalues --   -0.49311  -0.49143  -0.48886  -0.48755  -0.48537
 Alpha  occ. eigenvalues --   -0.48521  -0.48193  -0.47964  -0.47869  -0.47520
 Alpha  occ. eigenvalues --   -0.47325  -0.47131  -0.47041  -0.46940  -0.46458
 Alpha  occ. eigenvalues --   -0.46364  -0.46130  -0.46113  -0.45980  -0.45791
 Alpha  occ. eigenvalues --   -0.45675  -0.45625  -0.45570  -0.45492  -0.45075
 Alpha  occ. eigenvalues --   -0.44904  -0.44802  -0.44487  -0.44161  -0.43944
 Alpha  occ. eigenvalues --   -0.43590  -0.43438  -0.43140  -0.42926  -0.42635
 Alpha  occ. eigenvalues --   -0.42525  -0.42253  -0.42143  -0.42113  -0.41851
 Alpha  occ. eigenvalues --   -0.41707  -0.41638  -0.41593  -0.41241  -0.41211
 Alpha  occ. eigenvalues --   -0.41027  -0.40846  -0.40747  -0.40552  -0.40170
 Alpha  occ. eigenvalues --   -0.40068  -0.39928  -0.39735  -0.39409  -0.39336
 Alpha  occ. eigenvalues --   -0.39061  -0.38246  -0.37960  -0.37438  -0.37276
 Alpha  occ. eigenvalues --   -0.37173  -0.37075  -0.36759  -0.36680  -0.36359
 Alpha  occ. eigenvalues --   -0.35772  -0.35511  -0.35232  -0.34660  -0.34362
 Alpha  occ. eigenvalues --   -0.33700  -0.33232  -0.33056  -0.31146  -0.30970
 Alpha  occ. eigenvalues --   -0.30276  -0.29776  -0.29298  -0.29234  -0.24140
 Alpha  occ. eigenvalues --   -0.21142
 Alpha virt. eigenvalues --   -0.08449  -0.02135   0.00675   0.02606   0.03005
 Alpha virt. eigenvalues --    0.03840   0.03979   0.04992   0.05686   0.06535
 Alpha virt. eigenvalues --    0.07535   0.08058   0.08362   0.08673   0.08742

 Mulliken charges:
               1
     1  Mg   0.824128
     2  C   -0.029714
     3  C   -0.072021
     4  C   -0.040895
     5  C   -0.102796
     6  N   -0.262718
     7  C   -0.065063
     8  C   -0.002452
     9  C   -0.095280
    10  C    0.045476
    11  C    0.062852
    12  C    0.111844
    13  C    0.017053
    14  C    0.192943
    15  O   -0.223764
    16  O   -0.383151
    17  N   -0.430628
    18  C    0.166064
    19  C   -0.176285
    20  C   -0.030999
    21  C    0.133093
    22  C    0.122647
    23  C   -0.003214
    24  O   -0.186052
    25  C    0.058183
    26  N   -0.297714
    27  C    0.016891
    28  C    0.000801
    29  C   -0.039291
    30  C    0.052042
    31  C    0.061758
    32  C    0.015991
    33  C    0.034968
    34  N   -0.312816
    35  C    0.147780
    36  C   -0.182328
    37  C    0.048589
    38  C    0.112101
    39  C    0.132045
    40  C   -0.008074
    41  O   -0.151341
    42  C    0.037566
    43  C    0.195047
    44  O   -0.239023
    45  O   -0.331090
    46  C    0.184549
    47  C    0.278186
    48  C   -0.137352
    49  C   -0.161623
    50  C    0.051250
    51  C    0.057333
    52  C    0.032954
    53  C    0.070746
    54  C   -0.178591
    55  C    0.068103
    56  C    0.062116
    57  C   -0.002870
    58  C    0.081786
    59  C   -0.167038
    60  C    0.043867
    61  C    0.047936
    62  C    0.011501
    63  C    0.041838
    64  C   -0.143149
    65  C    0.036798
    66  C    0.054923
    67  H   -0.016812
    68  H   -0.072411
    69  H   -0.020834
    70  H    0.011815
    71  H    0.016208
    72  H    0.019950
    73  H    0.010576
    74  H    0.020279
    75  H    0.009863
    76  H    0.029977
    77  H    0.041135
    78  H    0.030156
    79  H    0.033102
    80  H    0.036195
    81  H   -0.004925
    82  H    0.056852
    83  H    0.034843
    84  H    0.027462
    85  H    0.005345
    86  H   -0.013405
    87  H    0.017525
    88  H    0.023222
    89  H    0.014247
    90  H    0.006523
    91  H   -0.004735
    92  H    0.027225
    93  H    0.017664
    94  H    0.008619
    95  H    0.018363
    96  H    0.037421
    97  H    0.029180
    98  H    0.036628
    99  H    0.028332
   100  H    0.032170
   101  H    0.049325
   102  H    0.053227
   103  H    0.034545
   104  H    0.004237
   105  H    0.029316
   106  H    0.022673
   107  H    0.020728
   108  H    0.018307
   109  H   -0.018046
   110  H   -0.000742
   111  H    0.000576
   112  H    0.002183
   113  H   -0.011369
   114  H   -0.006544
   115  H   -0.000756
   116  H   -0.004010
   117  H    0.010699
   118  H   -0.006882
   119  H   -0.002979
   120  H    0.005146
   121  H    0.008560
   122  H    0.006785
   123  H   -0.016618
   124  H   -0.000188
   125  H   -0.000156
   126  H    0.015574
   127  H    0.004027
   128  H   -0.006598
   129  H   -0.012235
   130  H   -0.012859
   131  H   -0.007539
   132  H   -0.005472
   133  H   -0.009567
   134  H    0.008377
   135  H    0.010186
   136  H    0.001632
   137  H    0.002567
   138  H    0.004470
   139  H    0.003266
   140  H    0.001981
 Sum of Mulliken charges =  -0.00000

 Dipole moment (field-independent basis, Debye):
    X=              0.9415    Y=             -2.0659    Z=             -1.6406  Tot=              2.8010
 Quadrupole moment (field-independent basis, Debye-Ang):
   XX=           -391.7910   YY=           -399.3727   ZZ=           -411.6280
   XY=             14.2796   XZ=             -2.0577   YZ=            -59.6044

 Normal termination of Gaussian 16 at Thu May  5 06:49:23 2022.
