 Gaussian 16, Revision A.03,
 Gaussian 16:  ES64L-G16RevA.03 25-Dec-2016

 ---------------------------------
 #p PBE1PBE/Def2SVP td=(nstates=5)
 ---------------------------------

 ----------------------------------------------------
 step_701_chromophore_8 TDDFT with PBE1PBE functional
 ----------------------------------------------------
 Symbolic Z-matrix:
 Charge =  0 Multiplicity = 1

                         Standard orientation:
 ---------------------------------------------------------------------
 Center     Atomic      Atomic             Coordinates (Angstroms)
 Number     Number       Type             X           Y           Z
 ---------------------------------------------------------------------
      1         12           0       -4.503238   -0.814691    0.028629
      2          6           0       -3.591178    2.463784    0.609835
      3          6           0       -4.390846   -0.163611   -3.381242
      4          6           0       -5.158164   -4.017301   -0.375183
      5          6           0       -4.177900   -1.345599    3.567521
      6          7           0       -3.948007    0.947785   -1.205839
      7          6           0       -3.522306    2.154837   -0.774829
      8          6           0       -3.089800    3.070370   -1.961448
      9          6           0       -3.653208    2.260446   -3.225259
     10          6           0       -3.990018    0.937277   -2.570606
     11          6           0       -4.916968    2.837468   -3.908153
     12          6           0       -1.515403    3.163713   -2.080539
     13          6           0       -0.873529    4.514773   -1.813603
     14          6           0        0.448956    4.753846   -0.909163
     15          8           0        0.526424    4.952182    0.311623
     16          8           0        1.576348    4.759523   -1.771258
     17          7           0       -4.703303   -1.989123   -1.622476
     18          6           0       -4.644719   -1.511987   -2.922935
     19          6           0       -4.719919   -2.685126   -3.760442
     20          6           0       -5.033438   -3.847216   -2.968311
     21          6           0       -4.944914   -3.362766   -1.591007
     22          6           0       -4.602419   -2.641855   -5.287474
     23          6           0       -5.195971   -5.344584   -3.432204
     24          8           0       -4.993656   -5.623746   -4.587149
     25          6           0       -5.687653   -6.457779   -2.527969
     26          7           0       -4.551939   -2.485704    1.380480
     27          6           0       -5.021037   -3.704568    0.999939
     28          6           0       -5.375301   -4.601362    2.197136
     29          6           0       -4.621001   -3.878189    3.353524
     30          6           0       -4.390313   -2.457312    2.768016
     31          6           0       -6.935055   -4.881046    2.370603
     32          6           0       -3.354570   -4.548351    3.830447
     33          6           0       -3.471335   -5.598283    4.972062
     34          7           0       -4.092860    0.297272    1.785999
     35          6           0       -4.002359   -0.034499    3.123724
     36          6           0       -3.855501    1.187194    3.908234
     37          6           0       -3.663474    2.230273    2.979584
     38          6           0       -3.812537    1.579942    1.663373
     39          6           0       -3.820019    1.278519    5.382518
     40          6           0       -3.448441    3.598641    2.760205
     41          8           0       -3.246477    4.457337    3.576530
     42          6           0       -3.443865    3.866177    1.285551
     43          6           0       -4.508064    4.861623    1.011828
     44          8           0       -5.663622    4.719984    1.467832
     45          8           0       -3.974812    5.973711    0.367214
     46          6           0       -4.971024    6.942950   -0.027752
     47          6           0        2.959053    4.943909   -1.216329
     48          6           0        3.397482    3.614820   -0.634194
     49          6           0        4.686848    3.244878   -0.434773
     50          6           0        5.882973    4.203652   -0.761004
     51          6           0        5.012305    1.841024    0.168846
     52          6           0        4.900043    0.626443   -0.769967
     53          6           0        4.460623   -0.572252   -0.020201
     54          6           0        5.181696   -1.862166   -0.457201
     55          6           0        4.314840   -2.973565   -1.068318
     56          6           0        6.119253   -2.373282    0.661149
     57          6           0        7.389456   -1.467050    0.775324
     58          6           0        8.671770   -2.354009    0.794279
     59          6           0        9.580426   -1.844715   -0.333812
     60          6           0        9.372810   -2.852365   -1.531747
     61          6           0       11.026817   -1.860185    0.136414
     62          6           0       12.003651   -1.082759   -0.807984
     63          6           0       13.076908   -0.236227   -0.033610
     64          6           0       14.053568   -1.175456    0.751095
     65          6           0       15.414487   -1.151508    0.048465
     66          6           0       14.200904   -0.661220    2.173696
     67          1           0       -4.261825   -0.002886   -4.454053
     68          1           0       -5.620592   -4.983095   -0.588122
     69          1           0       -4.317046   -1.581622    4.625040
     70          1           0       -3.625980    3.998072   -1.759771
     71          1           0       -2.997988    2.179316   -4.091914
     72          1           0       -4.816954    3.104207   -4.959498
     73          1           0       -5.278010    3.673553   -3.307856
     74          1           0       -5.679980    2.058328   -3.886073
     75          1           0       -1.314174    3.053657   -3.146691
     76          1           0       -1.026976    2.329952   -1.576003
     77          1           0       -1.635398    5.183214   -1.413224
     78          1           0       -0.530877    4.842018   -2.794381
     79          1           0       -5.593745   -2.677678   -5.738649
     80          1           0       -4.014457   -3.460443   -5.704626
     81          1           0       -4.091366   -1.717144   -5.555340
     82          1           0       -6.492897   -6.178947   -1.847690
     83          1           0       -4.798938   -6.792098   -1.993064
     84          1           0       -5.951570   -7.304050   -3.162062
     85          1           0       -4.939625   -5.577180    1.981511
     86          1           0       -5.212812   -3.797570    4.265389
     87          1           0       -7.215471   -5.864437    1.993602
     88          1           0       -7.550585   -4.123104    1.887120
     89          1           0       -7.271473   -4.886941    3.407957
     90          1           0       -2.579102   -3.822991    4.079427
     91          1           0       -3.019913   -4.994718    2.893835
     92          1           0       -2.505879   -5.683005    5.471076
     93          1           0       -3.834322   -6.515131    4.508528
     94          1           0       -4.210528   -5.261110    5.699113
     95          1           0       -4.376639    0.417109    5.750886
     96          1           0       -4.071987    2.301435    5.661541
     97          1           0       -2.801046    1.231254    5.768255
     98          1           0       -2.521253    4.371536    1.000921
     99          1           0       -5.549989    6.346909   -0.732627
    100          1           0       -4.554858    7.821596   -0.520009
    101          1           0       -5.518194    7.405135    0.793829
    102          1           0        3.047444    5.741267   -0.477659
    103          1           0        3.701053    5.023743   -2.010776
    104          1           0        2.510996    3.003088   -0.466817
    105          1           0        6.282158    3.937844   -1.739718
    106          1           0        6.669132    4.041667   -0.024551
    107          1           0        5.625042    5.262222   -0.798738
    108          1           0        4.454248    1.630159    1.080905
    109          1           0        6.050762    1.899807    0.494015
    110          1           0        5.909028    0.605571   -1.182903
    111          1           0        4.160126    0.744869   -1.561241
    112          1           0        3.371612   -0.618769   -0.011863
    113          1           0        4.770820   -0.416858    1.013235
    114          1           0        5.763878   -1.620707   -1.346369
    115          1           0        3.283603   -2.636079   -0.960076
    116          1           0        4.450689   -3.905605   -0.519510
    117          1           0        4.611476   -3.179762   -2.097264
    118          1           0        6.288629   -3.429494    0.452377
    119          1           0        5.675726   -2.273298    1.652227
    120          1           0        7.420018   -0.898280    1.704707
    121          1           0        7.384534   -0.814023   -0.097161
    122          1           0        8.550147   -3.427488    0.649437
    123          1           0        9.153899   -2.106362    1.739682
    124          1           0        9.315169   -0.843950   -0.674973
    125          1           0        8.619442   -3.622728   -1.366825
    126          1           0       10.266549   -3.406022   -1.821691
    127          1           0        8.912675   -2.250898   -2.315325
    128          1           0       11.393405   -2.882834    0.233724
    129          1           0       11.111604   -1.407629    1.124219
    130          1           0       11.385636   -0.460878   -1.455387
    131          1           0       12.594378   -1.741897   -1.443734
    132          1           0       12.549680    0.513312    0.556637
    133          1           0       13.595221    0.353685   -0.789227
    134          1           0       13.793523   -2.234204    0.761058
    135          1           0       16.101437   -1.832519    0.549744
    136          1           0       15.794390   -0.129746    0.066768
    137          1           0       15.357269   -1.384886   -1.014902
    138          1           0       15.212732   -0.337825    2.416420
    139          1           0       13.911713   -1.456367    2.860360
    140          1           0       13.534879    0.171293    2.399124
 ---------------------------------------------------------------------

 SCF Done:  E(RPBE1PBE) =  -3005.34081022     A.U. after   15 cycles

 Excitation energies and oscillator strengths:

 Excited State   1:      Singlet-A      1.8947 eV  654.38 nm  f=0.3518  <S**2>=0.000
     245 -> 248       -0.19200
     246 -> 247        0.68808
 This state for optimization and/or second-order correction.
 Total Energy, E(TD-HF/TD-DFT) =  -3005.27118149
 Copying the excited state density for this state as the 1-particle RhoCI density.

 Excited State   2:      Singlet-A      2.2742 eV  545.18 nm  f=0.0756  <S**2>=0.000
     245 -> 247        0.63259
     246 -> 248        0.30616

 Excited State   3:      Singlet-A      2.9097 eV  426.11 nm  f=0.0005  <S**2>=0.000
     242 -> 247        0.60580
     242 -> 249       -0.15279
     243 -> 247        0.29454

 Excited State   4:      Singlet-A      2.9992 eV  413.40 nm  f=0.0017  <S**2>=0.000
     242 -> 247       -0.28051
     243 -> 247        0.63375

 Excited State   5:      Singlet-A      3.2022 eV  387.18 nm  f=0.0011  <S**2>=0.000
     240 -> 247       -0.23577
     241 -> 247        0.64235

 The electronic state is 1-A.
 Alpha  occ. eigenvalues --  -46.92060 -19.26707 -19.25397 -19.20885 -19.20232
 Alpha  occ. eigenvalues --  -19.19087 -19.17744 -14.42308 -14.41596 -14.39116
 Alpha  occ. eigenvalues --  -14.39018 -10.37652 -10.36700 -10.32615 -10.30235
 Alpha  occ. eigenvalues --  -10.29513 -10.29498 -10.29147 -10.29134 -10.29060
 Alpha  occ. eigenvalues --  -10.28630 -10.28034 -10.27865 -10.27587 -10.27549
 Alpha  occ. eigenvalues --  -10.26675 -10.26643 -10.26577 -10.26155 -10.25831
 Alpha  occ. eigenvalues --  -10.25787 -10.25744 -10.25695 -10.25575 -10.25400
 Alpha  occ. eigenvalues --  -10.24932 -10.24932 -10.24846 -10.24554 -10.24452
 Alpha  occ. eigenvalues --  -10.24376 -10.23946 -10.23896 -10.23811 -10.23790
 Alpha  occ. eigenvalues --  -10.23589 -10.23216 -10.23130 -10.23069 -10.22945
 Alpha  occ. eigenvalues --  -10.22877 -10.22711 -10.22454 -10.22358 -10.22313
 Alpha  occ. eigenvalues --  -10.22307 -10.22102 -10.22037 -10.22026 -10.21769
 Alpha  occ. eigenvalues --  -10.21748 -10.21740 -10.21675 -10.21607 -10.21371
 Alpha  occ. eigenvalues --  -10.21297  -3.14151  -1.87004  -1.86526  -1.86374
 Alpha  occ. eigenvalues --   -1.10785  -1.08770  -1.05789  -1.04866  -1.02107
 Alpha  occ. eigenvalues --   -1.01490  -0.99309  -0.98403  -0.97499  -0.96152
 Alpha  occ. eigenvalues --   -0.86879  -0.84642  -0.84002  -0.83659  -0.83617
 Alpha  occ. eigenvalues --   -0.82682  -0.82532  -0.81970  -0.81777  -0.81290
 Alpha  occ. eigenvalues --   -0.79882  -0.79091  -0.78726  -0.78085  -0.77619
 Alpha  occ. eigenvalues --   -0.76599  -0.76349  -0.75510  -0.74894  -0.74495
 Alpha  occ. eigenvalues --   -0.73753  -0.72644  -0.72109  -0.71268  -0.70671
 Alpha  occ. eigenvalues --   -0.69809  -0.69494  -0.69433  -0.68742  -0.67980
 Alpha  occ. eigenvalues --   -0.67378  -0.66874  -0.66447  -0.64393  -0.64034
 Alpha  occ. eigenvalues --   -0.63344  -0.62032  -0.61581  -0.60471  -0.60340
 Alpha  occ. eigenvalues --   -0.59730  -0.59395  -0.59126  -0.58748  -0.58342
 Alpha  occ. eigenvalues --   -0.57480  -0.57362  -0.57055  -0.56450  -0.54429
 Alpha  occ. eigenvalues --   -0.54243  -0.54076  -0.53690  -0.53342  -0.52334
 Alpha  occ. eigenvalues --   -0.52073  -0.51075  -0.50909  -0.50565  -0.50272
 Alpha  occ. eigenvalues --   -0.50064  -0.49706  -0.48905  -0.48564  -0.48476
 Alpha  occ. eigenvalues --   -0.48354  -0.48209  -0.47853  -0.47535  -0.47365
 Alpha  occ. eigenvalues --   -0.46893  -0.46656  -0.46532  -0.46479  -0.46394
 Alpha  occ. eigenvalues --   -0.46122  -0.45868  -0.45618  -0.45401  -0.45144
 Alpha  occ. eigenvalues --   -0.45027  -0.44858  -0.44514  -0.44075  -0.44025
 Alpha  occ. eigenvalues --   -0.43840  -0.43769  -0.43403  -0.43329  -0.43153
 Alpha  occ. eigenvalues --   -0.43082  -0.42839  -0.42628  -0.42421  -0.42178
 Alpha  occ. eigenvalues --   -0.42027  -0.41814  -0.41711  -0.41647  -0.41154
 Alpha  occ. eigenvalues --   -0.41046  -0.40834  -0.40776  -0.40636  -0.40487
 Alpha  occ. eigenvalues --   -0.40360  -0.40269  -0.40231  -0.40120  -0.39827
 Alpha  occ. eigenvalues --   -0.39559  -0.39439  -0.39236  -0.38911  -0.38761
 Alpha  occ. eigenvalues --   -0.38364  -0.38233  -0.37936  -0.37652  -0.37407
 Alpha  occ. eigenvalues --   -0.37332  -0.36960  -0.36937  -0.36874  -0.36752
 Alpha  occ. eigenvalues --   -0.36594  -0.36502  -0.36432  -0.36081  -0.35963
 Alpha  occ. eigenvalues --   -0.35794  -0.35755  -0.35582  -0.35383  -0.35061
 Alpha  occ. eigenvalues --   -0.34906  -0.34727  -0.34611  -0.34306  -0.34049
 Alpha  occ. eigenvalues --   -0.33801  -0.33048  -0.32708  -0.32454  -0.32278
 Alpha  occ. eigenvalues --   -0.32070  -0.32054  -0.31683  -0.31574  -0.31216
 Alpha  occ. eigenvalues --   -0.30666  -0.30449  -0.30075  -0.29848  -0.29254
 Alpha  occ. eigenvalues --   -0.28723  -0.28564  -0.28037  -0.26759  -0.25772
 Alpha  occ. eigenvalues --   -0.25445  -0.25048  -0.24864  -0.24482  -0.21056
 Alpha  occ. eigenvalues --   -0.18796
 Alpha virt. eigenvalues --   -0.10942  -0.05535  -0.03565  -0.01766  -0.00881
 Alpha virt. eigenvalues --   -0.00674   0.00262   0.01009   0.01252   0.02927
 Alpha virt. eigenvalues --    0.03524   0.04374   0.04778   0.05050   0.05212

 Mulliken charges:
               1
     1  Mg   0.973285
     2  C   -0.034235
     3  C   -0.060363
     4  C   -0.055755
     5  C   -0.092083
     6  N   -0.365040
     7  C    0.014392
     8  C   -0.084393
     9  C   -0.167160
    10  C    0.076450
    11  C    0.008460
    12  C    0.066594
    13  C   -0.057846
    14  C    0.255704
    15  O   -0.255164
    16  O   -0.410521
    17  N   -0.546693
    18  C    0.193555
    19  C   -0.208449
    20  C   -0.072618
    21  C    0.163464
    22  C    0.064619
    23  C    0.049964
    24  O   -0.220271
    25  C   -0.023008
    26  N   -0.397122
    27  C    0.057267
    28  C   -0.076168
    29  C   -0.116394
    30  C    0.087556
    31  C    0.006374
    32  C   -0.039734
    33  C   -0.039219
    34  N   -0.441753
    35  C    0.164475
    36  C   -0.193024
    37  C   -0.005687
    38  C    0.160029
    39  C    0.079033
    40  C    0.090299
    41  O   -0.199866
    42  C   -0.073336
    43  C    0.283180
    44  O   -0.271299
    45  O   -0.364142
    46  C    0.129291
    47  C    0.233024
    48  C   -0.137794
    49  C   -0.207966
    50  C   -0.015629
    51  C   -0.006151
    52  C   -0.028492
    53  C    0.016448
    54  C   -0.264309
    55  C    0.009695
    56  C    0.004484
    57  C   -0.064610
    58  C    0.026145
    59  C   -0.256535
    60  C   -0.008174
    61  C   -0.003823
    62  C   -0.052497
    63  C   -0.013922
    64  C   -0.238133
    65  C   -0.025332
    66  C   -0.001276
    67  H    0.013686
    68  H   -0.031537
    69  H    0.009707
    70  H    0.051728
    71  H    0.050501
    72  H    0.046632
    73  H    0.039030
    74  H    0.048875
    75  H    0.042877
    76  H    0.060575
    77  H    0.072091
    78  H    0.061985
    79  H    0.061263
    80  H    0.063587
    81  H    0.022951
    82  H    0.080398
    83  H    0.063555
    84  H    0.056038
    85  H    0.042310
    86  H    0.023848
    87  H    0.044123
    88  H    0.050493
    89  H    0.041368
    90  H    0.039492
    91  H    0.029769
    92  H    0.054837
    93  H    0.045714
    94  H    0.035811
    95  H    0.045322
    96  H    0.064713
    97  H    0.057529
    98  H    0.076950
    99  H    0.050370
   100  H    0.054065
   101  H    0.070586
   102  H    0.079160
   103  H    0.061842
   104  H    0.034426
   105  H    0.057435
   106  H    0.049981
   107  H    0.047136
   108  H    0.049815
   109  H    0.015373
   110  H    0.030796
   111  H    0.034276
   112  H    0.033737
   113  H    0.022526
   114  H    0.033248
   115  H    0.027320
   116  H    0.023299
   117  H    0.037507
   118  H    0.024413
   119  H    0.030934
   120  H    0.036715
   121  H    0.043246
   122  H    0.037322
   123  H    0.017699
   124  H    0.035426
   125  H    0.026550
   126  H    0.041746
   127  H    0.031224
   128  H    0.025609
   129  H    0.022009
   130  H    0.020010
   131  H    0.026038
   132  H    0.026246
   133  H    0.023091
   134  H    0.044552
   135  H    0.038701
   136  H    0.029872
   137  H    0.031257
   138  H    0.031178
   139  H    0.030769
   140  H    0.028477
 Sum of Mulliken charges =  -0.00000

 Dipole moment (field-independent basis, Debye):
    X=              0.9624    Y=             -2.1372    Z=             -1.6293  Tot=              2.8545
 Quadrupole moment (field-independent basis, Debye-Ang):
   XX=           -388.6930   YY=           -395.9407   ZZ=           -407.2439
   XY=             14.8201   XZ=             -2.3266   YZ=            -60.6509

 Normal termination of Gaussian 16 at Thu May  5 07:25:41 2022.
