 Gaussian 16, Revision A.03,
 Gaussian 16:  ES64L-G16RevA.03 25-Dec-2016

 --------------------------------
 #p wB97XD/Def2SVP td=(nstates=5)
 --------------------------------

 ---------------------------------------------------
 step_701_chromophore_8 TDDFT with wB97XD functional
 ---------------------------------------------------
 Symbolic Z-matrix:
 Charge =  0 Multiplicity = 1

                         Standard orientation:
 ---------------------------------------------------------------------
 Center     Atomic      Atomic             Coordinates (Angstroms)
 Number     Number       Type             X           Y           Z
 ---------------------------------------------------------------------
      1         12           0       -4.503238   -0.814691    0.028629
      2          6           0       -3.591178    2.463784    0.609835
      3          6           0       -4.390846   -0.163611   -3.381242
      4          6           0       -5.158164   -4.017301   -0.375183
      5          6           0       -4.177900   -1.345599    3.567521
      6          7           0       -3.948007    0.947785   -1.205839
      7          6           0       -3.522306    2.154837   -0.774829
      8          6           0       -3.089800    3.070370   -1.961448
      9          6           0       -3.653208    2.260446   -3.225259
     10          6           0       -3.990018    0.937277   -2.570606
     11          6           0       -4.916968    2.837468   -3.908153
     12          6           0       -1.515403    3.163713   -2.080539
     13          6           0       -0.873529    4.514773   -1.813603
     14          6           0        0.448956    4.753846   -0.909163
     15          8           0        0.526424    4.952182    0.311623
     16          8           0        1.576348    4.759523   -1.771258
     17          7           0       -4.703303   -1.989123   -1.622476
     18          6           0       -4.644719   -1.511987   -2.922935
     19          6           0       -4.719919   -2.685126   -3.760442
     20          6           0       -5.033438   -3.847216   -2.968311
     21          6           0       -4.944914   -3.362766   -1.591007
     22          6           0       -4.602419   -2.641855   -5.287474
     23          6           0       -5.195971   -5.344584   -3.432204
     24          8           0       -4.993656   -5.623746   -4.587149
     25          6           0       -5.687653   -6.457779   -2.527969
     26          7           0       -4.551939   -2.485704    1.380480
     27          6           0       -5.021037   -3.704568    0.999939
     28          6           0       -5.375301   -4.601362    2.197136
     29          6           0       -4.621001   -3.878189    3.353524
     30          6           0       -4.390313   -2.457312    2.768016
     31          6           0       -6.935055   -4.881046    2.370603
     32          6           0       -3.354570   -4.548351    3.830447
     33          6           0       -3.471335   -5.598283    4.972062
     34          7           0       -4.092860    0.297272    1.785999
     35          6           0       -4.002359   -0.034499    3.123724
     36          6           0       -3.855501    1.187194    3.908234
     37          6           0       -3.663474    2.230273    2.979584
     38          6           0       -3.812537    1.579942    1.663373
     39          6           0       -3.820019    1.278519    5.382518
     40          6           0       -3.448441    3.598641    2.760205
     41          8           0       -3.246477    4.457337    3.576530
     42          6           0       -3.443865    3.866177    1.285551
     43          6           0       -4.508064    4.861623    1.011828
     44          8           0       -5.663622    4.719984    1.467832
     45          8           0       -3.974812    5.973711    0.367214
     46          6           0       -4.971024    6.942950   -0.027752
     47          6           0        2.959053    4.943909   -1.216329
     48          6           0        3.397482    3.614820   -0.634194
     49          6           0        4.686848    3.244878   -0.434773
     50          6           0        5.882973    4.203652   -0.761004
     51          6           0        5.012305    1.841024    0.168846
     52          6           0        4.900043    0.626443   -0.769967
     53          6           0        4.460623   -0.572252   -0.020201
     54          6           0        5.181696   -1.862166   -0.457201
     55          6           0        4.314840   -2.973565   -1.068318
     56          6           0        6.119253   -2.373282    0.661149
     57          6           0        7.389456   -1.467050    0.775324
     58          6           0        8.671770   -2.354009    0.794279
     59          6           0        9.580426   -1.844715   -0.333812
     60          6           0        9.372810   -2.852365   -1.531747
     61          6           0       11.026817   -1.860185    0.136414
     62          6           0       12.003651   -1.082759   -0.807984
     63          6           0       13.076908   -0.236227   -0.033610
     64          6           0       14.053568   -1.175456    0.751095
     65          6           0       15.414487   -1.151508    0.048465
     66          6           0       14.200904   -0.661220    2.173696
     67          1           0       -4.261825   -0.002886   -4.454053
     68          1           0       -5.620592   -4.983095   -0.588122
     69          1           0       -4.317046   -1.581622    4.625040
     70          1           0       -3.625980    3.998072   -1.759771
     71          1           0       -2.997988    2.179316   -4.091914
     72          1           0       -4.816954    3.104207   -4.959498
     73          1           0       -5.278010    3.673553   -3.307856
     74          1           0       -5.679980    2.058328   -3.886073
     75          1           0       -1.314174    3.053657   -3.146691
     76          1           0       -1.026976    2.329952   -1.576003
     77          1           0       -1.635398    5.183214   -1.413224
     78          1           0       -0.530877    4.842018   -2.794381
     79          1           0       -5.593745   -2.677678   -5.738649
     80          1           0       -4.014457   -3.460443   -5.704626
     81          1           0       -4.091366   -1.717144   -5.555340
     82          1           0       -6.492897   -6.178947   -1.847690
     83          1           0       -4.798938   -6.792098   -1.993064
     84          1           0       -5.951570   -7.304050   -3.162062
     85          1           0       -4.939625   -5.577180    1.981511
     86          1           0       -5.212812   -3.797570    4.265389
     87          1           0       -7.215471   -5.864437    1.993602
     88          1           0       -7.550585   -4.123104    1.887120
     89          1           0       -7.271473   -4.886941    3.407957
     90          1           0       -2.579102   -3.822991    4.079427
     91          1           0       -3.019913   -4.994718    2.893835
     92          1           0       -2.505879   -5.683005    5.471076
     93          1           0       -3.834322   -6.515131    4.508528
     94          1           0       -4.210528   -5.261110    5.699113
     95          1           0       -4.376639    0.417109    5.750886
     96          1           0       -4.071987    2.301435    5.661541
     97          1           0       -2.801046    1.231254    5.768255
     98          1           0       -2.521253    4.371536    1.000921
     99          1           0       -5.549989    6.346909   -0.732627
    100          1           0       -4.554858    7.821596   -0.520009
    101          1           0       -5.518194    7.405135    0.793829
    102          1           0        3.047444    5.741267   -0.477659
    103          1           0        3.701053    5.023743   -2.010776
    104          1           0        2.510996    3.003088   -0.466817
    105          1           0        6.282158    3.937844   -1.739718
    106          1           0        6.669132    4.041667   -0.024551
    107          1           0        5.625042    5.262222   -0.798738
    108          1           0        4.454248    1.630159    1.080905
    109          1           0        6.050762    1.899807    0.494015
    110          1           0        5.909028    0.605571   -1.182903
    111          1           0        4.160126    0.744869   -1.561241
    112          1           0        3.371612   -0.618769   -0.011863
    113          1           0        4.770820   -0.416858    1.013235
    114          1           0        5.763878   -1.620707   -1.346369
    115          1           0        3.283603   -2.636079   -0.960076
    116          1           0        4.450689   -3.905605   -0.519510
    117          1           0        4.611476   -3.179762   -2.097264
    118          1           0        6.288629   -3.429494    0.452377
    119          1           0        5.675726   -2.273298    1.652227
    120          1           0        7.420018   -0.898280    1.704707
    121          1           0        7.384534   -0.814023   -0.097161
    122          1           0        8.550147   -3.427488    0.649437
    123          1           0        9.153899   -2.106362    1.739682
    124          1           0        9.315169   -0.843950   -0.674973
    125          1           0        8.619442   -3.622728   -1.366825
    126          1           0       10.266549   -3.406022   -1.821691
    127          1           0        8.912675   -2.250898   -2.315325
    128          1           0       11.393405   -2.882834    0.233724
    129          1           0       11.111604   -1.407629    1.124219
    130          1           0       11.385636   -0.460878   -1.455387
    131          1           0       12.594378   -1.741897   -1.443734
    132          1           0       12.549680    0.513312    0.556637
    133          1           0       13.595221    0.353685   -0.789227
    134          1           0       13.793523   -2.234204    0.761058
    135          1           0       16.101437   -1.832519    0.549744
    136          1           0       15.794390   -0.129746    0.066768
    137          1           0       15.357269   -1.384886   -1.014902
    138          1           0       15.212732   -0.337825    2.416420
    139          1           0       13.911713   -1.456367    2.860360
    140          1           0       13.534879    0.171293    2.399124
 ---------------------------------------------------------------------

 SCF Done:  E(RwB97XD) =  -3007.84871060     A.U. after   20 cycles

 Excitation energies and oscillator strengths:

 Excited State   1:      Singlet-A      1.6690 eV  742.84 nm  f=0.3577  <S**2>=0.000
     245 -> 248       -0.20274
     246 -> 247        0.67990
     245 <- 248       -0.12283
 This state for optimization and/or second-order correction.
 Total Energy, E(TD-HF/TD-DFT) =  -3007.78737423
 Copying the excited state density for this state as the 1-particle RhoCI density.

 Excited State   2:      Singlet-A      2.2037 eV  562.61 nm  f=0.0704  <S**2>=0.000
     245 -> 247        0.61728
     246 -> 248        0.33482

 Excited State   3:      Singlet-A      3.3681 eV  368.11 nm  f=0.0198  <S**2>=0.000
     243 -> 247        0.66455
     246 -> 248       -0.16659

 Excited State   4:      Singlet-A      3.4343 eV  361.01 nm  f=0.1350  <S**2>=0.000
     241 -> 247       -0.34813
     241 -> 249        0.21915
     241 -> 250       -0.13455
     242 -> 247        0.38919
     242 -> 249       -0.12887
     245 -> 247        0.14143
     246 -> 248       -0.32110

 Excited State   5:      Singlet-A      3.5627 eV  348.01 nm  f=0.3624  <S**2>=0.000
     239 -> 247        0.11402
     241 -> 247        0.41284
     241 -> 249       -0.21311
     241 -> 250        0.11875
     242 -> 247        0.14939
     243 -> 247       -0.12706
     245 -> 247        0.21287
     246 -> 248       -0.40357

 The electronic state is 1-A.
 Alpha  occ. eigenvalues --  -46.95022 -19.31303 -19.29918 -19.25563 -19.24976
 Alpha  occ. eigenvalues --  -19.23880 -19.22582 -14.47397 -14.46717 -14.44101
 Alpha  occ. eigenvalues --  -14.43962 -10.44434 -10.43556 -10.39404 -10.37123
 Alpha  occ. eigenvalues --  -10.35994 -10.35835 -10.35669 -10.35465 -10.35365
 Alpha  occ. eigenvalues --  -10.34897 -10.34401 -10.34201 -10.33906 -10.33814
 Alpha  occ. eigenvalues --  -10.33006 -10.32915 -10.32805 -10.32473 -10.32299
 Alpha  occ. eigenvalues --  -10.32276 -10.32112 -10.32110 -10.31797 -10.31785
 Alpha  occ. eigenvalues --  -10.31376 -10.31253 -10.31197 -10.30995 -10.30888
 Alpha  occ. eigenvalues --  -10.30756 -10.30382 -10.30333 -10.30261 -10.30112
 Alpha  occ. eigenvalues --  -10.29982 -10.29601 -10.29493 -10.29443 -10.29334
 Alpha  occ. eigenvalues --  -10.29173 -10.29134 -10.28706 -10.28700 -10.28670
 Alpha  occ. eigenvalues --  -10.28649 -10.28466 -10.28413 -10.28372 -10.28152
 Alpha  occ. eigenvalues --  -10.28141 -10.28104 -10.28042 -10.28013 -10.27778
 Alpha  occ. eigenvalues --  -10.27716  -3.20970  -1.94572  -1.94094  -1.93939
 Alpha  occ. eigenvalues --   -1.18220  -1.16159  -1.13233  -1.12357  -1.09532
 Alpha  occ. eigenvalues --   -1.08836  -1.06713  -1.05791  -1.04914  -1.03539
 Alpha  occ. eigenvalues --   -0.94529  -0.92299  -0.91638  -0.91285  -0.91236
 Alpha  occ. eigenvalues --   -0.90320  -0.90177  -0.89588  -0.89420  -0.88943
 Alpha  occ. eigenvalues --   -0.87526  -0.86744  -0.86377  -0.85727  -0.85264
 Alpha  occ. eigenvalues --   -0.84260  -0.84039  -0.83216  -0.82519  -0.82129
 Alpha  occ. eigenvalues --   -0.81419  -0.80280  -0.79729  -0.78907  -0.78317
 Alpha  occ. eigenvalues --   -0.77481  -0.77128  -0.77096  -0.76428  -0.75631
 Alpha  occ. eigenvalues --   -0.74957  -0.74451  -0.73987  -0.72024  -0.71587
 Alpha  occ. eigenvalues --   -0.70879  -0.69673  -0.69129  -0.67978  -0.67943
 Alpha  occ. eigenvalues --   -0.67263  -0.66882  -0.66776  -0.66180  -0.66035
 Alpha  occ. eigenvalues --   -0.65115  -0.64814  -0.64524  -0.64073  -0.61882
 Alpha  occ. eigenvalues --   -0.61778  -0.61526  -0.61040  -0.60724  -0.59802
 Alpha  occ. eigenvalues --   -0.59558  -0.58527  -0.58383  -0.57971  -0.57716
 Alpha  occ. eigenvalues --   -0.57467  -0.57112  -0.56355  -0.55953  -0.55823
 Alpha  occ. eigenvalues --   -0.55742  -0.55642  -0.55270  -0.54919  -0.54735
 Alpha  occ. eigenvalues --   -0.54132  -0.53993  -0.53944  -0.53864  -0.53771
 Alpha  occ. eigenvalues --   -0.53605  -0.53218  -0.52957  -0.52800  -0.52489
 Alpha  occ. eigenvalues --   -0.52309  -0.52141  -0.51790  -0.51443  -0.51404
 Alpha  occ. eigenvalues --   -0.51164  -0.51091  -0.50740  -0.50690  -0.50480
 Alpha  occ. eigenvalues --   -0.50436  -0.50099  -0.49875  -0.49714  -0.49431
 Alpha  occ. eigenvalues --   -0.49239  -0.49036  -0.48937  -0.48849  -0.48376
 Alpha  occ. eigenvalues --   -0.48282  -0.48062  -0.47998  -0.47840  -0.47733
 Alpha  occ. eigenvalues --   -0.47596  -0.47520  -0.47459  -0.47360  -0.46984
 Alpha  occ. eigenvalues --   -0.46753  -0.46654  -0.46408  -0.46111  -0.45904
 Alpha  occ. eigenvalues --   -0.45505  -0.45356  -0.45050  -0.44801  -0.44553
 Alpha  occ. eigenvalues --   -0.44502  -0.44124  -0.44099  -0.44053  -0.43775
 Alpha  occ. eigenvalues --   -0.43622  -0.43569  -0.43510  -0.43123  -0.43079
 Alpha  occ. eigenvalues --   -0.42888  -0.42743  -0.42655  -0.42440  -0.42056
 Alpha  occ. eigenvalues --   -0.41937  -0.41777  -0.41632  -0.41304  -0.41152
 Alpha  occ. eigenvalues --   -0.40886  -0.40069  -0.39789  -0.39417  -0.39264
 Alpha  occ. eigenvalues --   -0.39047  -0.39024  -0.38773  -0.38597  -0.38248
 Alpha  occ. eigenvalues --   -0.37601  -0.37392  -0.37069  -0.36662  -0.36331
 Alpha  occ. eigenvalues --   -0.35638  -0.35472  -0.34885  -0.33362  -0.32898
 Alpha  occ. eigenvalues --   -0.32270  -0.31948  -0.31470  -0.31247  -0.26058
 Alpha  occ. eigenvalues --   -0.22943
 Alpha virt. eigenvalues --   -0.06791  -0.00247   0.02750   0.04783   0.05760
 Alpha virt. eigenvalues --    0.06144   0.06376   0.07548   0.07959   0.09291
 Alpha virt. eigenvalues --    0.10130   0.11195   0.11527   0.11736   0.11970

 Mulliken charges:
               1
     1  Mg   0.963567
     2  C   -0.041849
     3  C   -0.081364
     4  C   -0.057201
     5  C   -0.110454
     6  N   -0.332367
     7  C   -0.021887
     8  C   -0.051150
     9  C   -0.144239
    10  C    0.067895
    11  C    0.018319
    12  C    0.072952
    13  C   -0.038932
    14  C    0.243548
    15  O   -0.252509
    16  O   -0.411164
    17  N   -0.515410
    18  C    0.183495
    19  C   -0.198039
    20  C   -0.068093
    21  C    0.156813
    22  C    0.077306
    23  C    0.044505
    24  O   -0.216577
    25  C   -0.009905
    26  N   -0.366454
    27  C    0.040782
    28  C   -0.050679
    29  C   -0.085253
    30  C    0.074086
    31  C    0.015556
    32  C   -0.029121
    33  C   -0.021371
    34  N   -0.402174
    35  C    0.158417
    36  C   -0.190805
    37  C   -0.000850
    38  C    0.145180
    39  C    0.089189
    40  C    0.073824
    41  O   -0.189781
    42  C   -0.030556
    43  C    0.259844
    44  O   -0.266958
    45  O   -0.362491
    46  C    0.143924
    47  C    0.248880
    48  C   -0.148674
    49  C   -0.196039
    50  C   -0.000079
    51  C    0.016198
    52  C   -0.015764
    53  C    0.032585
    54  C   -0.230827
    55  C    0.021899
    56  C    0.021231
    57  C   -0.040431
    58  C    0.041345
    59  C   -0.221929
    60  C   -0.000820
    61  C    0.010158
    62  C   -0.032507
    63  C    0.000778
    64  C   -0.209988
    65  C   -0.011342
    66  C    0.007794
    67  H    0.007765
    68  H   -0.047316
    69  H    0.005347
    70  H    0.035035
    71  H    0.041972
    72  H    0.042473
    73  H    0.032865
    74  H    0.041065
    75  H    0.034532
    76  H    0.055089
    77  H    0.064892
    78  H    0.056800
    79  H    0.056731
    80  H    0.059931
    81  H    0.016191
    82  H    0.076875
    83  H    0.058321
    84  H    0.054731
    85  H    0.031833
    86  H    0.010509
    87  H    0.038999
    88  H    0.044604
    89  H    0.035870
    90  H    0.031868
    91  H    0.019139
    92  H    0.050152
    93  H    0.038949
    94  H    0.029062
    95  H    0.039075
    96  H    0.061511
    97  H    0.053039
    98  H    0.068494
    99  H    0.045436
   100  H    0.050896
   101  H    0.067069
   102  H    0.075903
   103  H    0.055416
   104  H    0.029842
   105  H    0.051482
   106  H    0.044643
   107  H    0.041792
   108  H    0.041719
   109  H    0.005647
   110  H    0.022135
   111  H    0.026458
   112  H    0.027260
   113  H    0.006928
   114  H    0.017144
   115  H    0.020604
   116  H    0.016930
   117  H    0.032667
   118  H    0.013785
   119  H    0.022400
   120  H    0.030229
   121  H    0.020770
   122  H    0.027541
   123  H    0.008894
   124  H    0.022798
   125  H    0.019233
   126  H    0.036665
   127  H    0.025580
   128  H    0.015962
   129  H    0.009120
   130  H    0.011512
   131  H    0.015658
   132  H    0.017191
   133  H    0.015151
   134  H    0.033749
   135  H    0.033285
   136  H    0.021880
   137  H    0.024524
   138  H    0.025916
   139  H    0.025570
   140  H    0.022173
 Sum of Mulliken charges =  -0.00000

 Dipole moment (field-independent basis, Debye):
    X=              0.9193    Y=             -2.1114    Z=             -1.6627  Tot=              2.8404
 Quadrupole moment (field-independent basis, Debye-Ang):
   XX=           -387.9483   YY=           -394.9288   ZZ=           -407.1145
   XY=             14.8686   XZ=             -2.0739   YZ=            -60.3238

 Normal termination of Gaussian 16 at Thu May  5 08:08:09 2022.
