 Gaussian 16, Revision A.03,
 Gaussian 16:  ES64L-G16RevA.03 25-Dec-2016

 --------------------
 #p ZINDO=(nstates=5)
 --------------------

 ----------------------------
 step_701_chromophore_8 ZINDO
 ----------------------------
 Symbolic Z-matrix:
 Charge =  0 Multiplicity = 1

                         Standard orientation:
 ---------------------------------------------------------------------
 Center     Atomic      Atomic             Coordinates (Angstroms)
 Number     Number       Type             X           Y           Z
 ---------------------------------------------------------------------
      1         12           0       -4.503238   -0.814691    0.028629
      2          6           0       -3.591178    2.463784    0.609835
      3          6           0       -4.390846   -0.163611   -3.381242
      4          6           0       -5.158164   -4.017301   -0.375183
      5          6           0       -4.177900   -1.345599    3.567521
      6          7           0       -3.948007    0.947785   -1.205839
      7          6           0       -3.522306    2.154837   -0.774829
      8          6           0       -3.089800    3.070370   -1.961448
      9          6           0       -3.653208    2.260446   -3.225259
     10          6           0       -3.990018    0.937277   -2.570606
     11          6           0       -4.916968    2.837468   -3.908153
     12          6           0       -1.515403    3.163713   -2.080539
     13          6           0       -0.873529    4.514773   -1.813603
     14          6           0        0.448956    4.753846   -0.909163
     15          8           0        0.526424    4.952182    0.311623
     16          8           0        1.576348    4.759523   -1.771258
     17          7           0       -4.703303   -1.989123   -1.622476
     18          6           0       -4.644719   -1.511987   -2.922935
     19          6           0       -4.719919   -2.685126   -3.760442
     20          6           0       -5.033438   -3.847216   -2.968311
     21          6           0       -4.944914   -3.362766   -1.591007
     22          6           0       -4.602419   -2.641855   -5.287474
     23          6           0       -5.195971   -5.344584   -3.432204
     24          8           0       -4.993656   -5.623746   -4.587149
     25          6           0       -5.687653   -6.457779   -2.527969
     26          7           0       -4.551939   -2.485704    1.380480
     27          6           0       -5.021037   -3.704568    0.999939
     28          6           0       -5.375301   -4.601362    2.197136
     29          6           0       -4.621001   -3.878189    3.353524
     30          6           0       -4.390313   -2.457312    2.768016
     31          6           0       -6.935055   -4.881046    2.370603
     32          6           0       -3.354570   -4.548351    3.830447
     33          6           0       -3.471335   -5.598283    4.972062
     34          7           0       -4.092860    0.297272    1.785999
     35          6           0       -4.002359   -0.034499    3.123724
     36          6           0       -3.855501    1.187194    3.908234
     37          6           0       -3.663474    2.230273    2.979584
     38          6           0       -3.812537    1.579942    1.663373
     39          6           0       -3.820019    1.278519    5.382518
     40          6           0       -3.448441    3.598641    2.760205
     41          8           0       -3.246477    4.457337    3.576530
     42          6           0       -3.443865    3.866177    1.285551
     43          6           0       -4.508064    4.861623    1.011828
     44          8           0       -5.663622    4.719984    1.467832
     45          8           0       -3.974812    5.973711    0.367214
     46          6           0       -4.971024    6.942950   -0.027752
     47          6           0        2.959053    4.943909   -1.216329
     48          6           0        3.397482    3.614820   -0.634194
     49          6           0        4.686848    3.244878   -0.434773
     50          6           0        5.882973    4.203652   -0.761004
     51          6           0        5.012305    1.841024    0.168846
     52          6           0        4.900043    0.626443   -0.769967
     53          6           0        4.460623   -0.572252   -0.020201
     54          6           0        5.181696   -1.862166   -0.457201
     55          6           0        4.314840   -2.973565   -1.068318
     56          6           0        6.119253   -2.373282    0.661149
     57          6           0        7.389456   -1.467050    0.775324
     58          6           0        8.671770   -2.354009    0.794279
     59          6           0        9.580426   -1.844715   -0.333812
     60          6           0        9.372810   -2.852365   -1.531747
     61          6           0       11.026817   -1.860185    0.136414
     62          6           0       12.003651   -1.082759   -0.807984
     63          6           0       13.076908   -0.236227   -0.033610
     64          6           0       14.053568   -1.175456    0.751095
     65          6           0       15.414487   -1.151508    0.048465
     66          6           0       14.200904   -0.661220    2.173696
     67          1           0       -4.261825   -0.002886   -4.454053
     68          1           0       -5.620592   -4.983095   -0.588122
     69          1           0       -4.317046   -1.581622    4.625040
     70          1           0       -3.625980    3.998072   -1.759771
     71          1           0       -2.997988    2.179316   -4.091914
     72          1           0       -4.816954    3.104207   -4.959498
     73          1           0       -5.278010    3.673553   -3.307856
     74          1           0       -5.679980    2.058328   -3.886073
     75          1           0       -1.314174    3.053657   -3.146691
     76          1           0       -1.026976    2.329952   -1.576003
     77          1           0       -1.635398    5.183214   -1.413224
     78          1           0       -0.530877    4.842018   -2.794381
     79          1           0       -5.593745   -2.677678   -5.738649
     80          1           0       -4.014457   -3.460443   -5.704626
     81          1           0       -4.091366   -1.717144   -5.555340
     82          1           0       -6.492897   -6.178947   -1.847690
     83          1           0       -4.798938   -6.792098   -1.993064
     84          1           0       -5.951570   -7.304050   -3.162062
     85          1           0       -4.939625   -5.577180    1.981511
     86          1           0       -5.212812   -3.797570    4.265389
     87          1           0       -7.215471   -5.864437    1.993602
     88          1           0       -7.550585   -4.123104    1.887120
     89          1           0       -7.271473   -4.886941    3.407957
     90          1           0       -2.579102   -3.822991    4.079427
     91          1           0       -3.019913   -4.994718    2.893835
     92          1           0       -2.505879   -5.683005    5.471076
     93          1           0       -3.834322   -6.515131    4.508528
     94          1           0       -4.210528   -5.261110    5.699113
     95          1           0       -4.376639    0.417109    5.750886
     96          1           0       -4.071987    2.301435    5.661541
     97          1           0       -2.801046    1.231254    5.768255
     98          1           0       -2.521253    4.371536    1.000921
     99          1           0       -5.549989    6.346909   -0.732627
    100          1           0       -4.554858    7.821596   -0.520009
    101          1           0       -5.518194    7.405135    0.793829
    102          1           0        3.047444    5.741267   -0.477659
    103          1           0        3.701053    5.023743   -2.010776
    104          1           0        2.510996    3.003088   -0.466817
    105          1           0        6.282158    3.937844   -1.739718
    106          1           0        6.669132    4.041667   -0.024551
    107          1           0        5.625042    5.262222   -0.798738
    108          1           0        4.454248    1.630159    1.080905
    109          1           0        6.050762    1.899807    0.494015
    110          1           0        5.909028    0.605571   -1.182903
    111          1           0        4.160126    0.744869   -1.561241
    112          1           0        3.371612   -0.618769   -0.011863
    113          1           0        4.770820   -0.416858    1.013235
    114          1           0        5.763878   -1.620707   -1.346369
    115          1           0        3.283603   -2.636079   -0.960076
    116          1           0        4.450689   -3.905605   -0.519510
    117          1           0        4.611476   -3.179762   -2.097264
    118          1           0        6.288629   -3.429494    0.452377
    119          1           0        5.675726   -2.273298    1.652227
    120          1           0        7.420018   -0.898280    1.704707
    121          1           0        7.384534   -0.814023   -0.097161
    122          1           0        8.550147   -3.427488    0.649437
    123          1           0        9.153899   -2.106362    1.739682
    124          1           0        9.315169   -0.843950   -0.674973
    125          1           0        8.619442   -3.622728   -1.366825
    126          1           0       10.266549   -3.406022   -1.821691
    127          1           0        8.912675   -2.250898   -2.315325
    128          1           0       11.393405   -2.882834    0.233724
    129          1           0       11.111604   -1.407629    1.124219
    130          1           0       11.385636   -0.460878   -1.455387
    131          1           0       12.594378   -1.741897   -1.443734
    132          1           0       12.549680    0.513312    0.556637
    133          1           0       13.595221    0.353685   -0.789227
    134          1           0       13.793523   -2.234204    0.761058
    135          1           0       16.101437   -1.832519    0.549744
    136          1           0       15.794390   -0.129746    0.066768
    137          1           0       15.357269   -1.384886   -1.014902
    138          1           0       15.212732   -0.337825    2.416420
    139          1           0       13.911713   -1.456367    2.860360
    140          1           0       13.534879    0.171293    2.399124
 ---------------------------------------------------------------------

 SCF Done:  E(RZINDO/S) =  -474.106386727     A.U. after   20 cycles

 Excitation energies and oscillator strengths:

 Excited State   1:      Singlet-A      1.2496 eV  992.17 nm  f=0.5827  <S**2>=0.000
     175 ->178         0.20494
     176 ->177         0.65987
 This state for optimization and/or second-order correction.
 Total Energy, E(CIS/TDA) =  -474.060463924
 Copying the excited state density for this state as the 1-particle RhoCI density.

 Excited State   2:      Singlet-A      1.9050 eV  650.84 nm  f=0.0144  <S**2>=0.000
     175 ->177         0.51800
     176 ->178        -0.46064

 Excited State   3:      Singlet-A      2.8714 eV  431.79 nm  f=0.0182  <S**2>=0.000
     170 ->177         0.37805
     170 ->178        -0.10709
     170 ->179        -0.39180
     170 ->181         0.10731
     170 ->182        -0.21504
     170 ->185        -0.16717
     170 ->187         0.11309
     170 ->188        -0.11013
     170 ->199         0.10164
     170 ->200         0.12808

 Excited State   4:      Singlet-A      2.9900 eV  414.66 nm  f=0.6439  <S**2>=0.000
     171 ->177         0.10769
     175 ->177         0.32380
     176 ->178         0.40055
     176 ->179         0.42076

 Excited State   5:      Singlet-A      3.0799 eV  402.55 nm  f=0.1314  <S**2>=0.000
     168 ->177         0.19401
     168 ->179         0.21891
     168 ->181         0.24171
     168 ->182        -0.20819
     168 ->185         0.23431
     169 ->177         0.11429
     169 ->179         0.11961
     169 ->181         0.14871
     169 ->182        -0.13226
     169 ->185         0.12565
     175 ->177        -0.12778
     176 ->178        -0.13899
     176 ->179         0.19412

 The electronic state is 1-A.
 Alpha  occ. eigenvalues --   -1.84248  -1.79648  -1.79110  -1.72764  -1.70301
 Alpha  occ. eigenvalues --   -1.67903  -1.67166  -1.62072  -1.61317  -1.59481
 Alpha  occ. eigenvalues --   -1.55750  -1.50031  -1.48305  -1.47489  -1.45748
 Alpha  occ. eigenvalues --   -1.44219  -1.43773  -1.39309  -1.38295  -1.38070
 Alpha  occ. eigenvalues --   -1.35199  -1.34905  -1.34139  -1.29977  -1.28156
 Alpha  occ. eigenvalues --   -1.27025  -1.26539  -1.22106  -1.20067  -1.18293
 Alpha  occ. eigenvalues --   -1.17544  -1.15811  -1.14714  -1.13944  -1.13100
 Alpha  occ. eigenvalues --   -1.12907  -1.09977  -1.08819  -1.05420  -1.03407
 Alpha  occ. eigenvalues --   -1.02129  -1.00602  -0.97912  -0.97687  -0.96292
 Alpha  occ. eigenvalues --   -0.95728  -0.94977  -0.94108  -0.93510  -0.92850
 Alpha  occ. eigenvalues --   -0.91193  -0.90396  -0.88756  -0.88314  -0.86289
 Alpha  occ. eigenvalues --   -0.86011  -0.83901  -0.83164  -0.81968  -0.80370
 Alpha  occ. eigenvalues --   -0.79642  -0.78988  -0.77220  -0.77107  -0.75819
 Alpha  occ. eigenvalues --   -0.75634  -0.75339  -0.74558  -0.73940  -0.73265
 Alpha  occ. eigenvalues --   -0.72858  -0.72432  -0.72128  -0.71491  -0.70708
 Alpha  occ. eigenvalues --   -0.70272  -0.69602  -0.69016  -0.68915  -0.68512
 Alpha  occ. eigenvalues --   -0.67681  -0.67370  -0.67229  -0.66519  -0.65917
 Alpha  occ. eigenvalues --   -0.65716  -0.64782  -0.64050  -0.63662  -0.63355
 Alpha  occ. eigenvalues --   -0.63038  -0.62770  -0.62430  -0.62233  -0.61666
 Alpha  occ. eigenvalues --   -0.61296  -0.61000  -0.60503  -0.59953  -0.59650
 Alpha  occ. eigenvalues --   -0.59480  -0.59424  -0.59037  -0.58432  -0.58298
 Alpha  occ. eigenvalues --   -0.57844  -0.57681  -0.57168  -0.56865  -0.56668
 Alpha  occ. eigenvalues --   -0.56661  -0.56344  -0.55660  -0.55615  -0.54928
 Alpha  occ. eigenvalues --   -0.54638  -0.54099  -0.53720  -0.53202  -0.52708
 Alpha  occ. eigenvalues --   -0.52392  -0.52082  -0.51931  -0.51606  -0.51503
 Alpha  occ. eigenvalues --   -0.51054  -0.50788  -0.50537  -0.50123  -0.49952
 Alpha  occ. eigenvalues --   -0.49648  -0.49481  -0.49367  -0.49107  -0.49036
 Alpha  occ. eigenvalues --   -0.49013  -0.48505  -0.48018  -0.47913  -0.47889
 Alpha  occ. eigenvalues --   -0.47375  -0.47186  -0.47003  -0.46831  -0.46546
 Alpha  occ. eigenvalues --   -0.46402  -0.46090  -0.45851  -0.45598  -0.45324
 Alpha  occ. eigenvalues --   -0.45175  -0.44889  -0.44670  -0.44358  -0.44176
 Alpha  occ. eigenvalues --   -0.44024  -0.43399  -0.43354  -0.42522  -0.41781
 Alpha  occ. eigenvalues --   -0.41749  -0.41480  -0.40506  -0.39536  -0.39125
 Alpha  occ. eigenvalues --   -0.38324  -0.37324  -0.35174  -0.34827  -0.34285
 Alpha  occ. eigenvalues --   -0.32844  -0.32563  -0.32072  -0.31812  -0.26680
 Alpha  occ. eigenvalues --   -0.21633
 Alpha virt. eigenvalues --   -0.08297  -0.02403  -0.00275   0.01068   0.01399
 Alpha virt. eigenvalues --    0.02192   0.02463   0.02950   0.04884   0.05077
 Alpha virt. eigenvalues --    0.06200   0.06452   0.06883   0.07242   0.07780

 Mulliken charges:
               1
     1  Mg   0.426381
     2  C   -0.056567
     3  C   -0.087250
     4  C   -0.078059
     5  C   -0.059167
     6  N   -0.274918
     7  C    0.128480
     8  C    0.004609
     9  C   -0.002265
    10  C    0.126998
    11  C   -0.054926
    12  C   -0.012987
    13  C    0.006798
    14  C    0.454758
    15  O   -0.492412
    16  O   -0.291170
    17  N   -0.328805
    18  C    0.098463
    19  C    0.025903
    20  C   -0.060115
    21  C    0.117627
    22  C   -0.043263
    23  C    0.327811
    24  O   -0.511239
    25  C   -0.026358
    26  N   -0.276970
    27  C    0.129757
    28  C    0.011799
    29  C    0.010395
    30  C    0.110708
    31  C   -0.051203
    32  C   -0.030008
    33  C   -0.056185
    34  N   -0.311626
    35  C    0.099328
    36  C    0.048690
    37  C   -0.061993
    38  C    0.129901
    39  C   -0.041692
    40  C    0.359182
    41  O   -0.521526
    42  C    0.054616
    43  C    0.490203
    44  O   -0.520417
    45  O   -0.264072
    46  C    0.073862
    47  C    0.096360
    48  C   -0.075605
    49  C   -0.031159
    50  C   -0.043449
    51  C   -0.025889
    52  C   -0.024686
    53  C   -0.026426
    54  C   -0.019756
    55  C   -0.061691
    56  C   -0.037005
    57  C   -0.044043
    58  C   -0.042794
    59  C   -0.013312
    60  C   -0.065654
    61  C   -0.033114
    62  C   -0.047449
    63  C   -0.034577
    64  C   -0.003861
    65  C   -0.054947
    66  C   -0.055529
    67  H    0.034473
    68  H    0.013457
    69  H    0.028612
    70  H    0.042824
    71  H    0.037008
    72  H    0.024005
    73  H    0.020946
    74  H    0.023512
    75  H    0.019590
    76  H    0.040140
    77  H    0.041878
    78  H    0.034029
    79  H    0.035443
    80  H    0.038109
    81  H    0.015220
    82  H    0.039153
    83  H    0.038787
    84  H    0.036935
    85  H    0.025430
    86  H    0.021633
    87  H    0.021085
    88  H    0.026202
    89  H    0.019219
    90  H    0.020193
    91  H    0.015123
    92  H    0.026187
    93  H    0.023749
    94  H    0.020258
    95  H    0.032492
    96  H    0.045754
    97  H    0.032985
    98  H    0.051170
    99  H    0.039177
   100  H    0.027906
   101  H    0.053996
   102  H    0.063864
   103  H    0.046658
   104  H    0.041094
   105  H    0.026989
   106  H    0.024833
   107  H    0.026202
   108  H    0.027825
   109  H    0.011430
   110  H    0.022480
   111  H    0.019829
   112  H    0.023835
   113  H    0.013076
   114  H    0.014488
   115  H    0.019815
   116  H    0.015651
   117  H    0.020972
   118  H    0.022568
   119  H    0.017739
   120  H    0.022538
   121  H    0.027176
   122  H    0.034499
   123  H    0.011615
   124  H    0.029256
   125  H    0.015420
   126  H    0.025467
   127  H    0.013484
   128  H    0.017834
   129  H    0.014295
   130  H    0.014292
   131  H    0.016885
   132  H    0.020287
   133  H    0.013089
   134  H    0.028694
   135  H    0.015683
   136  H    0.015094
   137  H    0.012915
   138  H    0.019742
   139  H    0.011547
   140  H    0.017671
 Sum of Mulliken charges =  -0.00000

 Dipole moment (field-independent basis, Debye):
    X=              1.2921    Y=             -2.2942    Z=             -2.1427  Tot=              3.3947
 N-N= 4.403573572720D+03 E-N= 0.000000000000D+00  KE=-9.481312249442D+03
 Leave Link  601 at Thu May  5 08:31:06 2022, MaxMem=  6710886400 cpu:               1.4 elap:               0.1
 (Enter /sw/apps/gaussian-16.0/g16/l9999.exe)
 1\1\GINC-BP1-COMPUTE197\SP\RZINDO CIS\STO-3G\C55H74Mg1N4O6\OF15641\05-
 May-2022\0\\#p ZINDO=(nstates=5)\\step_701_chromophore_8 ZINDO\\0,1\Mg
 ,0,44.916,3.809,46.695\C,0,42.638,6.312,46.014\C,0,42.279,1.554,46.853
 \C,0,47.219,1.492,47.115\C,0,47.495,6.24,46.103\N,0,42.723,3.947,46.36
 3\C,0,42.01,5.038,46.009\C,0,40.517,4.684,45.728\C,0,40.418,3.191,46.3
 04\C,0,41.887,2.875,46.491\C,0,39.675,3.018,47.651\C,0,40.209,4.65,44.
 177\C,0,39.26,5.703,43.63\C,0,39.501,6.559,42.276\O,0,40.098,7.636,42.

 Normal termination of Gaussian 16 at Thu May  5 08:31:06 2022.
