 Gaussian 16, Revision A.03,
 Gaussian 16:  ES64L-G16RevA.03 25-Dec-2016

 ------------------------------
 #p blyp/Def2SVP td=(nstates=5)
 ------------------------------

 --------------------------------------------------
 step_501_chromophore_15 TDDFT with blyp functional
 --------------------------------------------------
 Symbolic Z-matrix:
 Charge =  0 Multiplicity = 1

                         Standard orientation:
 ---------------------------------------------------------------------
 Center     Atomic      Atomic             Coordinates (Angstroms)
 Number     Number       Type             X           Y           Z
 ---------------------------------------------------------------------
      1         12           0       -4.857270    0.904871   -0.191417
      2          6           0       -3.976224   -2.463383    0.399215
      3          6           0       -1.591531    1.626917   -0.892671
      4          6           0       -5.652575    4.101582   -0.054981
      5          6           0       -8.099689    0.135792    1.025584
      6          7           0       -3.025059   -0.342786   -0.343989
      7          6           0       -2.935881   -1.630905   -0.077595
      8          6           0       -1.616461   -2.140419   -0.628890
      9          6           0       -0.703681   -0.854114   -0.623720
     10          6           0       -1.828071    0.247609   -0.612206
     11          6           0        0.309984   -0.873126    0.582875
     12          6           0       -1.743493   -2.668846   -2.080818
     13          6           0       -0.594188   -3.661916   -2.557068
     14          6           0        0.578888   -4.038703   -1.648177
     15          8           0        0.601846   -4.945509   -0.815654
     16          8           0        1.613333   -3.179593   -1.755483
     17          7           0       -3.841604    2.579911   -0.633397
     18          6           0       -2.475231    2.716962   -0.988889
     19          6           0       -2.219199    4.142181   -1.302433
     20          6           0       -3.409642    4.883192   -0.969908
     21          6           0       -4.406771    3.886483   -0.522807
     22          6           0       -0.935687    4.650848   -1.857383
     23          6           0       -3.773986    6.417115   -1.042413
     24          8           0       -4.898182    6.876118   -0.798436
     25          6           0       -2.665848    7.399969   -1.286886
     26          7           0       -6.615119    1.997999    0.518306
     27          6           0       -6.711331    3.297096    0.417090
     28          6           0       -8.036199    3.876410    0.827250
     29          6           0       -8.855732    2.589898    1.195433
     30          6           0       -7.836190    1.471796    0.808734
     31          6           0       -7.875250    4.975697    1.881371
     32          6           0      -10.165314    2.428436    0.433811
     33          6           0      -11.393564    1.887270    1.249747
     34          7           0       -5.952532   -0.828337    0.519252
     35          6           0       -7.289222   -0.977751    0.937927
     36          6           0       -7.559088   -2.363094    1.115558
     37          6           0       -6.273255   -2.991640    1.096549
     38          6           0       -5.362948   -2.049257    0.689942
     39          6           0       -8.921817   -2.981193    1.243487
     40          6           0       -5.472681   -4.238691    1.145436
     41          8           0       -5.812980   -5.374579    1.403145
     42          6           0       -3.933799   -3.839866    0.944029
     43          6           0       -3.183806   -4.947338    0.279114
     44          8           0       -3.392013   -5.399522   -0.808014
     45          8           0       -2.217967   -5.500487    1.140526
     46          6           0       -1.914924   -6.936026    0.959305
     47          6           0        2.839903   -3.463658   -1.008971
     48          6           0        3.948436   -3.052890   -1.986288
     49          6           0        5.217569   -2.970844   -1.662365
     50          6           0        5.853441   -3.633120   -0.464843
     51          6           0        6.238263   -2.394142   -2.561168
     52          6           0        6.613690   -1.029167   -1.959461
     53          6           0        8.176729   -0.846468   -2.157385
     54          6           0        8.550628    0.534951   -2.833924
     55          6           0        8.526430    0.501007   -4.391362
     56          6           0        9.988328    0.932933   -2.357886
     57          6           0        9.852329    1.814154   -1.145201
     58          6           0       11.266115    2.474572   -0.946148
     59          6           0       11.476058    3.123935    0.396810
     60          6           0       12.598033    4.187892    0.339806
     61          6           0       11.867016    2.067969    1.458724
     62          6           0       10.798666    1.743052    2.491175
     63          6           0       11.073035    0.422103    3.262803
     64          6           0       10.952850    0.575881    4.763629
     65          6           0       11.969117   -0.125158    5.706880
     66          6           0        9.465331    0.350127    5.399488
     67          1           0       -0.554761    1.968291   -0.936060
     68          1           0       -6.059779    5.112556   -0.112936
     69          1           0       -9.128317   -0.077821    1.323737
     70          1           0       -1.400773   -2.994764    0.012642
     71          1           0       -0.125114   -0.769138   -1.544194
     72          1           0        0.163530   -1.769506    1.184569
     73          1           0       -0.041955   -0.061583    1.219809
     74          1           0        1.361609   -0.857518    0.296347
     75          1           0       -1.702471   -1.768995   -2.695925
     76          1           0       -2.728019   -3.128246   -2.168190
     77          1           0       -0.209297   -3.210486   -3.472758
     78          1           0       -1.121710   -4.565037   -2.864940
     79          1           0       -0.190929    3.939298   -2.212120
     80          1           0       -0.369291    5.228511   -1.127440
     81          1           0       -1.245654    5.243501   -2.718431
     82          1           0       -2.457596    7.581933   -2.341113
     83          1           0       -1.862277    6.891366   -0.752836
     84          1           0       -2.950075    8.308006   -0.755819
     85          1           0       -8.390839    4.302239   -0.111277
     86          1           0       -9.102488    2.510176    2.253425
     87          1           0       -6.968061    4.884960    2.479555
     88          1           0       -8.714740    4.840534    2.562201
     89          1           0       -7.887158    5.977160    1.450654
     90          1           0      -10.046680    1.751793   -0.412295
     91          1           0      -10.295998    3.388232   -0.065777
     92          1           0      -11.098329    1.562548    2.247346
     93          1           0      -11.728850    1.017286    0.685500
     94          1           0      -12.265094    2.530176    1.377372
     95          1           0       -9.430255   -2.379342    1.996878
     96          1           0       -8.920374   -4.019368    1.576089
     97          1           0       -9.473530   -2.859341    0.310813
     98          1           0       -3.450468   -3.828460    1.920420
     99          1           0       -0.875960   -7.018562    0.639833
    100          1           0       -2.585356   -7.414311    0.244408
    101          1           0       -2.046596   -7.380807    1.945646
    102          1           0        3.019254   -4.530809   -0.874668
    103          1           0        2.760389   -2.904895   -0.076964
    104          1           0        3.670681   -2.515263   -2.893210
    105          1           0        6.000922   -2.895162    0.323983
    106          1           0        6.725920   -4.179358   -0.821961
    107          1           0        5.303945   -4.417841    0.055689
    108          1           0        5.826628   -2.255046   -3.560407
    109          1           0        7.038195   -3.132260   -2.518047
    110          1           0        6.472256   -0.894421   -0.887731
    111          1           0        6.028058   -0.277402   -2.489761
    112          1           0        8.649827   -1.641381   -2.732764
    113          1           0        8.620947   -0.978430   -1.170855
    114          1           0        7.765115    1.252074   -2.593687
    115          1           0        7.990377    1.368055   -4.778150
    116          1           0        8.118889   -0.433687   -4.777922
    117          1           0        9.509987    0.560442   -4.856603
    118          1           0       10.472705    1.464612   -3.176398
    119          1           0       10.557587    0.059949   -2.040848
    120          1           0        9.647829    1.283461   -0.215811
    121          1           0        9.112846    2.592715   -1.331372
    122          1           0       11.115196    3.346766   -1.581332
    123          1           0       12.165589    1.927059   -1.226823
    124          1           0       10.571567    3.656332    0.692727
    125          1           0       13.420900    3.904640    0.997025
    126          1           0       12.206578    5.136224    0.708440
    127          1           0       12.895085    4.301635   -0.702728
    128          1           0       12.768107    2.309086    2.023442
    129          1           0       12.077771    1.151225    0.907829
    130          1           0        9.926794    1.572004    1.860899
    131          1           0       10.607044    2.536110    3.215423
    132          1           0       12.079907    0.025978    3.134093
    133          1           0       10.385972   -0.338972    2.893643
    134          1           0       11.048468    1.637407    4.992232
    135          1           0       11.587789   -0.610762    6.604810
    136          1           0       12.637460    0.637465    6.105792
    137          1           0       12.625843   -0.773481    5.126920
    138          1           0        9.118025    1.202112    5.983187
    139          1           0        9.333937   -0.548133    6.003093
    140          1           0        8.729033    0.196604    4.611233
 ---------------------------------------------------------------------

 SCF Done:  E(RB-LYP) =  -3007.36167940     A.U. after   21 cycles

 Excitation energies and oscillator strengths:

 Excited State   1:      Singlet-A      1.8103 eV  684.87 nm  f=0.2812  <S**2>=0.000
     245 -> 248       -0.19773
     246 -> 247        0.67830
     246 <- 247       -0.13582
 This state for optimization and/or second-order correction.
 Total Energy, E(TD-HF/TD-DFT) =  -3007.29515134
 Copying the excited state density for this state as the 1-particle RhoCI density.

 Excited State   2:      Singlet-A      1.8404 eV  673.67 nm  f=0.0601  <S**2>=0.000
     244 -> 247       -0.23006
     245 -> 247        0.63046
     246 -> 248        0.15337

 Excited State   3:      Singlet-A      2.0289 eV  611.08 nm  f=0.0127  <S**2>=0.000
     244 -> 247        0.66314
     245 -> 247        0.19816

 Excited State   4:      Singlet-A      2.1562 eV  575.01 nm  f=0.0002  <S**2>=0.000
     243 -> 247        0.70458

 Excited State   5:      Singlet-A      2.3162 eV  535.29 nm  f=0.0076  <S**2>=0.000
     242 -> 247        0.68585

 The electronic state is 1-A.
 Alpha  occ. eigenvalues --  -46.26970 -18.82007 -18.79682 -18.76480 -18.76050
 Alpha  occ. eigenvalues --  -18.75974 -18.75483 -14.03172 -14.02747 -14.00991
 Alpha  occ. eigenvalues --  -13.99902 -10.03882 -10.02677 -10.00936  -9.99696
 Alpha  occ. eigenvalues --   -9.98155  -9.97196  -9.96397  -9.96014  -9.95860
 Alpha  occ. eigenvalues --   -9.95800  -9.95789  -9.95755  -9.95204  -9.94554
 Alpha  occ. eigenvalues --   -9.94066  -9.94005  -9.93944  -9.93757  -9.93753
 Alpha  occ. eigenvalues --   -9.93655  -9.93640  -9.93562  -9.93364  -9.93298
 Alpha  occ. eigenvalues --   -9.93234  -9.92951  -9.92945  -9.92574  -9.92423
 Alpha  occ. eigenvalues --   -9.92332  -9.92300  -9.92281  -9.92274  -9.92271
 Alpha  occ. eigenvalues --   -9.92220  -9.92203  -9.92179  -9.92089  -9.91893
 Alpha  occ. eigenvalues --   -9.91863  -9.91673  -9.91457  -9.91246  -9.91244
 Alpha  occ. eigenvalues --   -9.91229  -9.91169  -9.91061  -9.91012  -9.90953
 Alpha  occ. eigenvalues --   -9.90903  -9.90845  -9.90827  -9.90786  -9.90742
 Alpha  occ. eigenvalues --   -9.90471  -2.91531  -1.71964  -1.71420  -1.71234
 Alpha  occ. eigenvalues --   -0.98193  -0.96035  -0.91529  -0.91362  -0.88894
 Alpha  occ. eigenvalues --   -0.88484  -0.87266  -0.86804  -0.84537  -0.83024
 Alpha  occ. eigenvalues --   -0.74859  -0.74671  -0.73678  -0.72560  -0.72089
 Alpha  occ. eigenvalues --   -0.71969  -0.71832  -0.70788  -0.70632  -0.70437
 Alpha  occ. eigenvalues --   -0.69363  -0.68967  -0.67874  -0.67592  -0.67060
 Alpha  occ. eigenvalues --   -0.66248  -0.66206  -0.65382  -0.64997  -0.64283
 Alpha  occ. eigenvalues --   -0.63871  -0.62551  -0.62032  -0.61652  -0.60890
 Alpha  occ. eigenvalues --   -0.60244  -0.59794  -0.59714  -0.59387  -0.59282
 Alpha  occ. eigenvalues --   -0.58215  -0.57585  -0.56657  -0.55151  -0.55107
 Alpha  occ. eigenvalues --   -0.53794  -0.53425  -0.52608  -0.52400  -0.51924
 Alpha  occ. eigenvalues --   -0.51463  -0.51401  -0.50355  -0.50323  -0.49777
 Alpha  occ. eigenvalues --   -0.49407  -0.49356  -0.48558  -0.46983  -0.46231
 Alpha  occ. eigenvalues --   -0.46189  -0.45602  -0.45382  -0.44702  -0.44267
 Alpha  occ. eigenvalues --   -0.43437  -0.43332  -0.43086  -0.42863  -0.42545
 Alpha  occ. eigenvalues --   -0.42048  -0.41847  -0.41228  -0.40971  -0.40683
 Alpha  occ. eigenvalues --   -0.40436  -0.40406  -0.40324  -0.40202  -0.39857
 Alpha  occ. eigenvalues --   -0.39822  -0.39466  -0.39290  -0.39054  -0.38978
 Alpha  occ. eigenvalues --   -0.38751  -0.38649  -0.38378  -0.38336  -0.38196
 Alpha  occ. eigenvalues --   -0.38069  -0.37914  -0.37754  -0.37575  -0.37218
 Alpha  occ. eigenvalues --   -0.37164  -0.36734  -0.36549  -0.36401  -0.36318
 Alpha  occ. eigenvalues --   -0.36078  -0.35954  -0.35814  -0.35756  -0.35560
 Alpha  occ. eigenvalues --   -0.35321  -0.35242  -0.34963  -0.34794  -0.34648
 Alpha  occ. eigenvalues --   -0.34583  -0.34368  -0.34284  -0.34026  -0.33927
 Alpha  occ. eigenvalues --   -0.33792  -0.33612  -0.33308  -0.33143  -0.33097
 Alpha  occ. eigenvalues --   -0.32759  -0.32711  -0.32524  -0.32478  -0.32186
 Alpha  occ. eigenvalues --   -0.31871  -0.31709  -0.31510  -0.31383  -0.31182
 Alpha  occ. eigenvalues --   -0.31067  -0.30982  -0.30856  -0.30718  -0.30630
 Alpha  occ. eigenvalues --   -0.30556  -0.30453  -0.30264  -0.30033  -0.29836
 Alpha  occ. eigenvalues --   -0.29674  -0.29605  -0.29252  -0.29112  -0.29049
 Alpha  occ. eigenvalues --   -0.28888  -0.28847  -0.28484  -0.28166  -0.28018
 Alpha  occ. eigenvalues --   -0.27626  -0.27232  -0.27196  -0.26949  -0.26501
 Alpha  occ. eigenvalues --   -0.26330  -0.26133  -0.25886  -0.25428  -0.24952
 Alpha  occ. eigenvalues --   -0.24939  -0.24226  -0.23929  -0.23079  -0.23048
 Alpha  occ. eigenvalues --   -0.22977  -0.21994  -0.21175  -0.20934  -0.20421
 Alpha  occ. eigenvalues --   -0.20381  -0.19415  -0.19252  -0.18689  -0.16804
 Alpha  occ. eigenvalues --   -0.15879
 Alpha virt. eigenvalues --   -0.11446  -0.07102  -0.06289  -0.04348  -0.02842
 Alpha virt. eigenvalues --   -0.02532  -0.01982  -0.01412  -0.00964   0.00158
 Alpha virt. eigenvalues --    0.00838   0.01564   0.01950   0.02866   0.03044

 Mulliken charges:
               1
     1  Mg   0.680728
     2  C    0.098654
     3  C   -0.058667
     4  C   -0.019753
     5  C   -0.082361
     6  N   -0.171655
     7  C   -0.085557
     8  C   -0.072483
     9  C    0.001452
    10  C    0.048087
    11  C    0.130263
    12  C    0.122186
    13  C    0.171430
    14  C    0.064558
    15  O   -0.201653
    16  O   -0.265340
    17  N   -0.383084
    18  C    0.138195
    19  C   -0.124547
    20  C    0.018869
    21  C    0.160108
    22  C    0.144244
    23  C   -0.055418
    24  O   -0.169899
    25  C    0.129435
    26  N   -0.163304
    27  C   -0.104849
    28  C    0.072149
    29  C    0.001063
    30  C    0.021477
    31  C    0.142661
    32  C    0.095158
    33  C    0.062944
    34  N   -0.272231
    35  C    0.132868
    36  C   -0.182865
    37  C    0.085540
    38  C    0.007703
    39  C    0.178394
    40  C   -0.039477
    41  O   -0.120821
    42  C    0.054939
    43  C    0.070535
    44  O   -0.146654
    45  O   -0.308594
    46  C    0.209972
    47  C    0.310589
    48  C   -0.112247
    49  C   -0.161945
    50  C    0.131641
    51  C    0.166469
    52  C    0.069789
    53  C    0.067264
    54  C   -0.065958
    55  C    0.101260
    56  C    0.127887
    57  C    0.060958
    58  C    0.080210
    59  C   -0.073832
    60  C    0.127366
    61  C    0.093892
    62  C    0.074492
    63  C    0.151348
    64  C   -0.110297
    65  C    0.112994
    66  C    0.057198
    67  H   -0.060266
    68  H   -0.055040
    69  H   -0.081754
    70  H    0.000917
    71  H   -0.024292
    72  H   -0.004899
    73  H   -0.015493
    74  H    0.007449
    75  H   -0.028907
    76  H   -0.002453
    77  H   -0.020585
    78  H    0.006894
    79  H   -0.013754
    80  H    0.013554
    81  H    0.011497
    82  H    0.027754
    83  H   -0.003019
    84  H    0.003482
    85  H   -0.020322
    86  H   -0.018430
    87  H   -0.002333
    88  H   -0.016723
    89  H    0.010701
    90  H   -0.024928
    91  H   -0.031176
    92  H   -0.004239
    93  H   -0.005616
    94  H   -0.002106
    95  H   -0.005194
    96  H    0.008145
    97  H    0.004234
    98  H    0.007711
    99  H    0.025802
   100  H    0.022352
   101  H    0.007829
   102  H    0.016978
   103  H    0.014293
   104  H   -0.042721
   105  H   -0.000005
   106  H   -0.002095
   107  H   -0.022420
   108  H   -0.029033
   109  H   -0.020642
   110  H   -0.014219
   111  H   -0.020406
   112  H   -0.029858
   113  H   -0.034647
   114  H   -0.035343
   115  H   -0.015586
   116  H   -0.021520
   117  H   -0.022677
   118  H   -0.035748
   119  H   -0.026945
   120  H   -0.028706
   121  H   -0.029917
   122  H   -0.040243
   123  H   -0.021007
   124  H   -0.048949
   125  H   -0.019831
   126  H   -0.021204
   127  H   -0.025748
   128  H   -0.034816
   129  H   -0.040606
   130  H   -0.040358
   131  H   -0.023411
   132  H   -0.039316
   133  H   -0.034255
   134  H   -0.031222
   135  H   -0.011083
   136  H   -0.025725
   137  H   -0.022805
   138  H   -0.011185
   139  H   -0.014862
   140  H   -0.032428
 Sum of Mulliken charges =  -0.00000

 Dipole moment (field-independent basis, Debye):
    X=              3.3715    Y=              5.0541    Z=             -0.9627  Tot=              6.1512
 Quadrupole moment (field-independent basis, Debye-Ang):
   XX=           -376.0587   YY=           -438.3815   ZZ=           -401.5659
   XY=            -23.5208   XZ=             -6.0078   YZ=             -0.2691

 Normal termination of Gaussian 16 at Fri Apr 29 22:10:47 2022.
