 Gaussian 16, Revision A.03,
 Gaussian 16:  ES64L-G16RevA.03 25-Dec-2016

 -----------------------------------
 #p cam-b3lyp/Def2SVP td=(nstates=5)
 -----------------------------------

 -------------------------------------------------------
 step_501_chromophore_15 TDDFT with cam-b3lyp functional
 -------------------------------------------------------
 Symbolic Z-matrix:
 Charge =  0 Multiplicity = 1

                         Standard orientation:
 ---------------------------------------------------------------------
 Center     Atomic      Atomic             Coordinates (Angstroms)
 Number     Number       Type             X           Y           Z
 ---------------------------------------------------------------------
      1         12           0       -4.857270    0.904871   -0.191417
      2          6           0       -3.976224   -2.463383    0.399215
      3          6           0       -1.591531    1.626917   -0.892671
      4          6           0       -5.652575    4.101582   -0.054981
      5          6           0       -8.099689    0.135792    1.025584
      6          7           0       -3.025059   -0.342786   -0.343989
      7          6           0       -2.935881   -1.630905   -0.077595
      8          6           0       -1.616461   -2.140419   -0.628890
      9          6           0       -0.703681   -0.854114   -0.623720
     10          6           0       -1.828071    0.247609   -0.612206
     11          6           0        0.309984   -0.873126    0.582875
     12          6           0       -1.743493   -2.668846   -2.080818
     13          6           0       -0.594188   -3.661916   -2.557068
     14          6           0        0.578888   -4.038703   -1.648177
     15          8           0        0.601846   -4.945509   -0.815654
     16          8           0        1.613333   -3.179593   -1.755483
     17          7           0       -3.841604    2.579911   -0.633397
     18          6           0       -2.475231    2.716962   -0.988889
     19          6           0       -2.219199    4.142181   -1.302433
     20          6           0       -3.409642    4.883192   -0.969908
     21          6           0       -4.406771    3.886483   -0.522807
     22          6           0       -0.935687    4.650848   -1.857383
     23          6           0       -3.773986    6.417115   -1.042413
     24          8           0       -4.898182    6.876118   -0.798436
     25          6           0       -2.665848    7.399969   -1.286886
     26          7           0       -6.615119    1.997999    0.518306
     27          6           0       -6.711331    3.297096    0.417090
     28          6           0       -8.036199    3.876410    0.827250
     29          6           0       -8.855732    2.589898    1.195433
     30          6           0       -7.836190    1.471796    0.808734
     31          6           0       -7.875250    4.975697    1.881371
     32          6           0      -10.165314    2.428436    0.433811
     33          6           0      -11.393564    1.887270    1.249747
     34          7           0       -5.952532   -0.828337    0.519252
     35          6           0       -7.289222   -0.977751    0.937927
     36          6           0       -7.559088   -2.363094    1.115558
     37          6           0       -6.273255   -2.991640    1.096549
     38          6           0       -5.362948   -2.049257    0.689942
     39          6           0       -8.921817   -2.981193    1.243487
     40          6           0       -5.472681   -4.238691    1.145436
     41          8           0       -5.812980   -5.374579    1.403145
     42          6           0       -3.933799   -3.839866    0.944029
     43          6           0       -3.183806   -4.947338    0.279114
     44          8           0       -3.392013   -5.399522   -0.808014
     45          8           0       -2.217967   -5.500487    1.140526
     46          6           0       -1.914924   -6.936026    0.959305
     47          6           0        2.839903   -3.463658   -1.008971
     48          6           0        3.948436   -3.052890   -1.986288
     49          6           0        5.217569   -2.970844   -1.662365
     50          6           0        5.853441   -3.633120   -0.464843
     51          6           0        6.238263   -2.394142   -2.561168
     52          6           0        6.613690   -1.029167   -1.959461
     53          6           0        8.176729   -0.846468   -2.157385
     54          6           0        8.550628    0.534951   -2.833924
     55          6           0        8.526430    0.501007   -4.391362
     56          6           0        9.988328    0.932933   -2.357886
     57          6           0        9.852329    1.814154   -1.145201
     58          6           0       11.266115    2.474572   -0.946148
     59          6           0       11.476058    3.123935    0.396810
     60          6           0       12.598033    4.187892    0.339806
     61          6           0       11.867016    2.067969    1.458724
     62          6           0       10.798666    1.743052    2.491175
     63          6           0       11.073035    0.422103    3.262803
     64          6           0       10.952850    0.575881    4.763629
     65          6           0       11.969117   -0.125158    5.706880
     66          6           0        9.465331    0.350127    5.399488
     67          1           0       -0.554761    1.968291   -0.936060
     68          1           0       -6.059779    5.112556   -0.112936
     69          1           0       -9.128317   -0.077821    1.323737
     70          1           0       -1.400773   -2.994764    0.012642
     71          1           0       -0.125114   -0.769138   -1.544194
     72          1           0        0.163530   -1.769506    1.184569
     73          1           0       -0.041955   -0.061583    1.219809
     74          1           0        1.361609   -0.857518    0.296347
     75          1           0       -1.702471   -1.768995   -2.695925
     76          1           0       -2.728019   -3.128246   -2.168190
     77          1           0       -0.209297   -3.210486   -3.472758
     78          1           0       -1.121710   -4.565037   -2.864940
     79          1           0       -0.190929    3.939298   -2.212120
     80          1           0       -0.369291    5.228511   -1.127440
     81          1           0       -1.245654    5.243501   -2.718431
     82          1           0       -2.457596    7.581933   -2.341113
     83          1           0       -1.862277    6.891366   -0.752836
     84          1           0       -2.950075    8.308006   -0.755819
     85          1           0       -8.390839    4.302239   -0.111277
     86          1           0       -9.102488    2.510176    2.253425
     87          1           0       -6.968061    4.884960    2.479555
     88          1           0       -8.714740    4.840534    2.562201
     89          1           0       -7.887158    5.977160    1.450654
     90          1           0      -10.046680    1.751793   -0.412295
     91          1           0      -10.295998    3.388232   -0.065777
     92          1           0      -11.098329    1.562548    2.247346
     93          1           0      -11.728850    1.017286    0.685500
     94          1           0      -12.265094    2.530176    1.377372
     95          1           0       -9.430255   -2.379342    1.996878
     96          1           0       -8.920374   -4.019368    1.576089
     97          1           0       -9.473530   -2.859341    0.310813
     98          1           0       -3.450468   -3.828460    1.920420
     99          1           0       -0.875960   -7.018562    0.639833
    100          1           0       -2.585356   -7.414311    0.244408
    101          1           0       -2.046596   -7.380807    1.945646
    102          1           0        3.019254   -4.530809   -0.874668
    103          1           0        2.760389   -2.904895   -0.076964
    104          1           0        3.670681   -2.515263   -2.893210
    105          1           0        6.000922   -2.895162    0.323983
    106          1           0        6.725920   -4.179358   -0.821961
    107          1           0        5.303945   -4.417841    0.055689
    108          1           0        5.826628   -2.255046   -3.560407
    109          1           0        7.038195   -3.132260   -2.518047
    110          1           0        6.472256   -0.894421   -0.887731
    111          1           0        6.028058   -0.277402   -2.489761
    112          1           0        8.649827   -1.641381   -2.732764
    113          1           0        8.620947   -0.978430   -1.170855
    114          1           0        7.765115    1.252074   -2.593687
    115          1           0        7.990377    1.368055   -4.778150
    116          1           0        8.118889   -0.433687   -4.777922
    117          1           0        9.509987    0.560442   -4.856603
    118          1           0       10.472705    1.464612   -3.176398
    119          1           0       10.557587    0.059949   -2.040848
    120          1           0        9.647829    1.283461   -0.215811
    121          1           0        9.112846    2.592715   -1.331372
    122          1           0       11.115196    3.346766   -1.581332
    123          1           0       12.165589    1.927059   -1.226823
    124          1           0       10.571567    3.656332    0.692727
    125          1           0       13.420900    3.904640    0.997025
    126          1           0       12.206578    5.136224    0.708440
    127          1           0       12.895085    4.301635   -0.702728
    128          1           0       12.768107    2.309086    2.023442
    129          1           0       12.077771    1.151225    0.907829
    130          1           0        9.926794    1.572004    1.860899
    131          1           0       10.607044    2.536110    3.215423
    132          1           0       12.079907    0.025978    3.134093
    133          1           0       10.385972   -0.338972    2.893643
    134          1           0       11.048468    1.637407    4.992232
    135          1           0       11.587789   -0.610762    6.604810
    136          1           0       12.637460    0.637465    6.105792
    137          1           0       12.625843   -0.773481    5.126920
    138          1           0        9.118025    1.202112    5.983187
    139          1           0        9.333937   -0.548133    6.003093
    140          1           0        8.729033    0.196604    4.611233
 ---------------------------------------------------------------------

 SCF Done:  E(RCAM-B3LYP) =  -3007.15703300     A.U. after   19 cycles

 Excitation energies and oscillator strengths:

 Excited State   1:      Singlet-A      1.7937 eV  691.23 nm  f=0.3631  <S**2>=0.000
     245 -> 248        0.18933
     246 -> 247        0.68021
     245 <- 248        0.10322
 This state for optimization and/or second-order correction.
 Total Energy, E(TD-HF/TD-DFT) =  -3007.09111695
 Copying the excited state density for this state as the 1-particle RhoCI density.

 Excited State   2:      Singlet-A      2.1666 eV  572.24 nm  f=0.1044  <S**2>=0.000
     245 -> 247        0.64323
     246 -> 248       -0.27277

 Excited State   3:      Singlet-A      3.2163 eV  385.48 nm  f=0.0016  <S**2>=0.000
     243 -> 247        0.13421
     244 -> 247        0.66748

 Excited State   4:      Singlet-A      3.4297 eV  361.50 nm  f=0.3355  <S**2>=0.000
     240 -> 247        0.22314
     241 -> 247       -0.23341
     243 -> 247       -0.24010
     245 -> 247        0.18853
     246 -> 248        0.54105

 Excited State   5:      Singlet-A      3.5711 eV  347.19 nm  f=0.0388  <S**2>=0.000
     239 -> 247        0.50318
     239 -> 248        0.12491
     239 -> 249        0.36185
     240 -> 247       -0.14904
     243 -> 247        0.11930

 The electronic state is 1-A.
 Alpha  occ. eigenvalues --  -46.88509 -19.24794 -19.22308 -19.20285 -19.18921
 Alpha  occ. eigenvalues --  -19.18897 -19.18169 -14.41971 -14.41699 -14.39710
 Alpha  occ. eigenvalues --  -14.37949 -10.39045 -10.37906 -10.36777 -10.34603
 Alpha  occ. eigenvalues --  -10.32178 -10.32175 -10.31505 -10.30775 -10.30602
 Alpha  occ. eigenvalues --  -10.30563 -10.30143 -10.29692 -10.29543 -10.29175
 Alpha  occ. eigenvalues --  -10.28180 -10.28041 -10.27981 -10.27822 -10.27806
 Alpha  occ. eigenvalues --  -10.27656 -10.27587 -10.27571 -10.27324 -10.27318
 Alpha  occ. eigenvalues --  -10.27092 -10.26895 -10.26860 -10.26739 -10.26185
 Alpha  occ. eigenvalues --  -10.26112 -10.26045 -10.26007 -10.26001 -10.25987
 Alpha  occ. eigenvalues --  -10.25980 -10.25948 -10.25857 -10.25835 -10.25540
 Alpha  occ. eigenvalues --  -10.25534 -10.25406 -10.25399 -10.25141 -10.24949
 Alpha  occ. eigenvalues --  -10.24900 -10.24896 -10.24865 -10.24841 -10.24632
 Alpha  occ. eigenvalues --  -10.24567 -10.24458 -10.24443 -10.24402 -10.24330
 Alpha  occ. eigenvalues --  -10.24088  -3.16970  -1.91883  -1.91428  -1.91266
 Alpha  occ. eigenvalues --   -1.16546  -1.14417  -1.10464  -1.09324  -1.06638
 Alpha  occ. eigenvalues --   -1.06130  -1.05065  -1.04536  -1.01629  -1.00935
 Alpha  occ. eigenvalues --   -0.91676  -0.91618  -0.90544  -0.89241  -0.88854
 Alpha  occ. eigenvalues --   -0.88786  -0.88503  -0.87582  -0.87376  -0.87212
 Alpha  occ. eigenvalues --   -0.85455  -0.85159  -0.84193  -0.83673  -0.83231
 Alpha  occ. eigenvalues --   -0.82829  -0.82314  -0.81323  -0.80846  -0.80013
 Alpha  occ. eigenvalues --   -0.79538  -0.78597  -0.77500  -0.77106  -0.76261
 Alpha  occ. eigenvalues --   -0.75527  -0.75057  -0.74971  -0.74695  -0.74543
 Alpha  occ. eigenvalues --   -0.73228  -0.72452  -0.71594  -0.69937  -0.69716
 Alpha  occ. eigenvalues --   -0.68365  -0.67913  -0.67010  -0.66889  -0.66024
 Alpha  occ. eigenvalues --   -0.65752  -0.65667  -0.64452  -0.64405  -0.63618
 Alpha  occ. eigenvalues --   -0.63389  -0.63143  -0.62442  -0.60479  -0.60131
 Alpha  occ. eigenvalues --   -0.59590  -0.59112  -0.58891  -0.58065  -0.57517
 Alpha  occ. eigenvalues --   -0.56707  -0.56617  -0.56346  -0.55868  -0.55685
 Alpha  occ. eigenvalues --   -0.55238  -0.54841  -0.54321  -0.53939  -0.53673
 Alpha  occ. eigenvalues --   -0.53405  -0.53109  -0.53011  -0.52960  -0.52692
 Alpha  occ. eigenvalues --   -0.52443  -0.52004  -0.51859  -0.51730  -0.51564
 Alpha  occ. eigenvalues --   -0.51383  -0.51217  -0.51022  -0.50811  -0.50698
 Alpha  occ. eigenvalues --   -0.50551  -0.50259  -0.50158  -0.50010  -0.49813
 Alpha  occ. eigenvalues --   -0.49506  -0.49104  -0.48879  -0.48539  -0.48497
 Alpha  occ. eigenvalues --   -0.48355  -0.48232  -0.48119  -0.47947  -0.47723
 Alpha  occ. eigenvalues --   -0.47423  -0.47222  -0.47049  -0.46826  -0.46526
 Alpha  occ. eigenvalues --   -0.46471  -0.46409  -0.46307  -0.46059  -0.45730
 Alpha  occ. eigenvalues --   -0.45493  -0.45226  -0.44938  -0.44801  -0.44687
 Alpha  occ. eigenvalues --   -0.44561  -0.44338  -0.44081  -0.44007  -0.43791
 Alpha  occ. eigenvalues --   -0.43600  -0.43244  -0.43020  -0.42961  -0.42626
 Alpha  occ. eigenvalues --   -0.42558  -0.42551  -0.42376  -0.42253  -0.42066
 Alpha  occ. eigenvalues --   -0.41818  -0.41681  -0.41499  -0.41348  -0.41105
 Alpha  occ. eigenvalues --   -0.41017  -0.40952  -0.40501  -0.40387  -0.40264
 Alpha  occ. eigenvalues --   -0.40094  -0.39930  -0.39918  -0.39146  -0.39045
 Alpha  occ. eigenvalues --   -0.38512  -0.38189  -0.38059  -0.37769  -0.37598
 Alpha  occ. eigenvalues --   -0.37317  -0.36855  -0.36638  -0.36163  -0.36019
 Alpha  occ. eigenvalues --   -0.35794  -0.34677  -0.34413  -0.33821  -0.33776
 Alpha  occ. eigenvalues --   -0.33380  -0.33322  -0.32787  -0.31882  -0.31132
 Alpha  occ. eigenvalues --   -0.30323  -0.30143  -0.29824  -0.28218  -0.23673
 Alpha  occ. eigenvalues --   -0.21291
 Alpha virt. eigenvalues --   -0.08446  -0.01988  -0.00086   0.02805   0.03039
 Alpha virt. eigenvalues --    0.05101   0.05260   0.06094   0.06364   0.06569
 Alpha virt. eigenvalues --    0.07629   0.08070   0.08564   0.08805   0.09346

 Mulliken charges:
               1
     1  Mg   0.811635
     2  C    0.064802
     3  C   -0.080634
     4  C   -0.049916
     5  C   -0.080249
     6  N   -0.243844
     7  C   -0.030815
     8  C   -0.128958
     9  C   -0.051228
    10  C    0.069844
    11  C    0.075293
    12  C    0.077065
    13  C    0.102068
    14  C    0.139769
    15  O   -0.242672
    16  O   -0.329195
    17  N   -0.472426
    18  C    0.155861
    19  C   -0.130043
    20  C   -0.044158
    21  C    0.185347
    22  C    0.083174
    23  C    0.032388
    24  O   -0.206869
    25  C    0.049063
    26  N   -0.232657
    27  C   -0.065657
    28  C    0.007777
    29  C   -0.051200
    30  C    0.034438
    31  C    0.080446
    32  C    0.038151
    33  C   -0.000222
    34  N   -0.356227
    35  C    0.124485
    36  C   -0.178865
    37  C    0.008060
    38  C    0.039622
    39  C    0.125014
    40  C    0.058857
    41  O   -0.163727
    42  C   -0.024885
    43  C    0.158041
    44  O   -0.182199
    45  O   -0.373738
    46  C    0.174477
    47  C    0.279171
    48  C   -0.127484
    49  C   -0.183682
    50  C    0.068531
    51  C    0.099937
    52  C    0.017166
    53  C    0.020365
    54  C   -0.122259
    55  C    0.043581
    56  C    0.068646
    57  C    0.017331
    58  C    0.021122
    59  C   -0.131636
    60  C    0.069278
    61  C    0.040964
    62  C    0.023284
    63  C    0.094115
    64  C   -0.171382
    65  C    0.053080
    66  C    0.003386
    67  H   -0.025788
    68  H   -0.013048
    69  H   -0.046774
    70  H    0.030393
    71  H    0.012420
    72  H    0.021383
    73  H    0.010279
    74  H    0.029104
    75  H   -0.000872
    76  H    0.030287
    77  H    0.012722
    78  H    0.040025
    79  H    0.018830
    80  H    0.042203
    81  H    0.038029
    82  H    0.056700
    83  H    0.022210
    84  H    0.038931
    85  H    0.015339
    86  H    0.015313
    87  H    0.024384
    88  H    0.009807
    89  H    0.034268
    90  H    0.006777
    91  H   -0.002439
    92  H    0.016876
    93  H    0.017392
    94  H    0.022409
    95  H    0.015465
    96  H    0.034374
    97  H    0.028092
    98  H    0.051079
    99  H    0.047066
   100  H    0.046164
   101  H    0.029297
   102  H    0.047271
   103  H    0.037436
   104  H   -0.008632
   105  H    0.024665
   106  H    0.022179
   107  H    0.004876
   108  H    0.002000
   109  H    0.008074
   110  H    0.013293
   111  H    0.006763
   112  H   -0.002367
   113  H   -0.006737
   114  H   -0.004369
   115  H    0.008266
   116  H    0.001827
   117  H    0.001918
   118  H   -0.005045
   119  H    0.001046
   120  H   -0.007410
   121  H   -0.002066
   122  H   -0.010686
   123  H    0.007502
   124  H   -0.014748
   125  H    0.004819
   126  H    0.003570
   127  H   -0.000031
   128  H   -0.006820
   129  H   -0.012380
   130  H   -0.015415
   131  H    0.003700
   132  H   -0.010202
   133  H   -0.005188
   134  H    0.000868
   135  H    0.013722
   136  H   -0.001376
   137  H    0.001036
   138  H    0.011944
   139  H    0.008130
   140  H   -0.008937
 Sum of Mulliken charges =  -0.00000

 Dipole moment (field-independent basis, Debye):
    X=              4.1181    Y=              6.6368    Z=             -1.3793  Tot=              7.9315
 Quadrupole moment (field-independent basis, Debye-Ang):
   XX=           -380.6804   YY=           -432.5601   ZZ=           -400.8070
   XY=            -29.3572   XZ=             -4.5588   YZ=             -1.3294

 Normal termination of Gaussian 16 at Fri Apr 29 21:07:49 2022.
