 Gaussian 16, Revision A.03,
 Gaussian 16:  ES64L-G16RevA.03 25-Dec-2016

 ---------------------------------
 #p PBE1PBE/Def2SVP td=(nstates=5)
 ---------------------------------

 -----------------------------------------------------
 step_501_chromophore_15 TDDFT with PBE1PBE functional
 -----------------------------------------------------
 Symbolic Z-matrix:
 Charge =  0 Multiplicity = 1

                         Standard orientation:
 ---------------------------------------------------------------------
 Center     Atomic      Atomic             Coordinates (Angstroms)
 Number     Number       Type             X           Y           Z
 ---------------------------------------------------------------------
      1         12           0       -4.857270    0.904871   -0.191417
      2          6           0       -3.976224   -2.463383    0.399215
      3          6           0       -1.591531    1.626917   -0.892671
      4          6           0       -5.652575    4.101582   -0.054981
      5          6           0       -8.099689    0.135792    1.025584
      6          7           0       -3.025059   -0.342786   -0.343989
      7          6           0       -2.935881   -1.630905   -0.077595
      8          6           0       -1.616461   -2.140419   -0.628890
      9          6           0       -0.703681   -0.854114   -0.623720
     10          6           0       -1.828071    0.247609   -0.612206
     11          6           0        0.309984   -0.873126    0.582875
     12          6           0       -1.743493   -2.668846   -2.080818
     13          6           0       -0.594188   -3.661916   -2.557068
     14          6           0        0.578888   -4.038703   -1.648177
     15          8           0        0.601846   -4.945509   -0.815654
     16          8           0        1.613333   -3.179593   -1.755483
     17          7           0       -3.841604    2.579911   -0.633397
     18          6           0       -2.475231    2.716962   -0.988889
     19          6           0       -2.219199    4.142181   -1.302433
     20          6           0       -3.409642    4.883192   -0.969908
     21          6           0       -4.406771    3.886483   -0.522807
     22          6           0       -0.935687    4.650848   -1.857383
     23          6           0       -3.773986    6.417115   -1.042413
     24          8           0       -4.898182    6.876118   -0.798436
     25          6           0       -2.665848    7.399969   -1.286886
     26          7           0       -6.615119    1.997999    0.518306
     27          6           0       -6.711331    3.297096    0.417090
     28          6           0       -8.036199    3.876410    0.827250
     29          6           0       -8.855732    2.589898    1.195433
     30          6           0       -7.836190    1.471796    0.808734
     31          6           0       -7.875250    4.975697    1.881371
     32          6           0      -10.165314    2.428436    0.433811
     33          6           0      -11.393564    1.887270    1.249747
     34          7           0       -5.952532   -0.828337    0.519252
     35          6           0       -7.289222   -0.977751    0.937927
     36          6           0       -7.559088   -2.363094    1.115558
     37          6           0       -6.273255   -2.991640    1.096549
     38          6           0       -5.362948   -2.049257    0.689942
     39          6           0       -8.921817   -2.981193    1.243487
     40          6           0       -5.472681   -4.238691    1.145436
     41          8           0       -5.812980   -5.374579    1.403145
     42          6           0       -3.933799   -3.839866    0.944029
     43          6           0       -3.183806   -4.947338    0.279114
     44          8           0       -3.392013   -5.399522   -0.808014
     45          8           0       -2.217967   -5.500487    1.140526
     46          6           0       -1.914924   -6.936026    0.959305
     47          6           0        2.839903   -3.463658   -1.008971
     48          6           0        3.948436   -3.052890   -1.986288
     49          6           0        5.217569   -2.970844   -1.662365
     50          6           0        5.853441   -3.633120   -0.464843
     51          6           0        6.238263   -2.394142   -2.561168
     52          6           0        6.613690   -1.029167   -1.959461
     53          6           0        8.176729   -0.846468   -2.157385
     54          6           0        8.550628    0.534951   -2.833924
     55          6           0        8.526430    0.501007   -4.391362
     56          6           0        9.988328    0.932933   -2.357886
     57          6           0        9.852329    1.814154   -1.145201
     58          6           0       11.266115    2.474572   -0.946148
     59          6           0       11.476058    3.123935    0.396810
     60          6           0       12.598033    4.187892    0.339806
     61          6           0       11.867016    2.067969    1.458724
     62          6           0       10.798666    1.743052    2.491175
     63          6           0       11.073035    0.422103    3.262803
     64          6           0       10.952850    0.575881    4.763629
     65          6           0       11.969117   -0.125158    5.706880
     66          6           0        9.465331    0.350127    5.399488
     67          1           0       -0.554761    1.968291   -0.936060
     68          1           0       -6.059779    5.112556   -0.112936
     69          1           0       -9.128317   -0.077821    1.323737
     70          1           0       -1.400773   -2.994764    0.012642
     71          1           0       -0.125114   -0.769138   -1.544194
     72          1           0        0.163530   -1.769506    1.184569
     73          1           0       -0.041955   -0.061583    1.219809
     74          1           0        1.361609   -0.857518    0.296347
     75          1           0       -1.702471   -1.768995   -2.695925
     76          1           0       -2.728019   -3.128246   -2.168190
     77          1           0       -0.209297   -3.210486   -3.472758
     78          1           0       -1.121710   -4.565037   -2.864940
     79          1           0       -0.190929    3.939298   -2.212120
     80          1           0       -0.369291    5.228511   -1.127440
     81          1           0       -1.245654    5.243501   -2.718431
     82          1           0       -2.457596    7.581933   -2.341113
     83          1           0       -1.862277    6.891366   -0.752836
     84          1           0       -2.950075    8.308006   -0.755819
     85          1           0       -8.390839    4.302239   -0.111277
     86          1           0       -9.102488    2.510176    2.253425
     87          1           0       -6.968061    4.884960    2.479555
     88          1           0       -8.714740    4.840534    2.562201
     89          1           0       -7.887158    5.977160    1.450654
     90          1           0      -10.046680    1.751793   -0.412295
     91          1           0      -10.295998    3.388232   -0.065777
     92          1           0      -11.098329    1.562548    2.247346
     93          1           0      -11.728850    1.017286    0.685500
     94          1           0      -12.265094    2.530176    1.377372
     95          1           0       -9.430255   -2.379342    1.996878
     96          1           0       -8.920374   -4.019368    1.576089
     97          1           0       -9.473530   -2.859341    0.310813
     98          1           0       -3.450468   -3.828460    1.920420
     99          1           0       -0.875960   -7.018562    0.639833
    100          1           0       -2.585356   -7.414311    0.244408
    101          1           0       -2.046596   -7.380807    1.945646
    102          1           0        3.019254   -4.530809   -0.874668
    103          1           0        2.760389   -2.904895   -0.076964
    104          1           0        3.670681   -2.515263   -2.893210
    105          1           0        6.000922   -2.895162    0.323983
    106          1           0        6.725920   -4.179358   -0.821961
    107          1           0        5.303945   -4.417841    0.055689
    108          1           0        5.826628   -2.255046   -3.560407
    109          1           0        7.038195   -3.132260   -2.518047
    110          1           0        6.472256   -0.894421   -0.887731
    111          1           0        6.028058   -0.277402   -2.489761
    112          1           0        8.649827   -1.641381   -2.732764
    113          1           0        8.620947   -0.978430   -1.170855
    114          1           0        7.765115    1.252074   -2.593687
    115          1           0        7.990377    1.368055   -4.778150
    116          1           0        8.118889   -0.433687   -4.777922
    117          1           0        9.509987    0.560442   -4.856603
    118          1           0       10.472705    1.464612   -3.176398
    119          1           0       10.557587    0.059949   -2.040848
    120          1           0        9.647829    1.283461   -0.215811
    121          1           0        9.112846    2.592715   -1.331372
    122          1           0       11.115196    3.346766   -1.581332
    123          1           0       12.165589    1.927059   -1.226823
    124          1           0       10.571567    3.656332    0.692727
    125          1           0       13.420900    3.904640    0.997025
    126          1           0       12.206578    5.136224    0.708440
    127          1           0       12.895085    4.301635   -0.702728
    128          1           0       12.768107    2.309086    2.023442
    129          1           0       12.077771    1.151225    0.907829
    130          1           0        9.926794    1.572004    1.860899
    131          1           0       10.607044    2.536110    3.215423
    132          1           0       12.079907    0.025978    3.134093
    133          1           0       10.385972   -0.338972    2.893643
    134          1           0       11.048468    1.637407    4.992232
    135          1           0       11.587789   -0.610762    6.604810
    136          1           0       12.637460    0.637465    6.105792
    137          1           0       12.625843   -0.773481    5.126920
    138          1           0        9.118025    1.202112    5.983187
    139          1           0        9.333937   -0.548133    6.003093
    140          1           0        8.729033    0.196604    4.611233
 ---------------------------------------------------------------------

 SCF Done:  E(RPBE1PBE) =  -3005.34367455     A.U. after   16 cycles

 Excitation energies and oscillator strengths:

 Excited State   1:      Singlet-A      1.8896 eV  656.14 nm  f=0.3512  <S**2>=0.000
     245 -> 248        0.18733
     246 -> 247        0.68562
 This state for optimization and/or second-order correction.
 Total Energy, E(TD-HF/TD-DFT) =  -3005.27423302
 Copying the excited state density for this state as the 1-particle RhoCI density.

 Excited State   2:      Singlet-A      2.1317 eV  581.63 nm  f=0.1008  <S**2>=0.000
     245 -> 247        0.65970
     246 -> 248       -0.23063

 Excited State   3:      Singlet-A      2.8322 eV  437.77 nm  f=0.0044  <S**2>=0.000
     244 -> 247        0.68977

 Excited State   4:      Singlet-A      3.0572 eV  405.54 nm  f=0.0097  <S**2>=0.000
     241 -> 247       -0.18771
     243 -> 247        0.64593

 Excited State   5:      Singlet-A      3.1719 eV  390.88 nm  f=0.0038  <S**2>=0.000
     239 -> 247        0.18112
     240 -> 247        0.62424
     240 -> 249        0.19856
     241 -> 247       -0.10426

 The electronic state is 1-A.
 Alpha  occ. eigenvalues --  -46.91909 -19.25474 -19.23120 -19.20179 -19.19236
 Alpha  occ. eigenvalues --  -19.19195 -19.18719 -14.41486 -14.41098 -14.39282
 Alpha  occ. eigenvalues --  -14.37857 -10.36103 -10.35058 -10.33611 -10.32075
 Alpha  occ. eigenvalues --  -10.29626 -10.29588 -10.28770 -10.28145 -10.28054
 Alpha  occ. eigenvalues --  -10.28005 -10.27825 -10.27736 -10.26880 -10.26478
 Alpha  occ. eigenvalues --  -10.26220 -10.25941 -10.25862 -10.25806 -10.25497
 Alpha  occ. eigenvalues --  -10.25467 -10.25396 -10.25161 -10.25140 -10.25110
 Alpha  occ. eigenvalues --  -10.24746 -10.24650 -10.24456 -10.23912 -10.23906
 Alpha  occ. eigenvalues --  -10.23789 -10.23735 -10.23672 -10.23577 -10.23571
 Alpha  occ. eigenvalues --  -10.23449 -10.23397 -10.23361 -10.23253 -10.23242
 Alpha  occ. eigenvalues --  -10.23101 -10.23005 -10.22840 -10.22671 -10.22620
 Alpha  occ. eigenvalues --  -10.22485 -10.22453 -10.22430 -10.22408 -10.22363
 Alpha  occ. eigenvalues --  -10.22144 -10.22026 -10.21942 -10.21863 -10.21826
 Alpha  occ. eigenvalues --  -10.21483  -3.13953  -1.86806  -1.86327  -1.86172
 Alpha  occ. eigenvalues --   -1.11381  -1.09292  -1.04865  -1.04388  -1.01509
 Alpha  occ. eigenvalues --   -1.01108  -0.99668  -0.99149  -0.96615  -0.95266
 Alpha  occ. eigenvalues --   -0.86224  -0.85776  -0.84630  -0.83536  -0.83056
 Alpha  occ. eigenvalues --   -0.82914  -0.82720  -0.81591  -0.81487  -0.81470
 Alpha  occ. eigenvalues --   -0.80027  -0.79424  -0.78389  -0.78047  -0.77457
 Alpha  occ. eigenvalues --   -0.76785  -0.76505  -0.75571  -0.75145  -0.74254
 Alpha  occ. eigenvalues --   -0.73899  -0.72711  -0.71822  -0.71438  -0.70429
 Alpha  occ. eigenvalues --   -0.69883  -0.69372  -0.69150  -0.68811  -0.68704
 Alpha  occ. eigenvalues --   -0.67571  -0.66953  -0.66038  -0.64221  -0.64141
 Alpha  occ. eigenvalues --   -0.62677  -0.62348  -0.61340  -0.61160  -0.60425
 Alpha  occ. eigenvalues --   -0.60133  -0.59858  -0.59006  -0.58527  -0.58233
 Alpha  occ. eigenvalues --   -0.57671  -0.57527  -0.56628  -0.55150  -0.54484
 Alpha  occ. eigenvalues --   -0.53995  -0.53679  -0.53429  -0.52653  -0.52256
 Alpha  occ. eigenvalues --   -0.51318  -0.51084  -0.50745  -0.50312  -0.50076
 Alpha  occ. eigenvalues --   -0.49851  -0.49519  -0.48904  -0.48480  -0.47881
 Alpha  occ. eigenvalues --   -0.47738  -0.47659  -0.47595  -0.47429  -0.47246
 Alpha  occ. eigenvalues --   -0.46924  -0.46548  -0.46431  -0.46308  -0.46169
 Alpha  occ. eigenvalues --   -0.45970  -0.45724  -0.45507  -0.45346  -0.45186
 Alpha  occ. eigenvalues --   -0.45080  -0.44856  -0.44698  -0.44655  -0.44448
 Alpha  occ. eigenvalues --   -0.44056  -0.43842  -0.43487  -0.43179  -0.43064
 Alpha  occ. eigenvalues --   -0.42904  -0.42806  -0.42654  -0.42576  -0.42361
 Alpha  occ. eigenvalues --   -0.42010  -0.41879  -0.41791  -0.41493  -0.41235
 Alpha  occ. eigenvalues --   -0.41035  -0.40989  -0.40906  -0.40717  -0.40546
 Alpha  occ. eigenvalues --   -0.40311  -0.40081  -0.39638  -0.39548  -0.39370
 Alpha  occ. eigenvalues --   -0.39334  -0.39052  -0.38953  -0.38769  -0.38511
 Alpha  occ. eigenvalues --   -0.38409  -0.37953  -0.37909  -0.37674  -0.37389
 Alpha  occ. eigenvalues --   -0.37361  -0.37229  -0.37133  -0.37022  -0.36842
 Alpha  occ. eigenvalues --   -0.36610  -0.36529  -0.36393  -0.36280  -0.35899
 Alpha  occ. eigenvalues --   -0.35884  -0.35827  -0.35422  -0.35193  -0.35089
 Alpha  occ. eigenvalues --   -0.35015  -0.34842  -0.34646  -0.34070  -0.33791
 Alpha  occ. eigenvalues --   -0.33297  -0.33109  -0.32806  -0.32622  -0.32546
 Alpha  occ. eigenvalues --   -0.32157  -0.31894  -0.31565  -0.31118  -0.30873
 Alpha  occ. eigenvalues --   -0.30871  -0.29614  -0.29432  -0.29212  -0.29049
 Alpha  occ. eigenvalues --   -0.28392  -0.28192  -0.27910  -0.26593  -0.26351
 Alpha  occ. eigenvalues --   -0.25676  -0.25415  -0.25208  -0.24182  -0.20539
 Alpha  occ. eigenvalues --   -0.18860
 Alpha virt. eigenvalues --   -0.11000  -0.05470  -0.04158  -0.01665   0.00136
 Alpha virt. eigenvalues --    0.00475   0.00608   0.01531   0.02076   0.03132
 Alpha virt. eigenvalues --    0.03515   0.04390   0.04840   0.05757   0.06035

 Mulliken charges:
               1
     1  Mg   0.958945
     2  C    0.046566
     3  C   -0.074998
     4  C   -0.052762
     5  C   -0.079181
     6  N   -0.347863
     7  C    0.054546
     8  C   -0.211262
     9  C   -0.124411
    10  C    0.097725
    11  C    0.018683
    12  C    0.030558
    13  C    0.033350
    14  C    0.203234
    15  O   -0.277076
    16  O   -0.360478
    17  N   -0.578054
    18  C    0.176769
    19  C   -0.167482
    20  C   -0.089761
    21  C    0.211832
    22  C    0.027358
    23  C    0.086963
    24  O   -0.246098
    25  C   -0.026514
    26  N   -0.340898
    27  C   -0.019377
    28  C   -0.071700
    29  C   -0.133154
    30  C    0.074186
    31  C    0.021441
    32  C   -0.014600
    33  C   -0.073296
    34  N   -0.472201
    35  C    0.150412
    36  C   -0.196474
    37  C   -0.036315
    38  C    0.096385
    39  C    0.070808
    40  C    0.153947
    41  O   -0.206253
    42  C   -0.134795
    43  C    0.250110
    44  O   -0.219428
    45  O   -0.406081
    46  C    0.120664
    47  C    0.239352
    48  C   -0.136749
    49  C   -0.230744
    50  C    0.012539
    51  C    0.028434
    52  C   -0.038968
    53  C   -0.028629
    54  C   -0.209312
    55  C   -0.013078
    56  C    0.008789
    57  C   -0.044914
    58  C   -0.041528
    59  C   -0.217332
    60  C    0.011752
    61  C   -0.010190
    62  C   -0.047622
    63  C    0.039410
    64  C   -0.260679
    65  C   -0.007716
    66  C   -0.054989
    67  H    0.007713
    68  H    0.020320
    69  H   -0.011103
    70  H    0.070995
    71  H    0.048144
    72  H    0.047567
    73  H    0.038938
    74  H    0.055962
    75  H    0.033493
    76  H    0.062330
    77  H    0.045200
    78  H    0.071524
    79  H    0.043469
    80  H    0.066755
    81  H    0.065323
    82  H    0.080982
    83  H    0.050072
    84  H    0.064997
    85  H    0.052990
    86  H    0.052346
    87  H    0.052676
    88  H    0.037861
    89  H    0.060600
    90  H    0.039238
    91  H    0.031633
    92  H    0.042581
    93  H    0.044152
    94  H    0.050673
    95  H    0.044184
    96  H    0.062841
    97  H    0.057606
    98  H    0.089349
    99  H    0.069866
   100  H    0.066614
   101  H    0.051940
   102  H    0.073293
   103  H    0.063589
   104  H    0.021174
   105  H    0.051487
   106  H    0.047535
   107  H    0.032093
   108  H    0.033947
   109  H    0.040598
   110  H    0.045448
   111  H    0.039070
   112  H    0.028960
   113  H    0.025666
   114  H    0.032206
   115  H    0.035769
   116  H    0.029485
   117  H    0.028617
   118  H    0.028044
   119  H    0.034096
   120  H    0.029931
   121  H    0.030344
   122  H    0.025771
   123  H    0.038268
   124  H    0.023204
   125  H    0.031571
   126  H    0.031568
   127  H    0.027029
   128  H    0.025981
   129  H    0.021250
   130  H    0.020865
   131  H    0.035412
   132  H    0.022132
   133  H    0.027126
   134  H    0.039783
   135  H    0.039878
   136  H    0.026490
   137  H    0.028270
   138  H    0.038723
   139  H    0.034711
   140  H    0.018988
 Sum of Mulliken charges =  -0.00000

 Dipole moment (field-independent basis, Debye):
    X=              3.7099    Y=              5.9017    Z=             -1.1868  Tot=              7.0712
 Quadrupole moment (field-independent basis, Debye-Ang):
   XX=           -371.1506   YY=           -431.4907   ZZ=           -398.2405
   XY=            -26.4378   XZ=             -6.0567   YZ=             -1.1348

 Normal termination of Gaussian 16 at Fri Apr 29 21:26:42 2022.
