 Gaussian 16, Revision A.03,
 Gaussian 16:  ES64L-G16RevA.03 25-Dec-2016

 --------------------------------
 #p wB97XD/Def2SVP td=(nstates=5)
 --------------------------------

 ----------------------------------------------------
 step_501_chromophore_15 TDDFT with wB97XD functional
 ----------------------------------------------------
 Symbolic Z-matrix:
 Charge =  0 Multiplicity = 1

                         Standard orientation:
 ---------------------------------------------------------------------
 Center     Atomic      Atomic             Coordinates (Angstroms)
 Number     Number       Type             X           Y           Z
 ---------------------------------------------------------------------
      1         12           0       -4.857270    0.904871   -0.191417
      2          6           0       -3.976224   -2.463383    0.399215
      3          6           0       -1.591531    1.626917   -0.892671
      4          6           0       -5.652575    4.101582   -0.054981
      5          6           0       -8.099689    0.135792    1.025584
      6          7           0       -3.025059   -0.342786   -0.343989
      7          6           0       -2.935881   -1.630905   -0.077595
      8          6           0       -1.616461   -2.140419   -0.628890
      9          6           0       -0.703681   -0.854114   -0.623720
     10          6           0       -1.828071    0.247609   -0.612206
     11          6           0        0.309984   -0.873126    0.582875
     12          6           0       -1.743493   -2.668846   -2.080818
     13          6           0       -0.594188   -3.661916   -2.557068
     14          6           0        0.578888   -4.038703   -1.648177
     15          8           0        0.601846   -4.945509   -0.815654
     16          8           0        1.613333   -3.179593   -1.755483
     17          7           0       -3.841604    2.579911   -0.633397
     18          6           0       -2.475231    2.716962   -0.988889
     19          6           0       -2.219199    4.142181   -1.302433
     20          6           0       -3.409642    4.883192   -0.969908
     21          6           0       -4.406771    3.886483   -0.522807
     22          6           0       -0.935687    4.650848   -1.857383
     23          6           0       -3.773986    6.417115   -1.042413
     24          8           0       -4.898182    6.876118   -0.798436
     25          6           0       -2.665848    7.399969   -1.286886
     26          7           0       -6.615119    1.997999    0.518306
     27          6           0       -6.711331    3.297096    0.417090
     28          6           0       -8.036199    3.876410    0.827250
     29          6           0       -8.855732    2.589898    1.195433
     30          6           0       -7.836190    1.471796    0.808734
     31          6           0       -7.875250    4.975697    1.881371
     32          6           0      -10.165314    2.428436    0.433811
     33          6           0      -11.393564    1.887270    1.249747
     34          7           0       -5.952532   -0.828337    0.519252
     35          6           0       -7.289222   -0.977751    0.937927
     36          6           0       -7.559088   -2.363094    1.115558
     37          6           0       -6.273255   -2.991640    1.096549
     38          6           0       -5.362948   -2.049257    0.689942
     39          6           0       -8.921817   -2.981193    1.243487
     40          6           0       -5.472681   -4.238691    1.145436
     41          8           0       -5.812980   -5.374579    1.403145
     42          6           0       -3.933799   -3.839866    0.944029
     43          6           0       -3.183806   -4.947338    0.279114
     44          8           0       -3.392013   -5.399522   -0.808014
     45          8           0       -2.217967   -5.500487    1.140526
     46          6           0       -1.914924   -6.936026    0.959305
     47          6           0        2.839903   -3.463658   -1.008971
     48          6           0        3.948436   -3.052890   -1.986288
     49          6           0        5.217569   -2.970844   -1.662365
     50          6           0        5.853441   -3.633120   -0.464843
     51          6           0        6.238263   -2.394142   -2.561168
     52          6           0        6.613690   -1.029167   -1.959461
     53          6           0        8.176729   -0.846468   -2.157385
     54          6           0        8.550628    0.534951   -2.833924
     55          6           0        8.526430    0.501007   -4.391362
     56          6           0        9.988328    0.932933   -2.357886
     57          6           0        9.852329    1.814154   -1.145201
     58          6           0       11.266115    2.474572   -0.946148
     59          6           0       11.476058    3.123935    0.396810
     60          6           0       12.598033    4.187892    0.339806
     61          6           0       11.867016    2.067969    1.458724
     62          6           0       10.798666    1.743052    2.491175
     63          6           0       11.073035    0.422103    3.262803
     64          6           0       10.952850    0.575881    4.763629
     65          6           0       11.969117   -0.125158    5.706880
     66          6           0        9.465331    0.350127    5.399488
     67          1           0       -0.554761    1.968291   -0.936060
     68          1           0       -6.059779    5.112556   -0.112936
     69          1           0       -9.128317   -0.077821    1.323737
     70          1           0       -1.400773   -2.994764    0.012642
     71          1           0       -0.125114   -0.769138   -1.544194
     72          1           0        0.163530   -1.769506    1.184569
     73          1           0       -0.041955   -0.061583    1.219809
     74          1           0        1.361609   -0.857518    0.296347
     75          1           0       -1.702471   -1.768995   -2.695925
     76          1           0       -2.728019   -3.128246   -2.168190
     77          1           0       -0.209297   -3.210486   -3.472758
     78          1           0       -1.121710   -4.565037   -2.864940
     79          1           0       -0.190929    3.939298   -2.212120
     80          1           0       -0.369291    5.228511   -1.127440
     81          1           0       -1.245654    5.243501   -2.718431
     82          1           0       -2.457596    7.581933   -2.341113
     83          1           0       -1.862277    6.891366   -0.752836
     84          1           0       -2.950075    8.308006   -0.755819
     85          1           0       -8.390839    4.302239   -0.111277
     86          1           0       -9.102488    2.510176    2.253425
     87          1           0       -6.968061    4.884960    2.479555
     88          1           0       -8.714740    4.840534    2.562201
     89          1           0       -7.887158    5.977160    1.450654
     90          1           0      -10.046680    1.751793   -0.412295
     91          1           0      -10.295998    3.388232   -0.065777
     92          1           0      -11.098329    1.562548    2.247346
     93          1           0      -11.728850    1.017286    0.685500
     94          1           0      -12.265094    2.530176    1.377372
     95          1           0       -9.430255   -2.379342    1.996878
     96          1           0       -8.920374   -4.019368    1.576089
     97          1           0       -9.473530   -2.859341    0.310813
     98          1           0       -3.450468   -3.828460    1.920420
     99          1           0       -0.875960   -7.018562    0.639833
    100          1           0       -2.585356   -7.414311    0.244408
    101          1           0       -2.046596   -7.380807    1.945646
    102          1           0        3.019254   -4.530809   -0.874668
    103          1           0        2.760389   -2.904895   -0.076964
    104          1           0        3.670681   -2.515263   -2.893210
    105          1           0        6.000922   -2.895162    0.323983
    106          1           0        6.725920   -4.179358   -0.821961
    107          1           0        5.303945   -4.417841    0.055689
    108          1           0        5.826628   -2.255046   -3.560407
    109          1           0        7.038195   -3.132260   -2.518047
    110          1           0        6.472256   -0.894421   -0.887731
    111          1           0        6.028058   -0.277402   -2.489761
    112          1           0        8.649827   -1.641381   -2.732764
    113          1           0        8.620947   -0.978430   -1.170855
    114          1           0        7.765115    1.252074   -2.593687
    115          1           0        7.990377    1.368055   -4.778150
    116          1           0        8.118889   -0.433687   -4.777922
    117          1           0        9.509987    0.560442   -4.856603
    118          1           0       10.472705    1.464612   -3.176398
    119          1           0       10.557587    0.059949   -2.040848
    120          1           0        9.647829    1.283461   -0.215811
    121          1           0        9.112846    2.592715   -1.331372
    122          1           0       11.115196    3.346766   -1.581332
    123          1           0       12.165589    1.927059   -1.226823
    124          1           0       10.571567    3.656332    0.692727
    125          1           0       13.420900    3.904640    0.997025
    126          1           0       12.206578    5.136224    0.708440
    127          1           0       12.895085    4.301635   -0.702728
    128          1           0       12.768107    2.309086    2.023442
    129          1           0       12.077771    1.151225    0.907829
    130          1           0        9.926794    1.572004    1.860899
    131          1           0       10.607044    2.536110    3.215423
    132          1           0       12.079907    0.025978    3.134093
    133          1           0       10.385972   -0.338972    2.893643
    134          1           0       11.048468    1.637407    4.992232
    135          1           0       11.587789   -0.610762    6.604810
    136          1           0       12.637460    0.637465    6.105792
    137          1           0       12.625843   -0.773481    5.126920
    138          1           0        9.118025    1.202112    5.983187
    139          1           0        9.333937   -0.548133    6.003093
    140          1           0        8.729033    0.196604    4.611233
 ---------------------------------------------------------------------

 SCF Done:  E(RwB97XD) =  -3007.85377782     A.U. after   19 cycles

 Excitation energies and oscillator strengths:

 Excited State   1:      Singlet-A      1.7646 eV  702.62 nm  f=0.3621  <S**2>=0.000
     245 -> 248        0.19183
     246 -> 247        0.67824
     245 <- 248        0.11037
 This state for optimization and/or second-order correction.
 Total Energy, E(TD-HF/TD-DFT) =  -3007.78892960
 Copying the excited state density for this state as the 1-particle RhoCI density.

 Excited State   2:      Singlet-A      2.1170 eV  585.67 nm  f=0.1016  <S**2>=0.000
     245 -> 247        0.63996
     246 -> 248       -0.27499

 Excited State   3:      Singlet-A      3.2598 eV  380.34 nm  f=0.0028  <S**2>=0.000
     241 -> 247        0.17564
     243 -> 247       -0.12419
     244 -> 247        0.64484
     244 -> 249       -0.10838

 Excited State   4:      Singlet-A      3.4279 eV  361.69 nm  f=0.2930  <S**2>=0.000
     240 -> 247        0.23831
     241 -> 247       -0.28510
     243 -> 247        0.18106
     245 -> 247        0.17104
     246 -> 248        0.52556

 Excited State   5:      Singlet-A      3.5682 eV  347.47 nm  f=0.0112  <S**2>=0.000
     239 -> 247        0.51433
     239 -> 248        0.12507
     239 -> 249        0.38775
     239 -> 250       -0.12050
     240 -> 247       -0.13778

 The electronic state is 1-A.
 Alpha  occ. eigenvalues --  -46.94843 -19.29990 -19.27502 -19.25404 -19.23796
 Alpha  occ. eigenvalues --  -19.23790 -19.23130 -14.46531 -14.46280 -14.44409
 Alpha  occ. eigenvalues --  -14.42514 -10.42829 -10.41722 -10.40843 -10.38553
 Alpha  occ. eigenvalues --  -10.36305 -10.36070 -10.35685 -10.34918 -10.34870
 Alpha  occ. eigenvalues --  -10.34605 -10.34113 -10.33626 -10.33402 -10.33242
 Alpha  occ. eigenvalues --  -10.32254 -10.31983 -10.31940 -10.31912 -10.31738
 Alpha  occ. eigenvalues --  -10.31701 -10.31638 -10.31617 -10.31326 -10.31310
 Alpha  occ. eigenvalues --  -10.30990 -10.30914 -10.30820 -10.30710 -10.30106
 Alpha  occ. eigenvalues --  -10.30086 -10.30020 -10.29954 -10.29934 -10.29924
 Alpha  occ. eigenvalues --  -10.29918 -10.29849 -10.29713 -10.29658 -10.29499
 Alpha  occ. eigenvalues --  -10.29473 -10.29366 -10.29334 -10.29078 -10.28919
 Alpha  occ. eigenvalues --  -10.28839 -10.28810 -10.28788 -10.28759 -10.28519
 Alpha  occ. eigenvalues --  -10.28469 -10.28322 -10.28289 -10.28281 -10.28255
 Alpha  occ. eigenvalues --  -10.27918  -3.20755  -1.94357  -1.93877  -1.93715
 Alpha  occ. eigenvalues --   -1.18704  -1.16521  -1.12762  -1.11486  -1.08794
 Alpha  occ. eigenvalues --   -1.08302  -1.07066  -1.06532  -1.03597  -1.03044
 Alpha  occ. eigenvalues --   -0.93593  -0.93438  -0.92308  -0.91116  -0.90806
 Alpha  occ. eigenvalues --   -0.90572  -0.90335  -0.89596  -0.89166  -0.89148
 Alpha  occ. eigenvalues --   -0.87334  -0.87018  -0.86076  -0.85547  -0.85142
 Alpha  occ. eigenvalues --   -0.84791  -0.84176  -0.83202  -0.82725  -0.81878
 Alpha  occ. eigenvalues --   -0.81471  -0.80622  -0.79368  -0.79000  -0.78100
 Alpha  occ. eigenvalues --   -0.77469  -0.76888  -0.76851  -0.76508  -0.76383
 Alpha  occ. eigenvalues --   -0.75143  -0.74400  -0.73578  -0.71874  -0.71628
 Alpha  occ. eigenvalues --   -0.70282  -0.69873  -0.68961  -0.68824  -0.67916
 Alpha  occ. eigenvalues --   -0.67707  -0.67525  -0.66478  -0.66230  -0.65595
 Alpha  occ. eigenvalues --   -0.65207  -0.65090  -0.64280  -0.62459  -0.62191
 Alpha  occ. eigenvalues --   -0.61502  -0.61088  -0.60827  -0.60033  -0.59510
 Alpha  occ. eigenvalues --   -0.58673  -0.58572  -0.58208  -0.57735  -0.57567
 Alpha  occ. eigenvalues --   -0.57194  -0.56787  -0.56261  -0.55847  -0.55668
 Alpha  occ. eigenvalues --   -0.55293  -0.55085  -0.54922  -0.54851  -0.54571
 Alpha  occ. eigenvalues --   -0.54334  -0.53951  -0.53758  -0.53662  -0.53465
 Alpha  occ. eigenvalues --   -0.53283  -0.53172  -0.52946  -0.52737  -0.52619
 Alpha  occ. eigenvalues --   -0.52436  -0.52184  -0.52033  -0.51907  -0.51692
 Alpha  occ. eigenvalues --   -0.51384  -0.51013  -0.50810  -0.50480  -0.50377
 Alpha  occ. eigenvalues --   -0.50277  -0.50141  -0.49979  -0.49862  -0.49620
 Alpha  occ. eigenvalues --   -0.49379  -0.49128  -0.48962  -0.48719  -0.48471
 Alpha  occ. eigenvalues --   -0.48406  -0.48343  -0.48168  -0.47938  -0.47617
 Alpha  occ. eigenvalues --   -0.47432  -0.47137  -0.46800  -0.46649  -0.46569
 Alpha  occ. eigenvalues --   -0.46476  -0.46210  -0.45985  -0.45902  -0.45718
 Alpha  occ. eigenvalues --   -0.45525  -0.45190  -0.44999  -0.44853  -0.44594
 Alpha  occ. eigenvalues --   -0.44451  -0.44406  -0.44251  -0.44202  -0.43955
 Alpha  occ. eigenvalues --   -0.43687  -0.43590  -0.43401  -0.43251  -0.42975
 Alpha  occ. eigenvalues --   -0.42918  -0.42868  -0.42431  -0.42252  -0.42118
 Alpha  occ. eigenvalues --   -0.41981  -0.41812  -0.41776  -0.41050  -0.40892
 Alpha  occ. eigenvalues --   -0.40372  -0.40139  -0.39893  -0.39613  -0.39567
 Alpha  occ. eigenvalues --   -0.39183  -0.38903  -0.38573  -0.38092  -0.37871
 Alpha  occ. eigenvalues --   -0.37706  -0.36517  -0.36354  -0.35925  -0.35793
 Alpha  occ. eigenvalues --   -0.35248  -0.35199  -0.34803  -0.33900  -0.33346
 Alpha  occ. eigenvalues --   -0.32397  -0.32158  -0.31886  -0.30309  -0.25612
 Alpha  occ. eigenvalues --   -0.23117
 Alpha virt. eigenvalues --   -0.06774  -0.00060   0.01925   0.04989   0.06044
 Alpha virt. eigenvalues --    0.07353   0.07474   0.08380   0.08801   0.09336
 Alpha virt. eigenvalues --    0.09999   0.11168   0.11544   0.12337   0.12784

 Mulliken charges:
               1
     1  Mg   0.949322
     2  C    0.044921
     3  C   -0.095052
     4  C   -0.065592
     5  C   -0.086009
     6  N   -0.314406
     7  C    0.015061
     8  C   -0.170434
     9  C   -0.100945
    10  C    0.088953
    11  C    0.028644
    12  C    0.039742
    13  C    0.044883
    14  C    0.189995
    15  O   -0.272782
    16  O   -0.357366
    17  N   -0.554575
    18  C    0.175742
    19  C   -0.151162
    20  C   -0.083019
    21  C    0.207904
    22  C    0.035272
    23  C    0.082010
    24  O   -0.237384
    25  C   -0.013319
    26  N   -0.304571
    27  C   -0.029838
    28  C   -0.047609
    29  C   -0.103716
    30  C    0.058407
    31  C    0.030196
    32  C   -0.003891
    33  C   -0.057124
    34  N   -0.438269
    35  C    0.134249
    36  C   -0.193386
    37  C   -0.034141
    38  C    0.076374
    39  C    0.080625
    40  C    0.135301
    41  O   -0.200945
    42  C   -0.092830
    43  C    0.221773
    44  O   -0.212118
    45  O   -0.404341
    46  C    0.135990
    47  C    0.250856
    48  C   -0.145754
    49  C   -0.210555
    50  C    0.020209
    51  C    0.050309
    52  C   -0.028111
    53  C   -0.015151
    54  C   -0.179336
    55  C   -0.002615
    56  C    0.027699
    57  C   -0.025199
    58  C   -0.022248
    59  C   -0.190273
    60  C    0.023626
    61  C    0.004597
    62  C   -0.023600
    63  C    0.050905
    64  C   -0.231465
    65  C    0.005039
    66  C   -0.042594
    67  H    0.001215
    68  H    0.012781
    69  H   -0.021941
    70  H    0.050800
    71  H    0.038633
    72  H    0.043256
    73  H    0.032668
    74  H    0.050477
    75  H    0.022811
    76  H    0.054581
    77  H    0.039743
    78  H    0.068120
    79  H    0.042575
    80  H    0.064827
    81  H    0.060508
    82  H    0.079795
    83  H    0.041549
    84  H    0.065075
    85  H    0.042110
    86  H    0.040222
    87  H    0.046641
    88  H    0.033074
    89  H    0.056154
    90  H    0.030793
    91  H    0.022269
    92  H    0.036050
    93  H    0.038570
    94  H    0.045610
    95  H    0.035792
    96  H    0.058909
    97  H    0.050791
    98  H    0.081550
    99  H    0.066606
   100  H    0.062480
   101  H    0.047570
   102  H    0.067758
   103  H    0.058574
   104  H    0.017569
   105  H    0.046128
   106  H    0.042644
   107  H    0.027415
   108  H    0.028155
   109  H    0.029279
   110  H    0.036694
   111  H    0.030779
   112  H    0.018856
   113  H    0.016706
   114  H    0.019307
   115  H    0.030645
   116  H    0.022857
   117  H    0.022367
   118  H    0.017782
   119  H    0.024792
   120  H    0.013212
   121  H    0.022175
   122  H    0.013568
   123  H    0.030097
   124  H    0.011959
   125  H    0.025387
   126  H    0.026359
   127  H    0.021081
   128  H    0.016034
   129  H    0.009647
   130  H    0.007280
   131  H    0.026656
   132  H    0.012179
   133  H    0.020025
   134  H    0.025798
   135  H    0.034697
   136  H    0.020416
   137  H    0.021888
   138  H    0.033534
   139  H    0.028272
   140  H    0.011888
 Sum of Mulliken charges =  -0.00000

 Dipole moment (field-independent basis, Debye):
    X=              4.2628    Y=              6.9311    Z=             -1.4656  Tot=              8.2680
 Quadrupole moment (field-independent basis, Debye-Ang):
   XX=           -376.7930   YY=           -427.9554   ZZ=           -397.7386
   XY=            -30.2453   XZ=             -4.5358   YZ=             -1.7666

 Normal termination of Gaussian 16 at Fri Apr 29 21:58:42 2022.
