 Gaussian 16, Revision A.03,
 Gaussian 16:  ES64L-G16RevA.03 25-Dec-2016

 --------------------
 #p ZINDO=(nstates=5)
 --------------------

 -----------------------------
 step_501_chromophore_15 ZINDO
 -----------------------------
 Symbolic Z-matrix:
 Charge =  0 Multiplicity = 1

                         Standard orientation:
 ---------------------------------------------------------------------
 Center     Atomic      Atomic             Coordinates (Angstroms)
 Number     Number       Type             X           Y           Z
 ---------------------------------------------------------------------
      1         12           0       -4.857270    0.904871   -0.191417
      2          6           0       -3.976224   -2.463383    0.399215
      3          6           0       -1.591531    1.626917   -0.892671
      4          6           0       -5.652575    4.101582   -0.054981
      5          6           0       -8.099689    0.135792    1.025584
      6          7           0       -3.025059   -0.342786   -0.343989
      7          6           0       -2.935881   -1.630905   -0.077595
      8          6           0       -1.616461   -2.140419   -0.628890
      9          6           0       -0.703681   -0.854114   -0.623720
     10          6           0       -1.828071    0.247609   -0.612206
     11          6           0        0.309984   -0.873126    0.582875
     12          6           0       -1.743493   -2.668846   -2.080818
     13          6           0       -0.594188   -3.661916   -2.557068
     14          6           0        0.578888   -4.038703   -1.648177
     15          8           0        0.601846   -4.945509   -0.815654
     16          8           0        1.613333   -3.179593   -1.755483
     17          7           0       -3.841604    2.579911   -0.633397
     18          6           0       -2.475231    2.716962   -0.988889
     19          6           0       -2.219199    4.142181   -1.302433
     20          6           0       -3.409642    4.883192   -0.969908
     21          6           0       -4.406771    3.886483   -0.522807
     22          6           0       -0.935687    4.650848   -1.857383
     23          6           0       -3.773986    6.417115   -1.042413
     24          8           0       -4.898182    6.876118   -0.798436
     25          6           0       -2.665848    7.399969   -1.286886
     26          7           0       -6.615119    1.997999    0.518306
     27          6           0       -6.711331    3.297096    0.417090
     28          6           0       -8.036199    3.876410    0.827250
     29          6           0       -8.855732    2.589898    1.195433
     30          6           0       -7.836190    1.471796    0.808734
     31          6           0       -7.875250    4.975697    1.881371
     32          6           0      -10.165314    2.428436    0.433811
     33          6           0      -11.393564    1.887270    1.249747
     34          7           0       -5.952532   -0.828337    0.519252
     35          6           0       -7.289222   -0.977751    0.937927
     36          6           0       -7.559088   -2.363094    1.115558
     37          6           0       -6.273255   -2.991640    1.096549
     38          6           0       -5.362948   -2.049257    0.689942
     39          6           0       -8.921817   -2.981193    1.243487
     40          6           0       -5.472681   -4.238691    1.145436
     41          8           0       -5.812980   -5.374579    1.403145
     42          6           0       -3.933799   -3.839866    0.944029
     43          6           0       -3.183806   -4.947338    0.279114
     44          8           0       -3.392013   -5.399522   -0.808014
     45          8           0       -2.217967   -5.500487    1.140526
     46          6           0       -1.914924   -6.936026    0.959305
     47          6           0        2.839903   -3.463658   -1.008971
     48          6           0        3.948436   -3.052890   -1.986288
     49          6           0        5.217569   -2.970844   -1.662365
     50          6           0        5.853441   -3.633120   -0.464843
     51          6           0        6.238263   -2.394142   -2.561168
     52          6           0        6.613690   -1.029167   -1.959461
     53          6           0        8.176729   -0.846468   -2.157385
     54          6           0        8.550628    0.534951   -2.833924
     55          6           0        8.526430    0.501007   -4.391362
     56          6           0        9.988328    0.932933   -2.357886
     57          6           0        9.852329    1.814154   -1.145201
     58          6           0       11.266115    2.474572   -0.946148
     59          6           0       11.476058    3.123935    0.396810
     60          6           0       12.598033    4.187892    0.339806
     61          6           0       11.867016    2.067969    1.458724
     62          6           0       10.798666    1.743052    2.491175
     63          6           0       11.073035    0.422103    3.262803
     64          6           0       10.952850    0.575881    4.763629
     65          6           0       11.969117   -0.125158    5.706880
     66          6           0        9.465331    0.350127    5.399488
     67          1           0       -0.554761    1.968291   -0.936060
     68          1           0       -6.059779    5.112556   -0.112936
     69          1           0       -9.128317   -0.077821    1.323737
     70          1           0       -1.400773   -2.994764    0.012642
     71          1           0       -0.125114   -0.769138   -1.544194
     72          1           0        0.163530   -1.769506    1.184569
     73          1           0       -0.041955   -0.061583    1.219809
     74          1           0        1.361609   -0.857518    0.296347
     75          1           0       -1.702471   -1.768995   -2.695925
     76          1           0       -2.728019   -3.128246   -2.168190
     77          1           0       -0.209297   -3.210486   -3.472758
     78          1           0       -1.121710   -4.565037   -2.864940
     79          1           0       -0.190929    3.939298   -2.212120
     80          1           0       -0.369291    5.228511   -1.127440
     81          1           0       -1.245654    5.243501   -2.718431
     82          1           0       -2.457596    7.581933   -2.341113
     83          1           0       -1.862277    6.891366   -0.752836
     84          1           0       -2.950075    8.308006   -0.755819
     85          1           0       -8.390839    4.302239   -0.111277
     86          1           0       -9.102488    2.510176    2.253425
     87          1           0       -6.968061    4.884960    2.479555
     88          1           0       -8.714740    4.840534    2.562201
     89          1           0       -7.887158    5.977160    1.450654
     90          1           0      -10.046680    1.751793   -0.412295
     91          1           0      -10.295998    3.388232   -0.065777
     92          1           0      -11.098329    1.562548    2.247346
     93          1           0      -11.728850    1.017286    0.685500
     94          1           0      -12.265094    2.530176    1.377372
     95          1           0       -9.430255   -2.379342    1.996878
     96          1           0       -8.920374   -4.019368    1.576089
     97          1           0       -9.473530   -2.859341    0.310813
     98          1           0       -3.450468   -3.828460    1.920420
     99          1           0       -0.875960   -7.018562    0.639833
    100          1           0       -2.585356   -7.414311    0.244408
    101          1           0       -2.046596   -7.380807    1.945646
    102          1           0        3.019254   -4.530809   -0.874668
    103          1           0        2.760389   -2.904895   -0.076964
    104          1           0        3.670681   -2.515263   -2.893210
    105          1           0        6.000922   -2.895162    0.323983
    106          1           0        6.725920   -4.179358   -0.821961
    107          1           0        5.303945   -4.417841    0.055689
    108          1           0        5.826628   -2.255046   -3.560407
    109          1           0        7.038195   -3.132260   -2.518047
    110          1           0        6.472256   -0.894421   -0.887731
    111          1           0        6.028058   -0.277402   -2.489761
    112          1           0        8.649827   -1.641381   -2.732764
    113          1           0        8.620947   -0.978430   -1.170855
    114          1           0        7.765115    1.252074   -2.593687
    115          1           0        7.990377    1.368055   -4.778150
    116          1           0        8.118889   -0.433687   -4.777922
    117          1           0        9.509987    0.560442   -4.856603
    118          1           0       10.472705    1.464612   -3.176398
    119          1           0       10.557587    0.059949   -2.040848
    120          1           0        9.647829    1.283461   -0.215811
    121          1           0        9.112846    2.592715   -1.331372
    122          1           0       11.115196    3.346766   -1.581332
    123          1           0       12.165589    1.927059   -1.226823
    124          1           0       10.571567    3.656332    0.692727
    125          1           0       13.420900    3.904640    0.997025
    126          1           0       12.206578    5.136224    0.708440
    127          1           0       12.895085    4.301635   -0.702728
    128          1           0       12.768107    2.309086    2.023442
    129          1           0       12.077771    1.151225    0.907829
    130          1           0        9.926794    1.572004    1.860899
    131          1           0       10.607044    2.536110    3.215423
    132          1           0       12.079907    0.025978    3.134093
    133          1           0       10.385972   -0.338972    2.893643
    134          1           0       11.048468    1.637407    4.992232
    135          1           0       11.587789   -0.610762    6.604810
    136          1           0       12.637460    0.637465    6.105792
    137          1           0       12.625843   -0.773481    5.126920
    138          1           0        9.118025    1.202112    5.983187
    139          1           0        9.333937   -0.548133    6.003093
    140          1           0        8.729033    0.196604    4.611233
 ---------------------------------------------------------------------

 SCF Done:  E(RZINDO/S) =  -474.283658961     A.U. after   19 cycles

 Excitation energies and oscillator strengths:

 Excited State   1:      Singlet-A      1.3878 eV  893.36 nm  f=0.5243  <S**2>=0.000
     175 ->178        -0.16954
     176 ->177         0.66799
 This state for optimization and/or second-order correction.
 Total Energy, E(CIS/TDA) =  -474.232656849
 Copying the excited state density for this state as the 1-particle RhoCI density.

 Excited State   2:      Singlet-A      1.9294 eV  642.59 nm  f=0.0426  <S**2>=0.000
     175 ->177         0.54090
     176 ->178         0.41782

 Excited State   3:      Singlet-A      2.9182 eV  424.86 nm  f=0.0242  <S**2>=0.000
     167 ->177        -0.26267
     167 ->179         0.38642
     167 ->180        -0.15743
     167 ->185         0.16605
     168 ->177        -0.22056
     168 ->179         0.29509
     168 ->180        -0.11872
     168 ->185         0.12662

 Excited State   4:      Singlet-A      2.9834 eV  415.58 nm  f=1.1428  <S**2>=0.000
     170 ->177         0.11693
     175 ->177        -0.39309
     176 ->178         0.52766
     176 ->179         0.11292

 Excited State   5:      Singlet-A      3.1458 eV  394.13 nm  f=0.0461  <S**2>=0.000
     171 ->177        -0.17366
     171 ->179        -0.11986
     171 ->180        -0.29135
     171 ->181        -0.10445
     171 ->185        -0.15940
     171 ->188        -0.13305
     173 ->177        -0.12758
     176 ->179         0.41847
     176 ->180         0.17327

 The electronic state is 1-A.
 Alpha  occ. eigenvalues --   -1.82901  -1.82352  -1.78417  -1.73484  -1.70455
 Alpha  occ. eigenvalues --   -1.69664  -1.67058  -1.62295  -1.58978  -1.56535
 Alpha  occ. eigenvalues --   -1.56472  -1.52354  -1.47912  -1.46658  -1.45705
 Alpha  occ. eigenvalues --   -1.44182  -1.42140  -1.41313  -1.39140  -1.38266
 Alpha  occ. eigenvalues --   -1.35183  -1.33537  -1.32477  -1.31866  -1.29051
 Alpha  occ. eigenvalues --   -1.28182  -1.25499  -1.23081  -1.20360  -1.18376
 Alpha  occ. eigenvalues --   -1.16288  -1.15672  -1.15043  -1.14152  -1.12967
 Alpha  occ. eigenvalues --   -1.12769  -1.11557  -1.11032  -1.04809  -1.03379
 Alpha  occ. eigenvalues --   -1.02393  -1.01303  -0.98291  -0.97111  -0.96656
 Alpha  occ. eigenvalues --   -0.96149  -0.95265  -0.93917  -0.92744  -0.91804
 Alpha  occ. eigenvalues --   -0.91192  -0.90638  -0.89849  -0.88752  -0.87197
 Alpha  occ. eigenvalues --   -0.85391  -0.84384  -0.83093  -0.81652  -0.81108
 Alpha  occ. eigenvalues --   -0.79683  -0.79537  -0.78208  -0.76348  -0.75593
 Alpha  occ. eigenvalues --   -0.75083  -0.74196  -0.73447  -0.73406  -0.73119
 Alpha  occ. eigenvalues --   -0.72238  -0.71235  -0.70923  -0.70710  -0.70475
 Alpha  occ. eigenvalues --   -0.69486  -0.68825  -0.68503  -0.68373  -0.68147
 Alpha  occ. eigenvalues --   -0.67746  -0.67494  -0.66894  -0.66471  -0.65801
 Alpha  occ. eigenvalues --   -0.65120  -0.64668  -0.63924  -0.63525  -0.63427
 Alpha  occ. eigenvalues --   -0.63107  -0.62887  -0.62433  -0.62218  -0.62112
 Alpha  occ. eigenvalues --   -0.61133  -0.60883  -0.60588  -0.60245  -0.60093
 Alpha  occ. eigenvalues --   -0.59952  -0.59572  -0.58846  -0.58597  -0.58024
 Alpha  occ. eigenvalues --   -0.57943  -0.57721  -0.57393  -0.56716  -0.56589
 Alpha  occ. eigenvalues --   -0.56349  -0.55835  -0.55579  -0.54933  -0.54581
 Alpha  occ. eigenvalues --   -0.54078  -0.53689  -0.53025  -0.52997  -0.52480
 Alpha  occ. eigenvalues --   -0.52425  -0.52256  -0.52056  -0.51800  -0.51262
 Alpha  occ. eigenvalues --   -0.51155  -0.51007  -0.50545  -0.50070  -0.49849
 Alpha  occ. eigenvalues --   -0.49572  -0.49520  -0.49479  -0.48954  -0.48897
 Alpha  occ. eigenvalues --   -0.48554  -0.48456  -0.48366  -0.48123  -0.47722
 Alpha  occ. eigenvalues --   -0.47457  -0.47257  -0.46810  -0.46718  -0.46633
 Alpha  occ. eigenvalues --   -0.46488  -0.46467  -0.45916  -0.45630  -0.45545
 Alpha  occ. eigenvalues --   -0.44905  -0.44722  -0.44524  -0.44064  -0.43925
 Alpha  occ. eigenvalues --   -0.43425  -0.43240  -0.42794  -0.42430  -0.41348
 Alpha  occ. eigenvalues --   -0.40980  -0.40392  -0.40166  -0.39254  -0.38157
 Alpha  occ. eigenvalues --   -0.37042  -0.36754  -0.36177  -0.34810  -0.34123
 Alpha  occ. eigenvalues --   -0.33603  -0.32583  -0.31888  -0.30579  -0.26337
 Alpha  occ. eigenvalues --   -0.21861
 Alpha virt. eigenvalues --   -0.07971  -0.02080  -0.00748   0.02057   0.02363
 Alpha virt. eigenvalues --    0.02608   0.03071   0.04011   0.04484   0.05158
 Alpha virt. eigenvalues --    0.05206   0.06473   0.06870   0.07945   0.08258

 Mulliken charges:
               1
     1  Mg   0.420192
     2  C   -0.048990
     3  C   -0.092903
     4  C   -0.062571
     5  C   -0.035323
     6  N   -0.263575
     7  C    0.105252
     8  C    0.000939
     9  C    0.003798
    10  C    0.165957
    11  C   -0.055471
    12  C   -0.016332
    13  C    0.002510
    14  C    0.472898
    15  O   -0.523722
    16  O   -0.275918
    17  N   -0.365966
    18  C    0.140578
    19  C    0.035991
    20  C   -0.036984
    21  C    0.141437
    22  C   -0.037392
    23  C    0.329970
    24  O   -0.512269
    25  C   -0.031470
    26  N   -0.246808
    27  C    0.186587
    28  C    0.008962
    29  C    0.001238
    30  C    0.061372
    31  C   -0.044508
    32  C   -0.031811
    33  C   -0.059483
    34  N   -0.354211
    35  C    0.060953
    36  C    0.018252
    37  C   -0.068451
    38  C    0.098412
    39  C   -0.037156
    40  C    0.332091
    41  O   -0.517121
    42  C    0.061871
    43  C    0.487768
    44  O   -0.506473
    45  O   -0.294725
    46  C    0.076749
    47  C    0.104165
    48  C   -0.110331
    49  C    0.006542
    50  C   -0.049287
    51  C   -0.019420
    52  C   -0.030896
    53  C   -0.044779
    54  C   -0.021865
    55  C   -0.062239
    56  C   -0.030359
    57  C   -0.037583
    58  C   -0.043947
    59  C   -0.014507
    60  C   -0.064891
    61  C   -0.034103
    62  C   -0.037785
    63  C   -0.024671
    64  C   -0.014945
    65  C   -0.058012
    66  C   -0.069659
    67  H    0.020239
    68  H    0.034905
    69  H    0.015595
    70  H    0.040405
    71  H    0.031365
    72  H    0.025069
    73  H    0.022217
    74  H    0.031666
    75  H    0.019381
    76  H    0.040651
    77  H    0.025993
    78  H    0.046162
    79  H    0.026656
    80  H    0.034473
    81  H    0.030072
    82  H    0.052623
    83  H    0.030282
    84  H    0.044410
    85  H    0.038832
    86  H    0.035579
    87  H    0.025839
    88  H    0.016580
    89  H    0.029442
    90  H    0.020137
    91  H    0.016471
    92  H    0.021762
    93  H    0.017550
    94  H    0.024044
    95  H    0.019463
    96  H    0.034000
    97  H    0.031896
    98  H    0.053571
    99  H    0.044143
   100  H    0.053419
   101  H    0.032169
   102  H    0.060635
   103  H    0.052497
   104  H    0.028336
   105  H    0.031674
   106  H    0.026981
   107  H    0.016199
   108  H    0.025589
   109  H    0.030508
   110  H    0.027913
   111  H    0.023928
   112  H    0.021181
   113  H    0.014010
   114  H    0.025318
   115  H    0.016576
   116  H    0.016725
   117  H    0.015589
   118  H    0.023726
   119  H    0.025740
   120  H    0.024669
   121  H    0.024103
   122  H    0.004486
   123  H    0.035028
   124  H    0.018972
   125  H    0.022979
   126  H    0.014048
   127  H    0.020276
   128  H    0.017506
   129  H    0.014012
   130  H    0.014441
   131  H    0.028764
   132  H    0.019398
   133  H    0.018900
   134  H    0.014097
   135  H    0.027653
   136  H    0.009202
   137  H    0.017803
   138  H    0.020227
   139  H    0.019498
   140  H    0.008184
 Sum of Mulliken charges =  -0.00000

 Dipole moment (field-independent basis, Debye):
    X=              7.9320    Y=             10.8099    Z=             -1.9524  Tot=             13.5493
 N-N= 4.338908922972D+03 E-N= 0.000000000000D+00  KE=-9.352610560305D+03
 Leave Link  601 at Fri Apr 29 22:10:54 2022, MaxMem=  6710886400 cpu:               0.8 elap:               0.0
 (Enter /sw/apps/gaussian-16.0/g16/l9999.exe)
 1\1\GINC-BP1-COMPUTE103\SP\RZINDO CIS\STO-3G\C55H74Mg1N4O6\OF15641\29-
 Apr-2022\0\\#p ZINDO=(nstates=5)\\step_501_chromophore_15 ZINDO\\0,1\M
 g,0,47.339,34.918,28.078\C,0,45.688,33.198,30.683\C,0,48.101,37.449,30
 .244\C,0,48.243,36.724,25.472\C,0,46.072,32.477,25.837\N,0,47.02,35.19
 8,30.259\C,0,46.36,34.385,31.06\C,0,46.671,34.774,32.494\C,0,47.033,36
 .305,32.381\C,0,47.412,36.358,30.854\C,0,45.842,37.215,32.868\C,0,47.8
 88,34.004,33.068\C,0,47.983,33.948,34.656\C,0,46.956,34.643,35.554\O,0

 Normal termination of Gaussian 16 at Fri Apr 29 22:10:54 2022.
