 Gaussian 16, Revision A.03,
 Gaussian 16:  ES64L-G16RevA.03 25-Dec-2016

 ------------------------------
 #p blyp/Def2SVP td=(nstates=5)
 ------------------------------

 --------------------------------------------------
 step_1401_chromophore_3 TDDFT with blyp functional
 --------------------------------------------------
 Symbolic Z-matrix:
 Charge =  0 Multiplicity = 1

                         Standard orientation:
 ---------------------------------------------------------------------
 Center     Atomic      Atomic             Coordinates (Angstroms)
 Number     Number       Type             X           Y           Z
 ---------------------------------------------------------------------
      1         12           0       -5.282971    0.929762    0.096915
      2          6           0       -4.108984   -2.506908   -0.003591
      3          6           0       -1.971648    1.850797   -0.116899
      4          6           0       -6.275340    4.107916    0.277298
      5          6           0       -8.521604   -0.227455    0.708144
      6          7           0       -3.205819   -0.249453    0.114819
      7          6           0       -2.972907   -1.660650   -0.040505
      8          6           0       -1.558989   -1.919402   -0.537459
      9          6           0       -0.920601   -0.531539   -0.467574
     10          6           0       -2.083678    0.434658   -0.113928
     11          6           0        0.319075   -0.382737    0.501367
     12          6           0       -1.581264   -2.626805   -1.911772
     13          6           0       -0.649357   -3.792319   -2.005259
     14          6           0        0.648756   -3.799377   -1.203499
     15          8           0        0.734422   -4.524550   -0.220518
     16          8           0        1.608123   -2.923524   -1.727441
     17          7           0       -4.315737    2.715208    0.050173
     18          6           0       -2.941015    2.896023   -0.010091
     19          6           0       -2.684341    4.317820   -0.167243
     20          6           0       -3.919163    5.014911   -0.157777
     21          6           0       -4.930027    3.938967    0.131455
     22          6           0       -1.320376    4.833456   -0.297545
     23          6           0       -4.323148    6.423505   -0.350970
     24          8           0       -5.421369    6.851931   -0.204116
     25          6           0       -3.115828    7.362453   -0.595571
     26          7           0       -7.096449    1.828052    0.721778
     27          6           0       -7.310437    3.179417    0.507379
     28          6           0       -8.790727    3.560699    0.733159
     29          6           0       -9.468730    2.149511    0.771166
     30          6           0       -8.299850    1.151267    0.752360
     31          6           0       -8.864516    4.393067    2.032417
     32          6           0      -10.460225    1.789065   -0.410450
     33          6           0      -11.680933    1.018430    0.011649
     34          7           0       -6.182060   -0.966792    0.334459
     35          6           0       -7.466555   -1.271021    0.554753
     36          6           0       -7.681085   -2.761898    0.396563
     37          6           0       -6.422276   -3.223781    0.264154
     38          6           0       -5.509921   -2.119970    0.242612
     39          6           0       -8.971701   -3.488565    0.486189
     40          6           0       -5.582837   -4.417648    0.153970
     41          8           0       -5.904770   -5.584821    0.147446
     42          6           0       -4.169565   -3.952891   -0.117237
     43          6           0       -3.267100   -4.732363    0.807523
     44          8           0       -3.180599   -4.463531    1.986888
     45          8           0       -2.696288   -5.746532    0.147579
     46          6           0       -1.989223   -6.726078    1.009928
     47          6           0        2.862646   -2.976199   -1.042408
     48          6           0        3.750833   -1.788047   -1.385108
     49          6           0        4.900437   -1.771317   -2.146174
     50          6           0        5.689692   -2.910534   -2.824414
     51          6           0        5.615171   -0.433968   -2.367496
     52          6           0        6.653762   -0.101842   -1.324101
     53          6           0        7.978024    0.274655   -2.064250
     54          6           0        9.273974    0.503740   -1.180877
     55          6           0        9.839978   -0.767572   -0.481670
     56          6           0       10.330386    1.293534   -1.973820
     57          6           0       10.316076    2.806463   -1.673082
     58          6           0       11.702526    3.391522   -1.303575
     59          6           0       11.975748    3.221200    0.221386
     60          6           0       12.785183    4.438366    0.738662
     61          6           0       12.816702    1.817321    0.504992
     62          6           0       12.045795    1.086525    1.721245
     63          6           0       12.624092   -0.273634    1.940040
     64          6           0       12.361170   -0.831992    3.368277
     65          6           0       13.594082   -1.370317    4.160984
     66          6           0       11.293797   -2.001153    3.274893
     67          1           0       -0.914428    2.094126   -0.233858
     68          1           0       -6.774476    5.077641    0.229427
     69          1           0       -9.549997   -0.592138    0.739178
     70          1           0       -1.222921   -2.583208    0.258966
     71          1           0       -0.696646   -0.162984   -1.468279
     72          1           0        0.107132    0.300469    1.323958
     73          1           0        1.106994    0.151804   -0.027933
     74          1           0        0.696320   -1.349809    0.834118
     75          1           0       -1.140883   -1.948622   -2.643652
     76          1           0       -2.554816   -2.862042   -2.341184
     77          1           0       -0.492234   -3.883054   -3.080710
     78          1           0       -1.117554   -4.727501   -1.699154
     79          1           0       -1.126313    5.219689   -1.298202
     80          1           0       -0.508494    4.157713   -0.028574
     81          1           0       -1.126746    5.595771    0.456507
     82          1           0       -2.534775    7.483560    0.318493
     83          1           0       -3.580723    8.276795   -0.966779
     84          1           0       -2.544730    6.884389   -1.391254
     85          1           0       -9.065297    4.255460   -0.061900
     86          1           0      -10.058714    2.072171    1.685164
     87          1           0       -9.531124    5.253645    1.973374
     88          1           0       -7.892794    4.817511    2.285853
     89          1           0       -9.176371    3.651339    2.767897
     90          1           0       -9.864406    1.249630   -1.146472
     91          1           0      -10.729392    2.670352   -0.992371
     92          1           0      -11.720447    0.066439   -0.517155
     93          1           0      -12.617113    1.561863   -0.122095
     94          1           0      -11.666912    0.820264    1.083257
     95          1           0       -9.611836   -2.974631    1.203699
     96          1           0       -8.904165   -4.502452    0.878683
     97          1           0       -9.395485   -3.476887   -0.517960
     98          1           0       -3.897011   -4.304147   -1.113226
     99          1           0       -1.524798   -7.496729    0.394421
    100          1           0       -2.555152   -7.109900    1.859141
    101          1           0       -1.109670   -6.199962    1.380566
    102          1           0        3.450052   -3.869561   -1.253279
    103          1           0        2.789063   -3.003946    0.045536
    104          1           0        3.437232   -0.885270   -0.859823
    105          1           0        5.638882   -2.690642   -3.890226
    106          1           0        5.203622   -3.833763   -2.508682
    107          1           0        6.724930   -2.937877   -2.485565
    108          1           0        4.915814    0.400091   -2.429588
    109          1           0        6.072893   -0.516722   -3.353713
    110          1           0        6.895501   -0.922163   -0.650148
    111          1           0        6.392267    0.720310   -0.657252
    112          1           0        7.748681    1.135610   -2.692103
    113          1           0        8.231258   -0.488930   -2.799829
    114          1           0        8.826848    1.191755   -0.462760
    115          1           0       10.920690   -0.879525   -0.562225
    116          1           0        9.336753   -1.672501   -0.821160
    117          1           0        9.763327   -0.684306    0.602870
    118          1           0       10.077469    1.267829   -3.034192
    119          1           0       11.311165    0.823178   -1.896305
    120          1           0        9.572933    2.943799   -0.886668
    121          1           0        9.870889    3.469909   -2.414036
    122          1           0       11.566130    4.431822   -1.597755
    123          1           0       12.417623    2.905539   -1.967006
    124          1           0       11.087941    3.258025    0.852297
    125          1           0       12.284197    5.387128    0.549897
    126          1           0       13.709391    4.412492    0.160067
    127          1           0       13.108703    4.357975    1.776496
    128          1           0       13.836872    2.140243    0.712347
    129          1           0       12.743657    1.278994   -0.439562
    130          1           0       10.995486    0.982711    1.445893
    131          1           0       12.207700    1.622506    2.656989
    132          1           0       13.677102   -0.150706    1.688147
    133          1           0       12.102360   -0.987814    1.303622
    134          1           0       11.902294   -0.115721    4.050484
    135          1           0       14.523775   -1.356398    3.592608
    136          1           0       13.539968   -2.400007    4.513457
    137          1           0       13.830348   -0.825632    5.074399
    138          1           0       10.843718   -2.076629    2.285263
    139          1           0       10.579542   -1.584411    3.984096
    140          1           0       11.655102   -2.975828    3.605876
 ---------------------------------------------------------------------

 SCF Done:  E(RB-LYP) =  -3007.37022894     A.U. after   20 cycles

 Excitation energies and oscillator strengths:

 Excited State   1:      Singlet-A      1.7628 eV  703.32 nm  f=0.2944  <S**2>=0.000
     245 -> 248        0.18378
     246 -> 247        0.69122
     246 <- 247       -0.15244
 This state for optimization and/or second-order correction.
 Total Energy, E(TD-HF/TD-DFT) =  -3007.30544608
 Copying the excited state density for this state as the 1-particle RhoCI density.

 Excited State   2:      Singlet-A      1.9604 eV  632.46 nm  f=0.0487  <S**2>=0.000
     244 -> 247        0.38283
     245 -> 247        0.54901
     246 -> 248       -0.19009

 Excited State   3:      Singlet-A      2.0525 eV  604.05 nm  f=0.0189  <S**2>=0.000
     243 -> 247       -0.14564
     244 -> 247        0.58628
     245 -> 247       -0.31877
     246 -> 248        0.16363

 Excited State   4:      Singlet-A      2.1150 eV  586.21 nm  f=0.0050  <S**2>=0.000
     243 -> 247        0.68593
     245 -> 247       -0.12131

 Excited State   5:      Singlet-A      2.6322 eV  471.03 nm  f=0.0100  <S**2>=0.000
     239 -> 247       -0.16038
     240 -> 247        0.12995
     241 -> 247        0.32111
     242 -> 247        0.53914
     246 -> 248       -0.20676

 The electronic state is 1-A.
 Alpha  occ. eigenvalues --  -46.27467 -18.83579 -18.82388 -18.78438 -18.75831
 Alpha  occ. eigenvalues --  -18.75700 -18.75137 -14.02652 -14.02625 -14.01088
 Alpha  occ. eigenvalues --  -14.01058 -10.05184 -10.02957  -9.99394  -9.98885
 Alpha  occ. eigenvalues --   -9.98015  -9.97043  -9.96302  -9.96165  -9.96112
 Alpha  occ. eigenvalues --   -9.96081  -9.96059  -9.95652  -9.95523  -9.94398
 Alpha  occ. eigenvalues --   -9.94365  -9.94265  -9.94126  -9.94003  -9.93693
 Alpha  occ. eigenvalues --   -9.93660  -9.93639  -9.93548  -9.93476  -9.93064
 Alpha  occ. eigenvalues --   -9.92991  -9.92826  -9.92788  -9.92747  -9.92718
 Alpha  occ. eigenvalues --   -9.92690  -9.92487  -9.92446  -9.92304  -9.92294
 Alpha  occ. eigenvalues --   -9.92280  -9.92241  -9.92228  -9.92116  -9.92087
 Alpha  occ. eigenvalues --   -9.91937  -9.91891  -9.91819  -9.91719  -9.91686
 Alpha  occ. eigenvalues --   -9.91647  -9.91348  -9.91322  -9.91188  -9.91164
 Alpha  occ. eigenvalues --   -9.90959  -9.90767  -9.90701  -9.90674  -9.90623
 Alpha  occ. eigenvalues --   -9.90097  -2.92006  -1.72420  -1.71901  -1.71718
 Alpha  occ. eigenvalues --   -0.98459  -0.98054  -0.93496  -0.91625  -0.91577
 Alpha  occ. eigenvalues --   -0.89705  -0.86527  -0.85139  -0.84572  -0.84040
 Alpha  occ. eigenvalues --   -0.75532  -0.74017  -0.73594  -0.72744  -0.72000
 Alpha  occ. eigenvalues --   -0.71875  -0.71441  -0.70648  -0.70466  -0.70303
 Alpha  occ. eigenvalues --   -0.69522  -0.69316  -0.68205  -0.67320  -0.66969
 Alpha  occ. eigenvalues --   -0.66647  -0.65770  -0.65423  -0.64870  -0.64418
 Alpha  occ. eigenvalues --   -0.63961  -0.62420  -0.62251  -0.61465  -0.60943
 Alpha  occ. eigenvalues --   -0.60530  -0.59971  -0.59736  -0.59396  -0.58678
 Alpha  occ. eigenvalues --   -0.58374  -0.57582  -0.56289  -0.55785  -0.54131
 Alpha  occ. eigenvalues --   -0.54009  -0.53706  -0.52801  -0.52576  -0.51513
 Alpha  occ. eigenvalues --   -0.51184  -0.51101  -0.50931  -0.50473  -0.50326
 Alpha  occ. eigenvalues --   -0.49975  -0.49542  -0.48821  -0.48187  -0.46897
 Alpha  occ. eigenvalues --   -0.46156  -0.45671  -0.45521  -0.45084  -0.44162
 Alpha  occ. eigenvalues --   -0.43842  -0.43649  -0.43436  -0.42826  -0.42456
 Alpha  occ. eigenvalues --   -0.42345  -0.41988  -0.41667  -0.41215  -0.40979
 Alpha  occ. eigenvalues --   -0.40464  -0.40351  -0.40220  -0.40199  -0.39888
 Alpha  occ. eigenvalues --   -0.39781  -0.39741  -0.39339  -0.39318  -0.39203
 Alpha  occ. eigenvalues --   -0.39105  -0.38978  -0.38775  -0.38420  -0.38326
 Alpha  occ. eigenvalues --   -0.38257  -0.37968  -0.37798  -0.37783  -0.37690
 Alpha  occ. eigenvalues --   -0.37349  -0.36820  -0.36649  -0.36526  -0.36269
 Alpha  occ. eigenvalues --   -0.36005  -0.35942  -0.35828  -0.35592  -0.35540
 Alpha  occ. eigenvalues --   -0.35391  -0.35224  -0.35194  -0.35080  -0.34591
 Alpha  occ. eigenvalues --   -0.34362  -0.34273  -0.34122  -0.34088  -0.33902
 Alpha  occ. eigenvalues --   -0.33770  -0.33539  -0.33442  -0.33088  -0.32988
 Alpha  occ. eigenvalues --   -0.32968  -0.32938  -0.32610  -0.32486  -0.32271
 Alpha  occ. eigenvalues --   -0.32191  -0.31965  -0.31831  -0.31674  -0.31473
 Alpha  occ. eigenvalues --   -0.31286  -0.31195  -0.31164  -0.31014  -0.30842
 Alpha  occ. eigenvalues --   -0.30725  -0.30434  -0.30294  -0.29959  -0.29868
 Alpha  occ. eigenvalues --   -0.29769  -0.29700  -0.29486  -0.29040  -0.28726
 Alpha  occ. eigenvalues --   -0.28659  -0.28480  -0.28445  -0.28209  -0.27993
 Alpha  occ. eigenvalues --   -0.27679  -0.27611  -0.27328  -0.26951  -0.26863
 Alpha  occ. eigenvalues --   -0.26160  -0.26084  -0.25886  -0.25652  -0.25527
 Alpha  occ. eigenvalues --   -0.24865  -0.24845  -0.23842  -0.23482  -0.23251
 Alpha  occ. eigenvalues --   -0.23197  -0.22998  -0.21825  -0.20962  -0.20919
 Alpha  occ. eigenvalues --   -0.20833  -0.20426  -0.18694  -0.18408  -0.16769
 Alpha  occ. eigenvalues --   -0.15193
 Alpha virt. eigenvalues --   -0.11056  -0.06646  -0.05553  -0.04328  -0.04178
 Alpha virt. eigenvalues --   -0.03252  -0.02582  -0.01236  -0.01118   0.00634
 Alpha virt. eigenvalues --    0.01485   0.01935   0.02336   0.02542   0.02962

 Mulliken charges:
               1
     1  Mg   0.688973
     2  C    0.041713
     3  C   -0.053199
     4  C   -0.039207
     5  C   -0.059442
     6  N   -0.198653
     7  C   -0.124905
     8  C    0.073805
     9  C    0.020371
    10  C   -0.054560
    11  C    0.115370
    12  C    0.138599
    13  C    0.127088
    14  C    0.096336
    15  O   -0.189354
    16  O   -0.264344
    17  N   -0.325444
    18  C    0.199404
    19  C   -0.128931
    20  C    0.037304
    21  C    0.166179
    22  C    0.170546
    23  C   -0.112026
    24  O   -0.120059
    25  C    0.117088
    26  N   -0.255931
    27  C   -0.059262
    28  C    0.020985
    29  C    0.035792
    30  C    0.071532
    31  C    0.125924
    32  C    0.081547
    33  C    0.080138
    34  N   -0.204756
    35  C    0.057971
    36  C   -0.236927
    37  C    0.134001
    38  C    0.019936
    39  C    0.172283
    40  C   -0.059544
    41  O   -0.118204
    42  C    0.081249
    43  C    0.071494
    44  O   -0.180429
    45  O   -0.246888
    46  C    0.228079
    47  C    0.315726
    48  C   -0.111062
    49  C   -0.153472
    50  C    0.152869
    51  C    0.147537
    52  C    0.109364
    53  C   -0.010878
    54  C   -0.052965
    55  C    0.092359
    56  C    0.142273
    57  C    0.044364
    58  C    0.117441
    59  C   -0.060514
    60  C    0.087155
    61  C    0.091811
    62  C    0.022890
    63  C    0.154103
    64  C   -0.103573
    65  C    0.087629
    66  C    0.077438
    67  H   -0.079228
    68  H   -0.046535
    69  H   -0.071169
    70  H    0.000619
    71  H   -0.018188
    72  H   -0.004549
    73  H   -0.007592
    74  H    0.013930
    75  H   -0.029095
    76  H   -0.006476
    77  H   -0.018681
    78  H    0.001058
    79  H    0.010559
    80  H   -0.023784
    81  H   -0.007768
    82  H    0.022050
    83  H   -0.013390
    84  H   -0.008875
    85  H   -0.022576
    86  H   -0.021201
    87  H   -0.004653
    88  H    0.001856
    89  H   -0.014425
    90  H   -0.024631
    91  H   -0.029834
    92  H    0.000613
    93  H   -0.009496
    94  H   -0.008180
    95  H   -0.005605
    96  H    0.006265
    97  H    0.005666
    98  H   -0.009545
    99  H    0.009675
   100  H    0.030731
   101  H    0.011511
   102  H   -0.027957
   103  H   -0.007223
   104  H   -0.033461
   105  H    0.012945
   106  H   -0.014702
   107  H    0.010849
   108  H   -0.028094
   109  H   -0.035339
   110  H   -0.032373
   111  H   -0.028199
   112  H   -0.029168
   113  H   -0.036037
   114  H   -0.032230
   115  H   -0.000998
   116  H   -0.012296
   117  H   -0.000951
   118  H   -0.042055
   119  H   -0.037313
   120  H   -0.052462
   121  H   -0.043177
   122  H   -0.045645
   123  H   -0.023059
   124  H   -0.029292
   125  H   -0.011846
   126  H   -0.025660
   127  H   -0.021182
   128  H   -0.023496
   129  H   -0.031200
   130  H   -0.017819
   131  H   -0.019905
   132  H   -0.030496
   133  H   -0.042924
   134  H   -0.027924
   135  H   -0.024831
   136  H   -0.023963
   137  H   -0.021089
   138  H   -0.008353
   139  H   -0.016602
   140  H   -0.005669
 Sum of Mulliken charges =  -0.00000

 Dipole moment (field-independent basis, Debye):
    X=              4.0331    Y=              2.2037    Z=             -3.6990  Tot=              5.8996
 Quadrupole moment (field-independent basis, Debye-Ang):
   XX=           -379.4849   YY=           -436.9686   ZZ=           -404.4758
   XY=            -14.3076   XZ=              4.5696   YZ=              9.6317

 Normal termination of Gaussian 16 at Wed May  4 06:34:18 2022.
