 Gaussian 16, Revision A.03,
 Gaussian 16:  ES64L-G16RevA.03 25-Dec-2016

 -----------------------------------
 #p cam-b3lyp/Def2SVP td=(nstates=5)
 -----------------------------------

 -------------------------------------------------------
 step_1401_chromophore_3 TDDFT with cam-b3lyp functional
 -------------------------------------------------------
 Symbolic Z-matrix:
 Charge =  0 Multiplicity = 1

                         Standard orientation:
 ---------------------------------------------------------------------
 Center     Atomic      Atomic             Coordinates (Angstroms)
 Number     Number       Type             X           Y           Z
 ---------------------------------------------------------------------
      1         12           0       -5.282971    0.929762    0.096915
      2          6           0       -4.108984   -2.506908   -0.003591
      3          6           0       -1.971648    1.850797   -0.116899
      4          6           0       -6.275340    4.107916    0.277298
      5          6           0       -8.521604   -0.227455    0.708144
      6          7           0       -3.205819   -0.249453    0.114819
      7          6           0       -2.972907   -1.660650   -0.040505
      8          6           0       -1.558989   -1.919402   -0.537459
      9          6           0       -0.920601   -0.531539   -0.467574
     10          6           0       -2.083678    0.434658   -0.113928
     11          6           0        0.319075   -0.382737    0.501367
     12          6           0       -1.581264   -2.626805   -1.911772
     13          6           0       -0.649357   -3.792319   -2.005259
     14          6           0        0.648756   -3.799377   -1.203499
     15          8           0        0.734422   -4.524550   -0.220518
     16          8           0        1.608123   -2.923524   -1.727441
     17          7           0       -4.315737    2.715208    0.050173
     18          6           0       -2.941015    2.896023   -0.010091
     19          6           0       -2.684341    4.317820   -0.167243
     20          6           0       -3.919163    5.014911   -0.157777
     21          6           0       -4.930027    3.938967    0.131455
     22          6           0       -1.320376    4.833456   -0.297545
     23          6           0       -4.323148    6.423505   -0.350970
     24          8           0       -5.421369    6.851931   -0.204116
     25          6           0       -3.115828    7.362453   -0.595571
     26          7           0       -7.096449    1.828052    0.721778
     27          6           0       -7.310437    3.179417    0.507379
     28          6           0       -8.790727    3.560699    0.733159
     29          6           0       -9.468730    2.149511    0.771166
     30          6           0       -8.299850    1.151267    0.752360
     31          6           0       -8.864516    4.393067    2.032417
     32          6           0      -10.460225    1.789065   -0.410450
     33          6           0      -11.680933    1.018430    0.011649
     34          7           0       -6.182060   -0.966792    0.334459
     35          6           0       -7.466555   -1.271021    0.554753
     36          6           0       -7.681085   -2.761898    0.396563
     37          6           0       -6.422276   -3.223781    0.264154
     38          6           0       -5.509921   -2.119970    0.242612
     39          6           0       -8.971701   -3.488565    0.486189
     40          6           0       -5.582837   -4.417648    0.153970
     41          8           0       -5.904770   -5.584821    0.147446
     42          6           0       -4.169565   -3.952891   -0.117237
     43          6           0       -3.267100   -4.732363    0.807523
     44          8           0       -3.180599   -4.463531    1.986888
     45          8           0       -2.696288   -5.746532    0.147579
     46          6           0       -1.989223   -6.726078    1.009928
     47          6           0        2.862646   -2.976199   -1.042408
     48          6           0        3.750833   -1.788047   -1.385108
     49          6           0        4.900437   -1.771317   -2.146174
     50          6           0        5.689692   -2.910534   -2.824414
     51          6           0        5.615171   -0.433968   -2.367496
     52          6           0        6.653762   -0.101842   -1.324101
     53          6           0        7.978024    0.274655   -2.064250
     54          6           0        9.273974    0.503740   -1.180877
     55          6           0        9.839978   -0.767572   -0.481670
     56          6           0       10.330386    1.293534   -1.973820
     57          6           0       10.316076    2.806463   -1.673082
     58          6           0       11.702526    3.391522   -1.303575
     59          6           0       11.975748    3.221200    0.221386
     60          6           0       12.785183    4.438366    0.738662
     61          6           0       12.816702    1.817321    0.504992
     62          6           0       12.045795    1.086525    1.721245
     63          6           0       12.624092   -0.273634    1.940040
     64          6           0       12.361170   -0.831992    3.368277
     65          6           0       13.594082   -1.370317    4.160984
     66          6           0       11.293797   -2.001153    3.274893
     67          1           0       -0.914428    2.094126   -0.233858
     68          1           0       -6.774476    5.077641    0.229427
     69          1           0       -9.549997   -0.592138    0.739178
     70          1           0       -1.222921   -2.583208    0.258966
     71          1           0       -0.696646   -0.162984   -1.468279
     72          1           0        0.107132    0.300469    1.323958
     73          1           0        1.106994    0.151804   -0.027933
     74          1           0        0.696320   -1.349809    0.834118
     75          1           0       -1.140883   -1.948622   -2.643652
     76          1           0       -2.554816   -2.862042   -2.341184
     77          1           0       -0.492234   -3.883054   -3.080710
     78          1           0       -1.117554   -4.727501   -1.699154
     79          1           0       -1.126313    5.219689   -1.298202
     80          1           0       -0.508494    4.157713   -0.028574
     81          1           0       -1.126746    5.595771    0.456507
     82          1           0       -2.534775    7.483560    0.318493
     83          1           0       -3.580723    8.276795   -0.966779
     84          1           0       -2.544730    6.884389   -1.391254
     85          1           0       -9.065297    4.255460   -0.061900
     86          1           0      -10.058714    2.072171    1.685164
     87          1           0       -9.531124    5.253645    1.973374
     88          1           0       -7.892794    4.817511    2.285853
     89          1           0       -9.176371    3.651339    2.767897
     90          1           0       -9.864406    1.249630   -1.146472
     91          1           0      -10.729392    2.670352   -0.992371
     92          1           0      -11.720447    0.066439   -0.517155
     93          1           0      -12.617113    1.561863   -0.122095
     94          1           0      -11.666912    0.820264    1.083257
     95          1           0       -9.611836   -2.974631    1.203699
     96          1           0       -8.904165   -4.502452    0.878683
     97          1           0       -9.395485   -3.476887   -0.517960
     98          1           0       -3.897011   -4.304147   -1.113226
     99          1           0       -1.524798   -7.496729    0.394421
    100          1           0       -2.555152   -7.109900    1.859141
    101          1           0       -1.109670   -6.199962    1.380566
    102          1           0        3.450052   -3.869561   -1.253279
    103          1           0        2.789063   -3.003946    0.045536
    104          1           0        3.437232   -0.885270   -0.859823
    105          1           0        5.638882   -2.690642   -3.890226
    106          1           0        5.203622   -3.833763   -2.508682
    107          1           0        6.724930   -2.937877   -2.485565
    108          1           0        4.915814    0.400091   -2.429588
    109          1           0        6.072893   -0.516722   -3.353713
    110          1           0        6.895501   -0.922163   -0.650148
    111          1           0        6.392267    0.720310   -0.657252
    112          1           0        7.748681    1.135610   -2.692103
    113          1           0        8.231258   -0.488930   -2.799829
    114          1           0        8.826848    1.191755   -0.462760
    115          1           0       10.920690   -0.879525   -0.562225
    116          1           0        9.336753   -1.672501   -0.821160
    117          1           0        9.763327   -0.684306    0.602870
    118          1           0       10.077469    1.267829   -3.034192
    119          1           0       11.311165    0.823178   -1.896305
    120          1           0        9.572933    2.943799   -0.886668
    121          1           0        9.870889    3.469909   -2.414036
    122          1           0       11.566130    4.431822   -1.597755
    123          1           0       12.417623    2.905539   -1.967006
    124          1           0       11.087941    3.258025    0.852297
    125          1           0       12.284197    5.387128    0.549897
    126          1           0       13.709391    4.412492    0.160067
    127          1           0       13.108703    4.357975    1.776496
    128          1           0       13.836872    2.140243    0.712347
    129          1           0       12.743657    1.278994   -0.439562
    130          1           0       10.995486    0.982711    1.445893
    131          1           0       12.207700    1.622506    2.656989
    132          1           0       13.677102   -0.150706    1.688147
    133          1           0       12.102360   -0.987814    1.303622
    134          1           0       11.902294   -0.115721    4.050484
    135          1           0       14.523775   -1.356398    3.592608
    136          1           0       13.539968   -2.400007    4.513457
    137          1           0       13.830348   -0.825632    5.074399
    138          1           0       10.843718   -2.076629    2.285263
    139          1           0       10.579542   -1.584411    3.984096
    140          1           0       11.655102   -2.975828    3.605876
 ---------------------------------------------------------------------

 SCF Done:  E(RCAM-B3LYP) =  -3007.16668909     A.U. after   17 cycles

 Excitation energies and oscillator strengths:

 Excited State   1:      Singlet-A      1.6840 eV  736.26 nm  f=0.3699  <S**2>=0.000
     245 -> 248        0.16759
     246 -> 247        0.68755
     245 <- 248        0.10239
 This state for optimization and/or second-order correction.
 Total Energy, E(TD-HF/TD-DFT) =  -3007.10480453
 Copying the excited state density for this state as the 1-particle RhoCI density.

 Excited State   2:      Singlet-A      2.2348 eV  554.80 nm  f=0.0938  <S**2>=0.000
     245 -> 247        0.63070
     246 -> 248       -0.30324

 Excited State   3:      Singlet-A      3.4226 eV  362.25 nm  f=0.5076  <S**2>=0.000
     240 -> 247        0.12623
     242 -> 247        0.21605
     243 -> 247        0.14242
     244 -> 247       -0.11833
     245 -> 247        0.25173
     246 -> 248        0.57038

 Excited State   4:      Singlet-A      3.6021 eV  344.20 nm  f=0.2024  <S**2>=0.000
     240 -> 247       -0.31975
     240 -> 249       -0.12021
     242 -> 247       -0.21337
     243 -> 247       -0.26244
     244 -> 247        0.35757
     245 -> 247        0.15631
     246 -> 248        0.24526

 Excited State   5:      Singlet-A      3.6795 eV  336.96 nm  f=0.0012  <S**2>=0.000
     238 -> 247       -0.10085
     239 -> 247        0.34887
     239 -> 248       -0.10099
     239 -> 249        0.15806
     240 -> 247        0.28574
     240 -> 249        0.15459
     243 -> 247       -0.14811
     244 -> 247        0.38519

 The electronic state is 1-A.
 Alpha  occ. eigenvalues --  -46.89038 -19.26453 -19.25155 -19.21406 -19.19507
 Alpha  occ. eigenvalues --  -19.18554 -19.18020 -14.41661 -14.41399 -14.39726
 Alpha  occ. eigenvalues --  -14.39273 -10.40517 -10.38114 -10.34985 -10.33793
 Alpha  occ. eigenvalues --  -10.32073 -10.31013 -10.30973 -10.30924 -10.30894
 Alpha  occ. eigenvalues --  -10.30474 -10.30455 -10.30141 -10.29381 -10.29316
 Alpha  occ. eigenvalues --  -10.28669 -10.28344 -10.28081 -10.28016 -10.27789
 Alpha  occ. eigenvalues --  -10.27654 -10.27463 -10.27459 -10.27458 -10.27195
 Alpha  occ. eigenvalues --  -10.27189 -10.27062 -10.26898 -10.26725 -10.26642
 Alpha  occ. eigenvalues --  -10.26537 -10.26533 -10.26516 -10.26260 -10.26071
 Alpha  occ. eigenvalues --  -10.26033 -10.25971 -10.25941 -10.25929 -10.25826
 Alpha  occ. eigenvalues --  -10.25804 -10.25670 -10.25527 -10.25368 -10.25361
 Alpha  occ. eigenvalues --  -10.25221 -10.25221 -10.25192 -10.25031 -10.24857
 Alpha  occ. eigenvalues --  -10.24668 -10.24399 -10.24340 -10.24323 -10.24261
 Alpha  occ. eigenvalues --  -10.23711  -3.17479  -1.92369  -1.91932  -1.91786
 Alpha  occ. eigenvalues --   -1.16863  -1.16414  -1.12432  -1.09709  -1.09496
 Alpha  occ. eigenvalues --   -1.07486  -1.03799  -1.03016  -1.02226  -1.01643
 Alpha  occ. eigenvalues --   -0.92487  -0.90913  -0.90355  -0.89559  -0.89015
 Alpha  occ. eigenvalues --   -0.88571  -0.88065  -0.87528  -0.87039  -0.86760
 Alpha  occ. eigenvalues --   -0.85866  -0.85708  -0.84485  -0.83516  -0.82927
 Alpha  occ. eigenvalues --   -0.82746  -0.82006  -0.81404  -0.80650  -0.80256
 Alpha  occ. eigenvalues --   -0.79866  -0.78373  -0.77908  -0.76865  -0.76319
 Alpha  occ. eigenvalues --   -0.75838  -0.75323  -0.75035  -0.74654  -0.73931
 Alpha  occ. eigenvalues --   -0.73403  -0.72479  -0.71180  -0.70597  -0.68878
 Alpha  occ. eigenvalues --   -0.68416  -0.68242  -0.67287  -0.67007  -0.65806
 Alpha  occ. eigenvalues --   -0.65351  -0.65240  -0.64802  -0.64455  -0.64377
 Alpha  occ. eigenvalues --   -0.63888  -0.63552  -0.62756  -0.61737  -0.60467
 Alpha  occ. eigenvalues --   -0.60004  -0.59228  -0.59020  -0.58369  -0.57613
 Alpha  occ. eigenvalues --   -0.57107  -0.56883  -0.56651  -0.56392  -0.55566
 Alpha  occ. eigenvalues --   -0.55337  -0.55158  -0.54775  -0.54131  -0.53967
 Alpha  occ. eigenvalues --   -0.53459  -0.53365  -0.53082  -0.52994  -0.52883
 Alpha  occ. eigenvalues --   -0.52526  -0.52307  -0.52054  -0.51842  -0.51721
 Alpha  occ. eigenvalues --   -0.51490  -0.51277  -0.51255  -0.50912  -0.50769
 Alpha  occ. eigenvalues --   -0.50634  -0.50521  -0.50208  -0.50059  -0.49983
 Alpha  occ. eigenvalues --   -0.49764  -0.49415  -0.49047  -0.48871  -0.48791
 Alpha  occ. eigenvalues --   -0.48533  -0.48357  -0.48030  -0.47815  -0.47509
 Alpha  occ. eigenvalues --   -0.47426  -0.47359  -0.47195  -0.47078  -0.46520
 Alpha  occ. eigenvalues --   -0.46306  -0.46078  -0.45958  -0.45839  -0.45824
 Alpha  occ. eigenvalues --   -0.45517  -0.45340  -0.45194  -0.45009  -0.44652
 Alpha  occ. eigenvalues --   -0.44593  -0.44544  -0.44332  -0.44146  -0.43843
 Alpha  occ. eigenvalues --   -0.43772  -0.43593  -0.43456  -0.43375  -0.43269
 Alpha  occ. eigenvalues --   -0.43109  -0.42805  -0.42545  -0.42519  -0.42395
 Alpha  occ. eigenvalues --   -0.42138  -0.41724  -0.41563  -0.41500  -0.41121
 Alpha  occ. eigenvalues --   -0.40987  -0.40849  -0.40590  -0.40514  -0.39776
 Alpha  occ. eigenvalues --   -0.39701  -0.39431  -0.39415  -0.39113  -0.39024
 Alpha  occ. eigenvalues --   -0.38622  -0.38540  -0.38156  -0.37738  -0.37627
 Alpha  occ. eigenvalues --   -0.37382  -0.37141  -0.36743  -0.36310  -0.36256
 Alpha  occ. eigenvalues --   -0.36160  -0.35895  -0.35237  -0.34195  -0.34062
 Alpha  occ. eigenvalues --   -0.33771  -0.33431  -0.31978  -0.31406  -0.30826
 Alpha  occ. eigenvalues --   -0.30634  -0.30289  -0.30066  -0.29754  -0.23621
 Alpha  occ. eigenvalues --   -0.20403
 Alpha virt. eigenvalues --   -0.08088  -0.01394   0.00877   0.02300   0.02932
 Alpha virt. eigenvalues --    0.03632   0.04258   0.05947   0.06983   0.07460
 Alpha virt. eigenvalues --    0.08005   0.08298   0.08562   0.09203   0.09273

 Mulliken charges:
               1
     1  Mg   0.820372
     2  C    0.021095
     3  C   -0.072157
     4  C   -0.074839
     5  C   -0.066988
     6  N   -0.259758
     7  C   -0.074412
     8  C    0.007877
     9  C   -0.031533
    10  C   -0.026430
    11  C    0.059657
    12  C    0.082765
    13  C    0.067247
    14  C    0.167969
    15  O   -0.228966
    16  O   -0.326279
    17  N   -0.417364
    18  C    0.213945
    19  C   -0.131627
    20  C   -0.029131
    21  C    0.196536
    22  C    0.104222
    23  C   -0.027419
    24  O   -0.158654
    25  C    0.037757
    26  N   -0.328093
    27  C   -0.023247
    28  C   -0.031992
    29  C   -0.023237
    30  C    0.087676
    31  C    0.067173
    32  C    0.025626
    33  C    0.011846
    34  N   -0.290842
    35  C    0.059104
    36  C   -0.233046
    37  C    0.050279
    38  C    0.048720
    39  C    0.118319
    40  C    0.043722
    41  O   -0.158363
    42  C    0.001396
    43  C    0.155549
    44  O   -0.217052
    45  O   -0.310944
    46  C    0.185527
    47  C    0.277879
    48  C   -0.123460
    49  C   -0.175642
    50  C    0.096651
    51  C    0.079963
    52  C    0.057479
    53  C   -0.051341
    54  C   -0.106616
    55  C    0.037312
    56  C    0.080072
    57  C   -0.002444
    58  C    0.057078
    59  C   -0.114867
    60  C    0.032540
    61  C    0.042102
    62  C   -0.023747
    63  C    0.100668
    64  C   -0.164847
    65  C    0.031130
    66  C    0.025903
    67  H   -0.043616
    68  H   -0.006198
    69  H   -0.036040
    70  H    0.034797
    71  H    0.017023
    72  H    0.022138
    73  H    0.013611
    74  H    0.035560
    75  H    0.002117
    76  H    0.025280
    77  H    0.015664
    78  H    0.032203
    79  H    0.039730
    80  H    0.009154
    81  H    0.021669
    82  H    0.049764
    83  H    0.023349
    84  H    0.017483
    85  H    0.012395
    86  H    0.012777
    87  H    0.020876
    88  H    0.027756
    89  H    0.011191
    90  H    0.007404
    91  H   -0.000981
    92  H    0.023925
    93  H    0.015925
    94  H    0.013667
    95  H    0.016220
    96  H    0.032640
    97  H    0.029474
    98  H    0.032545
    99  H    0.033809
   100  H    0.054631
   101  H    0.035578
   102  H   -0.000302
   103  H    0.022011
   104  H   -0.004947
   105  H    0.036609
   106  H    0.009106
   107  H    0.032263
   108  H    0.003612
   109  H   -0.004376
   110  H   -0.004138
   111  H    0.000178
   112  H   -0.002409
   113  H   -0.010404
   114  H   -0.003766
   115  H    0.019681
   116  H    0.011442
   117  H    0.017025
   118  H   -0.010332
   119  H   -0.009116
   120  H   -0.023867
   121  H   -0.013265
   122  H   -0.013858
   123  H    0.004921
   124  H    0.001232
   125  H    0.011947
   126  H   -0.003287
   127  H    0.003564
   128  H    0.004747
   129  H   -0.007091
   130  H    0.003789
   131  H    0.006622
   132  H   -0.001656
   133  H   -0.018283
   134  H    0.003844
   135  H   -0.000643
   136  H    0.000238
   137  H    0.002980
   138  H    0.009844
   139  H    0.006893
   140  H    0.017857
 Sum of Mulliken charges =  -0.00000

 Dipole moment (field-independent basis, Debye):
    X=              4.8359    Y=              3.6340    Z=             -3.9866  Tot=              7.2446
 Quadrupole moment (field-independent basis, Debye-Ang):
   XX=           -384.0316   YY=           -430.6694   ZZ=           -404.6472
   XY=            -19.4594   XZ=              5.9876   YZ=              9.4722

 Normal termination of Gaussian 16 at Wed May  4 05:33:54 2022.
