 Gaussian 16, Revision A.03,
 Gaussian 16:  ES64L-G16RevA.03 25-Dec-2016

 ---------------------------------
 #p PBE1PBE/Def2SVP td=(nstates=5)
 ---------------------------------

 -----------------------------------------------------
 step_1401_chromophore_3 TDDFT with PBE1PBE functional
 -----------------------------------------------------
 Symbolic Z-matrix:
 Charge =  0 Multiplicity = 1

                         Standard orientation:
 ---------------------------------------------------------------------
 Center     Atomic      Atomic             Coordinates (Angstroms)
 Number     Number       Type             X           Y           Z
 ---------------------------------------------------------------------
      1         12           0       -5.282971    0.929762    0.096915
      2          6           0       -4.108984   -2.506908   -0.003591
      3          6           0       -1.971648    1.850797   -0.116899
      4          6           0       -6.275340    4.107916    0.277298
      5          6           0       -8.521604   -0.227455    0.708144
      6          7           0       -3.205819   -0.249453    0.114819
      7          6           0       -2.972907   -1.660650   -0.040505
      8          6           0       -1.558989   -1.919402   -0.537459
      9          6           0       -0.920601   -0.531539   -0.467574
     10          6           0       -2.083678    0.434658   -0.113928
     11          6           0        0.319075   -0.382737    0.501367
     12          6           0       -1.581264   -2.626805   -1.911772
     13          6           0       -0.649357   -3.792319   -2.005259
     14          6           0        0.648756   -3.799377   -1.203499
     15          8           0        0.734422   -4.524550   -0.220518
     16          8           0        1.608123   -2.923524   -1.727441
     17          7           0       -4.315737    2.715208    0.050173
     18          6           0       -2.941015    2.896023   -0.010091
     19          6           0       -2.684341    4.317820   -0.167243
     20          6           0       -3.919163    5.014911   -0.157777
     21          6           0       -4.930027    3.938967    0.131455
     22          6           0       -1.320376    4.833456   -0.297545
     23          6           0       -4.323148    6.423505   -0.350970
     24          8           0       -5.421369    6.851931   -0.204116
     25          6           0       -3.115828    7.362453   -0.595571
     26          7           0       -7.096449    1.828052    0.721778
     27          6           0       -7.310437    3.179417    0.507379
     28          6           0       -8.790727    3.560699    0.733159
     29          6           0       -9.468730    2.149511    0.771166
     30          6           0       -8.299850    1.151267    0.752360
     31          6           0       -8.864516    4.393067    2.032417
     32          6           0      -10.460225    1.789065   -0.410450
     33          6           0      -11.680933    1.018430    0.011649
     34          7           0       -6.182060   -0.966792    0.334459
     35          6           0       -7.466555   -1.271021    0.554753
     36          6           0       -7.681085   -2.761898    0.396563
     37          6           0       -6.422276   -3.223781    0.264154
     38          6           0       -5.509921   -2.119970    0.242612
     39          6           0       -8.971701   -3.488565    0.486189
     40          6           0       -5.582837   -4.417648    0.153970
     41          8           0       -5.904770   -5.584821    0.147446
     42          6           0       -4.169565   -3.952891   -0.117237
     43          6           0       -3.267100   -4.732363    0.807523
     44          8           0       -3.180599   -4.463531    1.986888
     45          8           0       -2.696288   -5.746532    0.147579
     46          6           0       -1.989223   -6.726078    1.009928
     47          6           0        2.862646   -2.976199   -1.042408
     48          6           0        3.750833   -1.788047   -1.385108
     49          6           0        4.900437   -1.771317   -2.146174
     50          6           0        5.689692   -2.910534   -2.824414
     51          6           0        5.615171   -0.433968   -2.367496
     52          6           0        6.653762   -0.101842   -1.324101
     53          6           0        7.978024    0.274655   -2.064250
     54          6           0        9.273974    0.503740   -1.180877
     55          6           0        9.839978   -0.767572   -0.481670
     56          6           0       10.330386    1.293534   -1.973820
     57          6           0       10.316076    2.806463   -1.673082
     58          6           0       11.702526    3.391522   -1.303575
     59          6           0       11.975748    3.221200    0.221386
     60          6           0       12.785183    4.438366    0.738662
     61          6           0       12.816702    1.817321    0.504992
     62          6           0       12.045795    1.086525    1.721245
     63          6           0       12.624092   -0.273634    1.940040
     64          6           0       12.361170   -0.831992    3.368277
     65          6           0       13.594082   -1.370317    4.160984
     66          6           0       11.293797   -2.001153    3.274893
     67          1           0       -0.914428    2.094126   -0.233858
     68          1           0       -6.774476    5.077641    0.229427
     69          1           0       -9.549997   -0.592138    0.739178
     70          1           0       -1.222921   -2.583208    0.258966
     71          1           0       -0.696646   -0.162984   -1.468279
     72          1           0        0.107132    0.300469    1.323958
     73          1           0        1.106994    0.151804   -0.027933
     74          1           0        0.696320   -1.349809    0.834118
     75          1           0       -1.140883   -1.948622   -2.643652
     76          1           0       -2.554816   -2.862042   -2.341184
     77          1           0       -0.492234   -3.883054   -3.080710
     78          1           0       -1.117554   -4.727501   -1.699154
     79          1           0       -1.126313    5.219689   -1.298202
     80          1           0       -0.508494    4.157713   -0.028574
     81          1           0       -1.126746    5.595771    0.456507
     82          1           0       -2.534775    7.483560    0.318493
     83          1           0       -3.580723    8.276795   -0.966779
     84          1           0       -2.544730    6.884389   -1.391254
     85          1           0       -9.065297    4.255460   -0.061900
     86          1           0      -10.058714    2.072171    1.685164
     87          1           0       -9.531124    5.253645    1.973374
     88          1           0       -7.892794    4.817511    2.285853
     89          1           0       -9.176371    3.651339    2.767897
     90          1           0       -9.864406    1.249630   -1.146472
     91          1           0      -10.729392    2.670352   -0.992371
     92          1           0      -11.720447    0.066439   -0.517155
     93          1           0      -12.617113    1.561863   -0.122095
     94          1           0      -11.666912    0.820264    1.083257
     95          1           0       -9.611836   -2.974631    1.203699
     96          1           0       -8.904165   -4.502452    0.878683
     97          1           0       -9.395485   -3.476887   -0.517960
     98          1           0       -3.897011   -4.304147   -1.113226
     99          1           0       -1.524798   -7.496729    0.394421
    100          1           0       -2.555152   -7.109900    1.859141
    101          1           0       -1.109670   -6.199962    1.380566
    102          1           0        3.450052   -3.869561   -1.253279
    103          1           0        2.789063   -3.003946    0.045536
    104          1           0        3.437232   -0.885270   -0.859823
    105          1           0        5.638882   -2.690642   -3.890226
    106          1           0        5.203622   -3.833763   -2.508682
    107          1           0        6.724930   -2.937877   -2.485565
    108          1           0        4.915814    0.400091   -2.429588
    109          1           0        6.072893   -0.516722   -3.353713
    110          1           0        6.895501   -0.922163   -0.650148
    111          1           0        6.392267    0.720310   -0.657252
    112          1           0        7.748681    1.135610   -2.692103
    113          1           0        8.231258   -0.488930   -2.799829
    114          1           0        8.826848    1.191755   -0.462760
    115          1           0       10.920690   -0.879525   -0.562225
    116          1           0        9.336753   -1.672501   -0.821160
    117          1           0        9.763327   -0.684306    0.602870
    118          1           0       10.077469    1.267829   -3.034192
    119          1           0       11.311165    0.823178   -1.896305
    120          1           0        9.572933    2.943799   -0.886668
    121          1           0        9.870889    3.469909   -2.414036
    122          1           0       11.566130    4.431822   -1.597755
    123          1           0       12.417623    2.905539   -1.967006
    124          1           0       11.087941    3.258025    0.852297
    125          1           0       12.284197    5.387128    0.549897
    126          1           0       13.709391    4.412492    0.160067
    127          1           0       13.108703    4.357975    1.776496
    128          1           0       13.836872    2.140243    0.712347
    129          1           0       12.743657    1.278994   -0.439562
    130          1           0       10.995486    0.982711    1.445893
    131          1           0       12.207700    1.622506    2.656989
    132          1           0       13.677102   -0.150706    1.688147
    133          1           0       12.102360   -0.987814    1.303622
    134          1           0       11.902294   -0.115721    4.050484
    135          1           0       14.523775   -1.356398    3.592608
    136          1           0       13.539968   -2.400007    4.513457
    137          1           0       13.830348   -0.825632    5.074399
    138          1           0       10.843718   -2.076629    2.285263
    139          1           0       10.579542   -1.584411    3.984096
    140          1           0       11.655102   -2.975828    3.605876
 ---------------------------------------------------------------------

 SCF Done:  E(RPBE1PBE) =  -3005.35483737     A.U. after   15 cycles

 Excitation energies and oscillator strengths:

 Excited State   1:      Singlet-A      1.8124 eV  684.08 nm  f=0.3594  <S**2>=0.000
     245 -> 248        0.16458
     246 -> 247        0.69469
     246 <- 247       -0.10894
 This state for optimization and/or second-order correction.
 Total Energy, E(TD-HF/TD-DFT) =  -3005.28823203
 Copying the excited state density for this state as the 1-particle RhoCI density.

 Excited State   2:      Singlet-A      2.2242 eV  557.44 nm  f=0.0949  <S**2>=0.000
     245 -> 247        0.64397
     246 -> 248       -0.27705

 Excited State   3:      Singlet-A      3.1217 eV  397.17 nm  f=0.0059  <S**2>=0.000
     240 -> 247       -0.11974
     242 -> 247        0.31851
     243 -> 247        0.53781
     244 -> 247       -0.18692
     246 -> 248        0.13949

 Excited State   4:      Singlet-A      3.1400 eV  394.86 nm  f=0.0222  <S**2>=0.000
     243 -> 247        0.16853
     244 -> 247        0.63098
     244 -> 249       -0.14940
     244 -> 250       -0.10216
     246 -> 248        0.16587

 Excited State   5:      Singlet-A      3.2413 eV  382.51 nm  f=0.3320  <S**2>=0.000
     239 -> 247        0.14152
     240 -> 247        0.13620
     243 -> 247       -0.10853
     244 -> 247       -0.14161
     245 -> 247        0.22179
     246 -> 248        0.57040
     246 -> 249       -0.16484

 The electronic state is 1-A.
 Alpha  occ. eigenvalues --  -46.92436 -19.27137 -19.25899 -19.21716 -19.19401
 Alpha  occ. eigenvalues --  -19.18900 -19.18476 -14.41084 -14.40989 -14.39267
 Alpha  occ. eigenvalues --  -14.39054 -10.37613 -10.35241 -10.31795 -10.31175
 Alpha  occ. eigenvalues --  -10.29455 -10.28533 -10.28502 -10.28401 -10.28300
 Alpha  occ. eigenvalues --  -10.28232 -10.28120 -10.27775 -10.27579 -10.26482
 Alpha  occ. eigenvalues --  -10.26367 -10.26243 -10.26079 -10.25896 -10.25657
 Alpha  occ. eigenvalues --  -10.25422 -10.25386 -10.25151 -10.24908 -10.24669
 Alpha  occ. eigenvalues --  -10.24588 -10.24557 -10.24522 -10.24446 -10.24304
 Alpha  occ. eigenvalues --  -10.24262 -10.24196 -10.23982 -10.23943 -10.23776
 Alpha  occ. eigenvalues --  -10.23701 -10.23590 -10.23556 -10.23523 -10.23464
 Alpha  occ. eigenvalues --  -10.23255 -10.22969 -10.22912 -10.22878 -10.22876
 Alpha  occ. eigenvalues --  -10.22845 -10.22772 -10.22702 -10.22602 -10.22431
 Alpha  occ. eigenvalues --  -10.22220 -10.21875 -10.21828 -10.21750 -10.21721
 Alpha  occ. eigenvalues --  -10.21639  -3.14460  -1.87291  -1.86830  -1.86690
 Alpha  occ. eigenvalues --   -1.11684  -1.11301  -1.06899  -1.04685  -1.04394
 Alpha  occ. eigenvalues --   -1.02420  -0.98775  -0.97468  -0.96784  -0.96209
 Alpha  occ. eigenvalues --   -0.87009  -0.85044  -0.84617  -0.83631  -0.83099
 Alpha  occ. eigenvalues --   -0.82680  -0.82339  -0.81666  -0.81178  -0.81141
 Alpha  occ. eigenvalues --   -0.80301  -0.79944  -0.78668  -0.77780  -0.77351
 Alpha  occ. eigenvalues --   -0.76902  -0.76106  -0.75574  -0.74990  -0.74408
 Alpha  occ. eigenvalues --   -0.74143  -0.72408  -0.72281  -0.71262  -0.70503
 Alpha  occ. eigenvalues --   -0.70212  -0.69435  -0.69192  -0.68997  -0.68066
 Alpha  occ. eigenvalues --   -0.67737  -0.67016  -0.65542  -0.64967  -0.63197
 Alpha  occ. eigenvalues --   -0.62871  -0.62496  -0.61757  -0.61191  -0.60232
 Alpha  occ. eigenvalues --   -0.59730  -0.59543  -0.59276  -0.58974  -0.58556
 Alpha  occ. eigenvalues --   -0.58504  -0.57727  -0.56941  -0.56432  -0.54831
 Alpha  occ. eigenvalues --   -0.54378  -0.53833  -0.53586  -0.53012  -0.52149
 Alpha  occ. eigenvalues --   -0.51639  -0.51416  -0.51206  -0.50856  -0.50095
 Alpha  occ. eigenvalues --   -0.49847  -0.49569  -0.49370  -0.48625  -0.48508
 Alpha  occ. eigenvalues --   -0.48022  -0.47600  -0.47490  -0.47422  -0.47391
 Alpha  occ. eigenvalues --   -0.47167  -0.46844  -0.46768  -0.46369  -0.46226
 Alpha  occ. eigenvalues --   -0.46056  -0.45880  -0.45793  -0.45476  -0.45361
 Alpha  occ. eigenvalues --   -0.45224  -0.44913  -0.44873  -0.44633  -0.44512
 Alpha  occ. eigenvalues --   -0.44377  -0.43929  -0.43750  -0.43497  -0.43371
 Alpha  occ. eigenvalues --   -0.43084  -0.42904  -0.42691  -0.42543  -0.42148
 Alpha  occ. eigenvalues --   -0.42049  -0.42004  -0.41837  -0.41681  -0.41236
 Alpha  occ. eigenvalues --   -0.41054  -0.40765  -0.40651  -0.40492  -0.40429
 Alpha  occ. eigenvalues --   -0.40206  -0.40060  -0.39876  -0.39795  -0.39513
 Alpha  occ. eigenvalues --   -0.39424  -0.39243  -0.39027  -0.38896  -0.38569
 Alpha  occ. eigenvalues --   -0.38556  -0.38409  -0.38281  -0.38112  -0.37983
 Alpha  occ. eigenvalues --   -0.37790  -0.37597  -0.37447  -0.37351  -0.37237
 Alpha  occ. eigenvalues --   -0.36941  -0.36481  -0.36436  -0.36412  -0.35946
 Alpha  occ. eigenvalues --   -0.35842  -0.35807  -0.35378  -0.35313  -0.34695
 Alpha  occ. eigenvalues --   -0.34477  -0.34384  -0.34224  -0.33985  -0.33930
 Alpha  occ. eigenvalues --   -0.33528  -0.33441  -0.32917  -0.32512  -0.32473
 Alpha  occ. eigenvalues --   -0.32434  -0.32065  -0.31602  -0.31351  -0.31208
 Alpha  occ. eigenvalues --   -0.31104  -0.30920  -0.30083  -0.29288  -0.29126
 Alpha  occ. eigenvalues --   -0.28808  -0.28546  -0.27517  -0.26632  -0.25991
 Alpha  occ. eigenvalues --   -0.25944  -0.25586  -0.25378  -0.25219  -0.20481
 Alpha  occ. eigenvalues --   -0.18062
 Alpha virt. eigenvalues --   -0.10603  -0.04943  -0.03275  -0.01637  -0.01056
 Alpha virt. eigenvalues --   -0.00348  -0.00251   0.01609   0.02169   0.03739
 Alpha virt. eigenvalues --    0.04294   0.04784   0.05123   0.05374   0.05926

 Mulliken charges:
               1
     1  Mg   0.966314
     2  C   -0.002269
     3  C   -0.070784
     4  C   -0.073127
     5  C   -0.061353
     6  N   -0.356924
     7  C    0.016190
     8  C   -0.073975
     9  C   -0.105821
    10  C    0.020468
    11  C   -0.000643
    12  C    0.031004
    13  C   -0.006620
    14  C    0.228827
    15  O   -0.260987
    16  O   -0.354822
    17  N   -0.530240
    18  C    0.237726
    19  C   -0.172730
    20  C   -0.069995
    21  C    0.222099
    22  C    0.046930
    23  C    0.027483
    24  O   -0.201303
    25  C   -0.038799
    26  N   -0.425390
    27  C    0.009317
    28  C   -0.104951
    29  C   -0.100941
    30  C    0.119562
    31  C    0.011076
    32  C   -0.031337
    33  C   -0.062595
    34  N   -0.419622
    35  C    0.088901
    36  C   -0.244090
    37  C   -0.011839
    38  C    0.109114
    39  C    0.063821
    40  C    0.151557
    41  O   -0.204651
    42  C   -0.112963
    43  C    0.249757
    44  O   -0.251782
    45  O   -0.345951
    46  C    0.127980
    47  C    0.233250
    48  C   -0.134856
    49  C   -0.215814
    50  C    0.029382
    51  C    0.011720
    52  C    0.000217
    53  C   -0.105201
    54  C   -0.193089
    55  C   -0.026529
    56  C    0.025855
    57  C   -0.057699
    58  C   -0.006954
    59  C   -0.192785
    60  C   -0.029590
    61  C   -0.012744
    62  C   -0.093348
    63  C    0.039562
    64  C   -0.255065
    65  C   -0.024218
    66  C   -0.035537
    67  H   -0.010395
    68  H    0.026486
    69  H    0.000408
    70  H    0.075281
    71  H    0.054180
    72  H    0.049795
    73  H    0.040852
    74  H    0.062485
    75  H    0.036165
    76  H    0.056150
    77  H    0.048790
    78  H    0.067161
    79  H    0.065278
    80  H    0.034373
    81  H    0.048329
    82  H    0.075852
    83  H    0.050159
    84  H    0.045489
    85  H    0.048136
    86  H    0.049528
    87  H    0.047959
    88  H    0.056458
    89  H    0.038735
    90  H    0.041401
    91  H    0.032775
    92  H    0.050392
    93  H    0.044938
    94  H    0.039599
    95  H    0.044075
    96  H    0.061061
    97  H    0.059344
    98  H    0.071524
    99  H    0.055690
   100  H    0.076108
   101  H    0.058889
   102  H    0.028179
   103  H    0.048530
   104  H    0.026316
   105  H    0.064131
   106  H    0.037851
   107  H    0.060045
   108  H    0.036212
   109  H    0.028061
   110  H    0.029618
   111  H    0.032239
   112  H    0.031468
   113  H    0.023328
   114  H    0.034396
   115  H    0.046530
   116  H    0.039099
   117  H    0.044832
   118  H    0.023861
   119  H    0.021804
   120  H    0.008529
   121  H    0.018420
   122  H    0.019419
   123  H    0.037501
   124  H    0.037181
   125  H    0.040005
   126  H    0.025394
   127  H    0.032164
   128  H    0.035962
   129  H    0.026815
   130  H    0.041176
   131  H    0.040323
   132  H    0.030958
   133  H    0.017901
   134  H    0.040337
   135  H    0.026372
   136  H    0.026604
   137  H    0.030286
   138  H    0.037750
   139  H    0.034415
   140  H    0.044362
 Sum of Mulliken charges =  -0.00000

 Dipole moment (field-independent basis, Debye):
    X=              4.4580    Y=              2.9384    Z=             -3.9547  Tot=              6.6444
 Quadrupole moment (field-independent basis, Debye-Ang):
   XX=           -374.1847   YY=           -429.3926   ZZ=           -402.1915
   XY=            -16.4410   XZ=              5.5245   YZ=              9.5683

 Normal termination of Gaussian 16 at Wed May  4 05:55:54 2022.
