 Gaussian 16, Revision A.03,
 Gaussian 16:  ES64L-G16RevA.03 25-Dec-2016

 --------------------------------
 #p wB97XD/Def2SVP td=(nstates=5)
 --------------------------------

 ----------------------------------------------------
 step_1401_chromophore_3 TDDFT with wB97XD functional
 ----------------------------------------------------
 Symbolic Z-matrix:
 Charge =  0 Multiplicity = 1

                         Standard orientation:
 ---------------------------------------------------------------------
 Center     Atomic      Atomic             Coordinates (Angstroms)
 Number     Number       Type             X           Y           Z
 ---------------------------------------------------------------------
      1         12           0       -5.282971    0.929762    0.096915
      2          6           0       -4.108984   -2.506908   -0.003591
      3          6           0       -1.971648    1.850797   -0.116899
      4          6           0       -6.275340    4.107916    0.277298
      5          6           0       -8.521604   -0.227455    0.708144
      6          7           0       -3.205819   -0.249453    0.114819
      7          6           0       -2.972907   -1.660650   -0.040505
      8          6           0       -1.558989   -1.919402   -0.537459
      9          6           0       -0.920601   -0.531539   -0.467574
     10          6           0       -2.083678    0.434658   -0.113928
     11          6           0        0.319075   -0.382737    0.501367
     12          6           0       -1.581264   -2.626805   -1.911772
     13          6           0       -0.649357   -3.792319   -2.005259
     14          6           0        0.648756   -3.799377   -1.203499
     15          8           0        0.734422   -4.524550   -0.220518
     16          8           0        1.608123   -2.923524   -1.727441
     17          7           0       -4.315737    2.715208    0.050173
     18          6           0       -2.941015    2.896023   -0.010091
     19          6           0       -2.684341    4.317820   -0.167243
     20          6           0       -3.919163    5.014911   -0.157777
     21          6           0       -4.930027    3.938967    0.131455
     22          6           0       -1.320376    4.833456   -0.297545
     23          6           0       -4.323148    6.423505   -0.350970
     24          8           0       -5.421369    6.851931   -0.204116
     25          6           0       -3.115828    7.362453   -0.595571
     26          7           0       -7.096449    1.828052    0.721778
     27          6           0       -7.310437    3.179417    0.507379
     28          6           0       -8.790727    3.560699    0.733159
     29          6           0       -9.468730    2.149511    0.771166
     30          6           0       -8.299850    1.151267    0.752360
     31          6           0       -8.864516    4.393067    2.032417
     32          6           0      -10.460225    1.789065   -0.410450
     33          6           0      -11.680933    1.018430    0.011649
     34          7           0       -6.182060   -0.966792    0.334459
     35          6           0       -7.466555   -1.271021    0.554753
     36          6           0       -7.681085   -2.761898    0.396563
     37          6           0       -6.422276   -3.223781    0.264154
     38          6           0       -5.509921   -2.119970    0.242612
     39          6           0       -8.971701   -3.488565    0.486189
     40          6           0       -5.582837   -4.417648    0.153970
     41          8           0       -5.904770   -5.584821    0.147446
     42          6           0       -4.169565   -3.952891   -0.117237
     43          6           0       -3.267100   -4.732363    0.807523
     44          8           0       -3.180599   -4.463531    1.986888
     45          8           0       -2.696288   -5.746532    0.147579
     46          6           0       -1.989223   -6.726078    1.009928
     47          6           0        2.862646   -2.976199   -1.042408
     48          6           0        3.750833   -1.788047   -1.385108
     49          6           0        4.900437   -1.771317   -2.146174
     50          6           0        5.689692   -2.910534   -2.824414
     51          6           0        5.615171   -0.433968   -2.367496
     52          6           0        6.653762   -0.101842   -1.324101
     53          6           0        7.978024    0.274655   -2.064250
     54          6           0        9.273974    0.503740   -1.180877
     55          6           0        9.839978   -0.767572   -0.481670
     56          6           0       10.330386    1.293534   -1.973820
     57          6           0       10.316076    2.806463   -1.673082
     58          6           0       11.702526    3.391522   -1.303575
     59          6           0       11.975748    3.221200    0.221386
     60          6           0       12.785183    4.438366    0.738662
     61          6           0       12.816702    1.817321    0.504992
     62          6           0       12.045795    1.086525    1.721245
     63          6           0       12.624092   -0.273634    1.940040
     64          6           0       12.361170   -0.831992    3.368277
     65          6           0       13.594082   -1.370317    4.160984
     66          6           0       11.293797   -2.001153    3.274893
     67          1           0       -0.914428    2.094126   -0.233858
     68          1           0       -6.774476    5.077641    0.229427
     69          1           0       -9.549997   -0.592138    0.739178
     70          1           0       -1.222921   -2.583208    0.258966
     71          1           0       -0.696646   -0.162984   -1.468279
     72          1           0        0.107132    0.300469    1.323958
     73          1           0        1.106994    0.151804   -0.027933
     74          1           0        0.696320   -1.349809    0.834118
     75          1           0       -1.140883   -1.948622   -2.643652
     76          1           0       -2.554816   -2.862042   -2.341184
     77          1           0       -0.492234   -3.883054   -3.080710
     78          1           0       -1.117554   -4.727501   -1.699154
     79          1           0       -1.126313    5.219689   -1.298202
     80          1           0       -0.508494    4.157713   -0.028574
     81          1           0       -1.126746    5.595771    0.456507
     82          1           0       -2.534775    7.483560    0.318493
     83          1           0       -3.580723    8.276795   -0.966779
     84          1           0       -2.544730    6.884389   -1.391254
     85          1           0       -9.065297    4.255460   -0.061900
     86          1           0      -10.058714    2.072171    1.685164
     87          1           0       -9.531124    5.253645    1.973374
     88          1           0       -7.892794    4.817511    2.285853
     89          1           0       -9.176371    3.651339    2.767897
     90          1           0       -9.864406    1.249630   -1.146472
     91          1           0      -10.729392    2.670352   -0.992371
     92          1           0      -11.720447    0.066439   -0.517155
     93          1           0      -12.617113    1.561863   -0.122095
     94          1           0      -11.666912    0.820264    1.083257
     95          1           0       -9.611836   -2.974631    1.203699
     96          1           0       -8.904165   -4.502452    0.878683
     97          1           0       -9.395485   -3.476887   -0.517960
     98          1           0       -3.897011   -4.304147   -1.113226
     99          1           0       -1.524798   -7.496729    0.394421
    100          1           0       -2.555152   -7.109900    1.859141
    101          1           0       -1.109670   -6.199962    1.380566
    102          1           0        3.450052   -3.869561   -1.253279
    103          1           0        2.789063   -3.003946    0.045536
    104          1           0        3.437232   -0.885270   -0.859823
    105          1           0        5.638882   -2.690642   -3.890226
    106          1           0        5.203622   -3.833763   -2.508682
    107          1           0        6.724930   -2.937877   -2.485565
    108          1           0        4.915814    0.400091   -2.429588
    109          1           0        6.072893   -0.516722   -3.353713
    110          1           0        6.895501   -0.922163   -0.650148
    111          1           0        6.392267    0.720310   -0.657252
    112          1           0        7.748681    1.135610   -2.692103
    113          1           0        8.231258   -0.488930   -2.799829
    114          1           0        8.826848    1.191755   -0.462760
    115          1           0       10.920690   -0.879525   -0.562225
    116          1           0        9.336753   -1.672501   -0.821160
    117          1           0        9.763327   -0.684306    0.602870
    118          1           0       10.077469    1.267829   -3.034192
    119          1           0       11.311165    0.823178   -1.896305
    120          1           0        9.572933    2.943799   -0.886668
    121          1           0        9.870889    3.469909   -2.414036
    122          1           0       11.566130    4.431822   -1.597755
    123          1           0       12.417623    2.905539   -1.967006
    124          1           0       11.087941    3.258025    0.852297
    125          1           0       12.284197    5.387128    0.549897
    126          1           0       13.709391    4.412492    0.160067
    127          1           0       13.108703    4.357975    1.776496
    128          1           0       13.836872    2.140243    0.712347
    129          1           0       12.743657    1.278994   -0.439562
    130          1           0       10.995486    0.982711    1.445893
    131          1           0       12.207700    1.622506    2.656989
    132          1           0       13.677102   -0.150706    1.688147
    133          1           0       12.102360   -0.987814    1.303622
    134          1           0       11.902294   -0.115721    4.050484
    135          1           0       14.523775   -1.356398    3.592608
    136          1           0       13.539968   -2.400007    4.513457
    137          1           0       13.830348   -0.825632    5.074399
    138          1           0       10.843718   -2.076629    2.285263
    139          1           0       10.579542   -1.584411    3.984096
    140          1           0       11.655102   -2.975828    3.605876
 ---------------------------------------------------------------------

 SCF Done:  E(RwB97XD) =  -3007.87014681     A.U. after   17 cycles

 Excitation energies and oscillator strengths:

 Excited State   1:      Singlet-A      1.6434 eV  754.43 nm  f=0.3693  <S**2>=0.000
     245 -> 248        0.17154
     246 -> 247        0.68513
     245 <- 248        0.11042
 This state for optimization and/or second-order correction.
 Total Energy, E(TD-HF/TD-DFT) =  -3007.80975239
 Copying the excited state density for this state as the 1-particle RhoCI density.

 Excited State   2:      Singlet-A      2.1837 eV  567.78 nm  f=0.0917  <S**2>=0.000
     245 -> 247        0.62910
     246 -> 248       -0.30389

 Excited State   3:      Singlet-A      3.4325 eV  361.21 nm  f=0.4700  <S**2>=0.000
     239 -> 247       -0.10049
     240 -> 247        0.12338
     242 -> 247        0.30809
     244 -> 247       -0.11621
     245 -> 247        0.23259
     246 -> 248        0.54161

 Excited State   4:      Singlet-A      3.6177 eV  342.72 nm  f=0.2785  <S**2>=0.000
     240 -> 247        0.35501
     240 -> 249        0.17427
     242 -> 247        0.30222
     243 -> 247       -0.12942
     244 -> 247       -0.24064
     245 -> 247       -0.18047
     246 -> 248       -0.28400

 Excited State   5:      Singlet-A      3.6965 eV  335.41 nm  f=0.0283  <S**2>=0.000
     239 -> 247        0.31420
     239 -> 249        0.13873
     240 -> 247        0.28965
     240 -> 249        0.16555
     242 -> 247       -0.12176
     243 -> 247        0.16038
     244 -> 247        0.38761

 The electronic state is 1-A.
 Alpha  occ. eigenvalues --  -46.95367 -19.31680 -19.30341 -19.26319 -19.24583
 Alpha  occ. eigenvalues --  -19.23462 -19.22989 -14.46297 -14.45985 -14.44377
 Alpha  occ. eigenvalues --  -14.43782 -10.44349 -10.41931 -10.38996 -10.37731
 Alpha  occ. eigenvalues --  -10.35968 -10.35144 -10.35119 -10.34967 -10.34646
 Alpha  occ. eigenvalues --  -10.34597 -10.34476 -10.34108 -10.33582 -10.33322
 Alpha  occ. eigenvalues --  -10.32717 -10.32413 -10.32068 -10.32005 -10.31895
 Alpha  occ. eigenvalues --  -10.31704 -10.31617 -10.31497 -10.31424 -10.31390
 Alpha  occ. eigenvalues --  -10.31082 -10.31047 -10.30805 -10.30702 -10.30657
 Alpha  occ. eigenvalues --  -10.30523 -10.30507 -10.30433 -10.30293 -10.30056
 Alpha  occ. eigenvalues --  -10.29989 -10.29989 -10.29935 -10.29873 -10.29759
 Alpha  occ. eigenvalues --  -10.29712 -10.29652 -10.29401 -10.29299 -10.29282
 Alpha  occ. eigenvalues --  -10.29261 -10.29006 -10.28999 -10.28974 -10.28815
 Alpha  occ. eigenvalues --  -10.28596 -10.28270 -10.28240 -10.28149 -10.28100
 Alpha  occ. eigenvalues --  -10.27655  -3.21267  -1.94844  -1.94386  -1.94237
 Alpha  occ. eigenvalues --   -1.19031  -1.18563  -1.14712  -1.11873  -1.11687
 Alpha  occ. eigenvalues --   -1.09643  -1.05757  -1.05097  -1.04224  -1.03675
 Alpha  occ. eigenvalues --   -0.94421  -0.92729  -0.92204  -0.91336  -0.91004
 Alpha  occ. eigenvalues --   -0.90361  -0.89928  -0.89512  -0.88836  -0.88676
 Alpha  occ. eigenvalues --   -0.87764  -0.87591  -0.86352  -0.85429  -0.84806
 Alpha  occ. eigenvalues --   -0.84586  -0.83968  -0.83293  -0.82561  -0.82099
 Alpha  occ. eigenvalues --   -0.81828  -0.80389  -0.79791  -0.78773  -0.78178
 Alpha  occ. eigenvalues --   -0.77750  -0.77137  -0.76875  -0.76611  -0.75772
 Alpha  occ. eigenvalues --   -0.75339  -0.74438  -0.73136  -0.72551  -0.70869
 Alpha  occ. eigenvalues --   -0.70306  -0.70139  -0.69304  -0.68871  -0.67805
 Alpha  occ. eigenvalues --   -0.67220  -0.67170  -0.66758  -0.66400  -0.66252
 Alpha  occ. eigenvalues --   -0.65886  -0.65394  -0.64602  -0.63703  -0.62373
 Alpha  occ. eigenvalues --   -0.62049  -0.61219  -0.60978  -0.60344  -0.59528
 Alpha  occ. eigenvalues --   -0.58995  -0.58854  -0.58625  -0.58416  -0.57459
 Alpha  occ. eigenvalues --   -0.57234  -0.57056  -0.56734  -0.56075  -0.55874
 Alpha  occ. eigenvalues --   -0.55450  -0.55293  -0.55038  -0.54904  -0.54784
 Alpha  occ. eigenvalues --   -0.54449  -0.54211  -0.53974  -0.53753  -0.53622
 Alpha  occ. eigenvalues --   -0.53399  -0.53184  -0.53140  -0.52883  -0.52669
 Alpha  occ. eigenvalues --   -0.52564  -0.52476  -0.52107  -0.51958  -0.51857
 Alpha  occ. eigenvalues --   -0.51705  -0.51352  -0.50956  -0.50796  -0.50710
 Alpha  occ. eigenvalues --   -0.50455  -0.50304  -0.49958  -0.49716  -0.49483
 Alpha  occ. eigenvalues --   -0.49311  -0.49270  -0.49098  -0.48967  -0.48439
 Alpha  occ. eigenvalues --   -0.48218  -0.47988  -0.47878  -0.47723  -0.47679
 Alpha  occ. eigenvalues --   -0.47411  -0.47278  -0.47079  -0.46920  -0.46541
 Alpha  occ. eigenvalues --   -0.46472  -0.46425  -0.46265  -0.46088  -0.45781
 Alpha  occ. eigenvalues --   -0.45716  -0.45505  -0.45414  -0.45298  -0.45222
 Alpha  occ. eigenvalues --   -0.45030  -0.44751  -0.44456  -0.44405  -0.44300
 Alpha  occ. eigenvalues --   -0.44047  -0.43606  -0.43492  -0.43446  -0.43004
 Alpha  occ. eigenvalues --   -0.42892  -0.42801  -0.42468  -0.42379  -0.41685
 Alpha  occ. eigenvalues --   -0.41563  -0.41320  -0.41280  -0.40985  -0.40910
 Alpha  occ. eigenvalues --   -0.40511  -0.40441  -0.40005  -0.39580  -0.39504
 Alpha  occ. eigenvalues --   -0.39295  -0.39087  -0.38607  -0.38444  -0.38191
 Alpha  occ. eigenvalues --   -0.38110  -0.37840  -0.37137  -0.36055  -0.36044
 Alpha  occ. eigenvalues --   -0.35636  -0.35428  -0.34149  -0.33555  -0.32926
 Alpha  occ. eigenvalues --   -0.32673  -0.32407  -0.32040  -0.31886  -0.25561
 Alpha  occ. eigenvalues --   -0.22220
 Alpha virt. eigenvalues --   -0.06432   0.00533   0.02921   0.04913   0.05522
 Alpha virt. eigenvalues --    0.05884   0.06436   0.08325   0.09147   0.10419
 Alpha virt. eigenvalues --    0.10721   0.11356   0.11734   0.12024   0.12533

 Mulliken charges:
               1
     1  Mg   0.958052
     2  C    0.007167
     3  C   -0.084968
     4  C   -0.095297
     5  C   -0.073213
     6  N   -0.322398
     7  C   -0.024935
     8  C   -0.043039
     9  C   -0.081545
    10  C    0.005421
    11  C    0.012780
    12  C    0.039994
    13  C    0.014719
    14  C    0.215272
    15  O   -0.257527
    16  O   -0.353259
    17  N   -0.503029
    18  C    0.232346
    19  C   -0.153392
    20  C   -0.067345
    21  C    0.220222
    22  C    0.055366
    23  C    0.023205
    24  O   -0.192491
    25  C   -0.022961
    26  N   -0.397568
    27  C    0.007882
    28  C   -0.084607
    29  C   -0.073790
    30  C    0.109680
    31  C    0.021143
    32  C   -0.015845
    33  C   -0.048396
    34  N   -0.380313
    35  C    0.072792
    36  C   -0.244193
    37  C   -0.000891
    38  C    0.081608
    39  C    0.073957
    40  C    0.126482
    41  O   -0.196724
    42  C   -0.068454
    43  C    0.221903
    44  O   -0.246169
    45  O   -0.342567
    46  C    0.142117
    47  C    0.246665
    48  C   -0.141517
    49  C   -0.202902
    50  C    0.046552
    51  C    0.032693
    52  C    0.011305
    53  C   -0.084966
    54  C   -0.157480
    55  C   -0.006423
    56  C    0.037715
    57  C   -0.041084
    58  C    0.012143
    59  C   -0.168347
    60  C   -0.015065
    61  C    0.003925
    62  C   -0.064538
    63  C    0.064464
    64  C   -0.229195
    65  C   -0.012781
    66  C   -0.017968
    67  H   -0.018919
    68  H    0.021088
    69  H   -0.011351
    70  H    0.059983
    71  H    0.042683
    72  H    0.044268
    73  H    0.034112
    74  H    0.056108
    75  H    0.027211
    76  H    0.049446
    77  H    0.043959
    78  H    0.056520
    79  H    0.063197
    80  H    0.032847
    81  H    0.044355
    82  H    0.071643
    83  H    0.049973
    84  H    0.037237
    85  H    0.039769
    86  H    0.036070
    87  H    0.043994
    88  H    0.048876
    89  H    0.032945
    90  H    0.031116
    91  H    0.024527
    92  H    0.045683
    93  H    0.039936
    94  H    0.032813
    95  H    0.036543
    96  H    0.056557
    97  H    0.052564
    98  H    0.061104
    99  H    0.052620
   100  H    0.073068
   101  H    0.054928
   102  H    0.021454
   103  H    0.043872
   104  H    0.020553
   105  H    0.058558
   106  H    0.030943
   107  H    0.053520
   108  H    0.030181
   109  H    0.017259
   110  H    0.018566
   111  H    0.025942
   112  H    0.020829
   113  H    0.010416
   114  H    0.016932
   115  H    0.036609
   116  H    0.033875
   117  H    0.033125
   118  H    0.015311
   119  H    0.011349
   120  H   -0.003486
   121  H    0.012178
   122  H    0.011878
   123  H    0.028603
   124  H    0.024576
   125  H    0.034374
   126  H    0.016597
   127  H    0.026371
   128  H    0.028698
   129  H    0.011428
   130  H    0.021443
   131  H    0.030159
   132  H    0.021625
   133  H   -0.001335
   134  H    0.029264
   135  H    0.019995
   136  H    0.020044
   137  H    0.024758
   138  H    0.028450
   139  H    0.028556
   140  H    0.038660
 Sum of Mulliken charges =  -0.00000

 Dipole moment (field-independent basis, Debye):
    X=              5.0058    Y=              3.9061    Z=             -4.0733  Tot=              7.5437
 Quadrupole moment (field-independent basis, Debye-Ang):
   XX=           -380.0194   YY=           -425.8187   ZZ=           -401.9370
   XY=            -20.2291   XZ=              6.4363   YZ=              9.4816

 Normal termination of Gaussian 16 at Wed May  4 06:22:49 2022.
