 Gaussian 16, Revision A.03,
 Gaussian 16:  ES64L-G16RevA.03 25-Dec-2016

 --------------------
 #p ZINDO=(nstates=5)
 --------------------

 -----------------------------
 step_1401_chromophore_3 ZINDO
 -----------------------------
 Symbolic Z-matrix:
 Charge =  0 Multiplicity = 1

                         Standard orientation:
 ---------------------------------------------------------------------
 Center     Atomic      Atomic             Coordinates (Angstroms)
 Number     Number       Type             X           Y           Z
 ---------------------------------------------------------------------
      1         12           0       -5.282971    0.929762    0.096915
      2          6           0       -4.108984   -2.506908   -0.003591
      3          6           0       -1.971648    1.850797   -0.116899
      4          6           0       -6.275340    4.107916    0.277298
      5          6           0       -8.521604   -0.227455    0.708144
      6          7           0       -3.205819   -0.249453    0.114819
      7          6           0       -2.972907   -1.660650   -0.040505
      8          6           0       -1.558989   -1.919402   -0.537459
      9          6           0       -0.920601   -0.531539   -0.467574
     10          6           0       -2.083678    0.434658   -0.113928
     11          6           0        0.319075   -0.382737    0.501367
     12          6           0       -1.581264   -2.626805   -1.911772
     13          6           0       -0.649357   -3.792319   -2.005259
     14          6           0        0.648756   -3.799377   -1.203499
     15          8           0        0.734422   -4.524550   -0.220518
     16          8           0        1.608123   -2.923524   -1.727441
     17          7           0       -4.315737    2.715208    0.050173
     18          6           0       -2.941015    2.896023   -0.010091
     19          6           0       -2.684341    4.317820   -0.167243
     20          6           0       -3.919163    5.014911   -0.157777
     21          6           0       -4.930027    3.938967    0.131455
     22          6           0       -1.320376    4.833456   -0.297545
     23          6           0       -4.323148    6.423505   -0.350970
     24          8           0       -5.421369    6.851931   -0.204116
     25          6           0       -3.115828    7.362453   -0.595571
     26          7           0       -7.096449    1.828052    0.721778
     27          6           0       -7.310437    3.179417    0.507379
     28          6           0       -8.790727    3.560699    0.733159
     29          6           0       -9.468730    2.149511    0.771166
     30          6           0       -8.299850    1.151267    0.752360
     31          6           0       -8.864516    4.393067    2.032417
     32          6           0      -10.460225    1.789065   -0.410450
     33          6           0      -11.680933    1.018430    0.011649
     34          7           0       -6.182060   -0.966792    0.334459
     35          6           0       -7.466555   -1.271021    0.554753
     36          6           0       -7.681085   -2.761898    0.396563
     37          6           0       -6.422276   -3.223781    0.264154
     38          6           0       -5.509921   -2.119970    0.242612
     39          6           0       -8.971701   -3.488565    0.486189
     40          6           0       -5.582837   -4.417648    0.153970
     41          8           0       -5.904770   -5.584821    0.147446
     42          6           0       -4.169565   -3.952891   -0.117237
     43          6           0       -3.267100   -4.732363    0.807523
     44          8           0       -3.180599   -4.463531    1.986888
     45          8           0       -2.696288   -5.746532    0.147579
     46          6           0       -1.989223   -6.726078    1.009928
     47          6           0        2.862646   -2.976199   -1.042408
     48          6           0        3.750833   -1.788047   -1.385108
     49          6           0        4.900437   -1.771317   -2.146174
     50          6           0        5.689692   -2.910534   -2.824414
     51          6           0        5.615171   -0.433968   -2.367496
     52          6           0        6.653762   -0.101842   -1.324101
     53          6           0        7.978024    0.274655   -2.064250
     54          6           0        9.273974    0.503740   -1.180877
     55          6           0        9.839978   -0.767572   -0.481670
     56          6           0       10.330386    1.293534   -1.973820
     57          6           0       10.316076    2.806463   -1.673082
     58          6           0       11.702526    3.391522   -1.303575
     59          6           0       11.975748    3.221200    0.221386
     60          6           0       12.785183    4.438366    0.738662
     61          6           0       12.816702    1.817321    0.504992
     62          6           0       12.045795    1.086525    1.721245
     63          6           0       12.624092   -0.273634    1.940040
     64          6           0       12.361170   -0.831992    3.368277
     65          6           0       13.594082   -1.370317    4.160984
     66          6           0       11.293797   -2.001153    3.274893
     67          1           0       -0.914428    2.094126   -0.233858
     68          1           0       -6.774476    5.077641    0.229427
     69          1           0       -9.549997   -0.592138    0.739178
     70          1           0       -1.222921   -2.583208    0.258966
     71          1           0       -0.696646   -0.162984   -1.468279
     72          1           0        0.107132    0.300469    1.323958
     73          1           0        1.106994    0.151804   -0.027933
     74          1           0        0.696320   -1.349809    0.834118
     75          1           0       -1.140883   -1.948622   -2.643652
     76          1           0       -2.554816   -2.862042   -2.341184
     77          1           0       -0.492234   -3.883054   -3.080710
     78          1           0       -1.117554   -4.727501   -1.699154
     79          1           0       -1.126313    5.219689   -1.298202
     80          1           0       -0.508494    4.157713   -0.028574
     81          1           0       -1.126746    5.595771    0.456507
     82          1           0       -2.534775    7.483560    0.318493
     83          1           0       -3.580723    8.276795   -0.966779
     84          1           0       -2.544730    6.884389   -1.391254
     85          1           0       -9.065297    4.255460   -0.061900
     86          1           0      -10.058714    2.072171    1.685164
     87          1           0       -9.531124    5.253645    1.973374
     88          1           0       -7.892794    4.817511    2.285853
     89          1           0       -9.176371    3.651339    2.767897
     90          1           0       -9.864406    1.249630   -1.146472
     91          1           0      -10.729392    2.670352   -0.992371
     92          1           0      -11.720447    0.066439   -0.517155
     93          1           0      -12.617113    1.561863   -0.122095
     94          1           0      -11.666912    0.820264    1.083257
     95          1           0       -9.611836   -2.974631    1.203699
     96          1           0       -8.904165   -4.502452    0.878683
     97          1           0       -9.395485   -3.476887   -0.517960
     98          1           0       -3.897011   -4.304147   -1.113226
     99          1           0       -1.524798   -7.496729    0.394421
    100          1           0       -2.555152   -7.109900    1.859141
    101          1           0       -1.109670   -6.199962    1.380566
    102          1           0        3.450052   -3.869561   -1.253279
    103          1           0        2.789063   -3.003946    0.045536
    104          1           0        3.437232   -0.885270   -0.859823
    105          1           0        5.638882   -2.690642   -3.890226
    106          1           0        5.203622   -3.833763   -2.508682
    107          1           0        6.724930   -2.937877   -2.485565
    108          1           0        4.915814    0.400091   -2.429588
    109          1           0        6.072893   -0.516722   -3.353713
    110          1           0        6.895501   -0.922163   -0.650148
    111          1           0        6.392267    0.720310   -0.657252
    112          1           0        7.748681    1.135610   -2.692103
    113          1           0        8.231258   -0.488930   -2.799829
    114          1           0        8.826848    1.191755   -0.462760
    115          1           0       10.920690   -0.879525   -0.562225
    116          1           0        9.336753   -1.672501   -0.821160
    117          1           0        9.763327   -0.684306    0.602870
    118          1           0       10.077469    1.267829   -3.034192
    119          1           0       11.311165    0.823178   -1.896305
    120          1           0        9.572933    2.943799   -0.886668
    121          1           0        9.870889    3.469909   -2.414036
    122          1           0       11.566130    4.431822   -1.597755
    123          1           0       12.417623    2.905539   -1.967006
    124          1           0       11.087941    3.258025    0.852297
    125          1           0       12.284197    5.387128    0.549897
    126          1           0       13.709391    4.412492    0.160067
    127          1           0       13.108703    4.357975    1.776496
    128          1           0       13.836872    2.140243    0.712347
    129          1           0       12.743657    1.278994   -0.439562
    130          1           0       10.995486    0.982711    1.445893
    131          1           0       12.207700    1.622506    2.656989
    132          1           0       13.677102   -0.150706    1.688147
    133          1           0       12.102360   -0.987814    1.303622
    134          1           0       11.902294   -0.115721    4.050484
    135          1           0       14.523775   -1.356398    3.592608
    136          1           0       13.539968   -2.400007    4.513457
    137          1           0       13.830348   -0.825632    5.074399
    138          1           0       10.843718   -2.076629    2.285263
    139          1           0       10.579542   -1.584411    3.984096
    140          1           0       11.655102   -2.975828    3.605876
 ---------------------------------------------------------------------

 SCF Done:  E(RZINDO/S) =  -474.269892813     A.U. after   19 cycles

 Excitation energies and oscillator strengths:

 Excited State   1:      Singlet-A      1.2523 eV  990.09 nm  f=0.5237  <S**2>=0.000
     175 ->178         0.15401
     176 ->177         0.67233
 This state for optimization and/or second-order correction.
 Total Energy, E(CIS/TDA) =  -474.223873185
 Copying the excited state density for this state as the 1-particle RhoCI density.

 Excited State   2:      Singlet-A      1.9056 eV  650.64 nm  f=0.0200  <S**2>=0.000
     175 ->177         0.52652
     176 ->178        -0.43149

 Excited State   3:      Singlet-A      2.9015 eV  427.30 nm  f=0.6361  <S**2>=0.000
     168 ->177         0.13548
     168 ->179        -0.16273
     169 ->177         0.16913
     175 ->177         0.32508
     176 ->178         0.45883
     176 ->179         0.17304

 Excited State   4:      Singlet-A      2.9511 eV  420.13 nm  f=0.4057  <S**2>=0.000
     168 ->179        -0.11230
     175 ->177        -0.22055
     176 ->178        -0.16379
     176 ->179         0.51932
     176 ->181         0.27672

 Excited State   5:      Singlet-A      2.9826 eV  415.69 nm  f=0.1121  <S**2>=0.000
     168 ->177         0.28361
     168 ->178        -0.15558
     168 ->179        -0.32071
     168 ->181         0.16912
     168 ->186        -0.16593
     175 ->177        -0.11682
     176 ->178        -0.20061
     176 ->179        -0.25009
     176 ->181        -0.11935

 The electronic state is 1-A.
 Alpha  occ. eigenvalues --   -1.82748  -1.80739  -1.78460  -1.73111  -1.72780
 Alpha  occ. eigenvalues --   -1.69775  -1.65512  -1.61704  -1.59445  -1.58886
 Alpha  occ. eigenvalues --   -1.55534  -1.52225  -1.48503  -1.48134  -1.47481
 Alpha  occ. eigenvalues --   -1.45017  -1.42905  -1.41709  -1.39603  -1.37740
 Alpha  occ. eigenvalues --   -1.35583  -1.33809  -1.32770  -1.32651  -1.28153
 Alpha  occ. eigenvalues --   -1.27380  -1.24549  -1.22676  -1.20893  -1.18110
 Alpha  occ. eigenvalues --   -1.16649  -1.15779  -1.15198  -1.14310  -1.12199
 Alpha  occ. eigenvalues --   -1.11536  -1.11067  -1.10441  -1.04122  -1.03400
 Alpha  occ. eigenvalues --   -1.01558  -1.01369  -0.98013  -0.97665  -0.97211
 Alpha  occ. eigenvalues --   -0.95682  -0.95124  -0.94026  -0.92408  -0.91913
 Alpha  occ. eigenvalues --   -0.91022  -0.90601  -0.88981  -0.88556  -0.87274
 Alpha  occ. eigenvalues --   -0.86027  -0.85036  -0.83488  -0.82155  -0.80397
 Alpha  occ. eigenvalues --   -0.79869  -0.78663  -0.77912  -0.76690  -0.76641
 Alpha  occ. eigenvalues --   -0.75993  -0.75338  -0.74654  -0.73852  -0.73081
 Alpha  occ. eigenvalues --   -0.72880  -0.72440  -0.72159  -0.70921  -0.70348
 Alpha  occ. eigenvalues --   -0.69817  -0.69515  -0.68657  -0.68582  -0.68101
 Alpha  occ. eigenvalues --   -0.67763  -0.67274  -0.66657  -0.65866  -0.65572
 Alpha  occ. eigenvalues --   -0.65460  -0.64696  -0.64042  -0.63590  -0.63084
 Alpha  occ. eigenvalues --   -0.63027  -0.62524  -0.62515  -0.62292  -0.62004
 Alpha  occ. eigenvalues --   -0.61880  -0.61435  -0.60559  -0.60295  -0.60134
 Alpha  occ. eigenvalues --   -0.59295  -0.59076  -0.58850  -0.58277  -0.58257
 Alpha  occ. eigenvalues --   -0.57995  -0.57749  -0.56976  -0.56875  -0.56447
 Alpha  occ. eigenvalues --   -0.55933  -0.55301  -0.55197  -0.54822  -0.54503
 Alpha  occ. eigenvalues --   -0.54153  -0.53986  -0.53648  -0.53211  -0.52567
 Alpha  occ. eigenvalues --   -0.52343  -0.52118  -0.51899  -0.51432  -0.51281
 Alpha  occ. eigenvalues --   -0.51130  -0.50895  -0.50783  -0.50676  -0.50148
 Alpha  occ. eigenvalues --   -0.50054  -0.49653  -0.49490  -0.48867  -0.48783
 Alpha  occ. eigenvalues --   -0.48595  -0.48259  -0.47992  -0.47712  -0.47563
 Alpha  occ. eigenvalues --   -0.47259  -0.47059  -0.46959  -0.46675  -0.46358
 Alpha  occ. eigenvalues --   -0.46075  -0.45954  -0.45684  -0.45671  -0.45312
 Alpha  occ. eigenvalues --   -0.45280  -0.45041  -0.44775  -0.44517  -0.44225
 Alpha  occ. eigenvalues --   -0.43772  -0.43498  -0.42650  -0.42091  -0.42043
 Alpha  occ. eigenvalues --   -0.41680  -0.41535  -0.40543  -0.39347  -0.38173
 Alpha  occ. eigenvalues --   -0.37125  -0.36706  -0.35890  -0.33899  -0.33704
 Alpha  occ. eigenvalues --   -0.33403  -0.32738  -0.31849  -0.31758  -0.26352
 Alpha  occ. eigenvalues --   -0.21048
 Alpha virt. eigenvalues --   -0.07848  -0.01652  -0.00241   0.01294   0.01964
 Alpha virt. eigenvalues --    0.02443   0.03286   0.03758   0.04270   0.05114
 Alpha virt. eigenvalues --    0.06674   0.06820   0.07426   0.07951   0.08292

 Mulliken charges:
               1
     1  Mg   0.432551
     2  C   -0.015275
     3  C   -0.090445
     4  C   -0.078982
     5  C   -0.084389
     6  N   -0.294303
     7  C    0.051722
     8  C    0.017320
     9  C    0.013061
    10  C    0.166092
    11  C   -0.050809
    12  C   -0.013272
    13  C    0.003701
    14  C    0.469287
    15  O   -0.503755
    16  O   -0.259223
    17  N   -0.338720
    18  C    0.127502
    19  C    0.050189
    20  C   -0.054067
    21  C    0.161355
    22  C   -0.040073
    23  C    0.334029
    24  O   -0.497430
    25  C   -0.042752
    26  N   -0.288749
    27  C    0.175973
    28  C    0.006580
    29  C    0.002924
    30  C    0.097445
    31  C   -0.051130
    32  C   -0.028466
    33  C   -0.050950
    34  N   -0.270808
    35  C    0.053349
    36  C    0.006875
    37  C   -0.050060
    38  C    0.055787
    39  C   -0.035079
    40  C    0.341164
    41  O   -0.526484
    42  C    0.064567
    43  C    0.493289
    44  O   -0.528700
    45  O   -0.257711
    46  C    0.071104
    47  C    0.104331
    48  C   -0.103196
    49  C   -0.004814
    50  C   -0.039466
    51  C   -0.018149
    52  C   -0.025639
    53  C   -0.041824
    54  C   -0.016910
    55  C   -0.058673
    56  C   -0.031999
    57  C   -0.045417
    58  C   -0.032212
    59  C   -0.027843
    60  C   -0.062653
    61  C   -0.054853
    62  C   -0.036198
    63  C   -0.035931
    64  C   -0.016814
    65  C   -0.062035
    66  C   -0.070293
    67  H    0.021063
    68  H    0.040670
    69  H    0.032455
    70  H    0.049665
    71  H    0.029939
    72  H    0.026952
    73  H    0.013619
    74  H    0.037063
    75  H    0.011719
    76  H    0.036436
    77  H    0.027354
    78  H    0.037383
    79  H    0.036850
    80  H    0.022781
    81  H    0.025898
    82  H    0.048599
    83  H    0.037120
    84  H    0.031022
    85  H    0.035626
    86  H    0.032261
    87  H    0.023959
    88  H    0.028206
    89  H    0.026039
    90  H    0.020004
    91  H    0.012529
    92  H    0.022428
    93  H    0.018027
    94  H    0.017766
    95  H    0.019410
    96  H    0.033246
    97  H    0.032482
    98  H    0.047367
    99  H    0.032555
   100  H    0.058944
   101  H    0.038104
   102  H    0.038194
   103  H    0.045738
   104  H    0.029067
   105  H    0.036906
   106  H    0.023909
   107  H    0.034124
   108  H    0.017639
   109  H    0.019430
   110  H    0.019682
   111  H    0.021433
   112  H    0.015088
   113  H    0.011077
   114  H    0.019496
   115  H    0.021526
   116  H    0.022890
   117  H    0.017646
   118  H    0.011160
   119  H    0.025799
   120  H    0.012115
   121  H    0.014280
   122  H    0.014794
   123  H    0.028523
   124  H    0.026804
   125  H    0.019212
   126  H    0.009564
   127  H    0.016451
   128  H    0.033156
   129  H    0.030134
   130  H    0.027366
   131  H    0.027246
   132  H    0.023107
   133  H    0.025100
   134  H    0.023560
   135  H    0.012248
   136  H    0.017312
   137  H    0.013795
   138  H    0.022318
   139  H    0.016014
   140  H    0.026903
 Sum of Mulliken charges =  -0.00000

 Dipole moment (field-independent basis, Debye):
    X=              7.3895    Y=              7.9053    Z=             -6.7448  Tot=             12.7511
 N-N= 4.330785259715D+03 E-N= 0.000000000000D+00  KE=-9.336150078923D+03
 Leave Link  601 at Wed May  4 06:34:24 2022, MaxMem=  6710886400 cpu:               0.8 elap:               0.0
 (Enter /sw/apps/gaussian-16.0/g16/l9999.exe)
 1\1\GINC-BP1-COMPUTE100\SP\RZINDO CIS\STO-3G\C55H74Mg1N4O6\OF15641\04-
 May-2022\0\\#p ZINDO=(nstates=5)\\step_1401_chromophore_3 ZINDO\\0,1\M
 g,0,1.698,7.465,26.629\C,0,2.277,9.747,29.396\C,0,1.849,4.931,28.956\C
 ,0,1.262,5.301,24.13\C,0,1.981,10.142,24.403\N,0,2.198,7.353,28.962\C,
 0,2.287,8.428,29.914\C,0,2.05,7.915,31.326\C,0,2.011,6.399,31.129\C,0,
 2.042,6.187,29.591\C,0,3.122,5.569,31.887\C,0,0.806,8.586,31.952\C,0,1
 .024,9.078,33.347\C,0,2.003,8.356,34.268\O,0,3.083,8.879,34.512\O,0,1.

 Normal termination of Gaussian 16 at Wed May  4 06:34:24 2022.
