 Gaussian 16, Revision A.03,
 Gaussian 16:  ES64L-G16RevA.03 25-Dec-2016

 ------------------------------
 #p blyp/Def2SVP td=(nstates=5)
 ------------------------------

 ---------------------------------------------------
 step_1601_chromophore_22 TDDFT with blyp functional
 ---------------------------------------------------
 Symbolic Z-matrix:
 Charge =  0 Multiplicity = 1

                         Standard orientation:
 ---------------------------------------------------------------------
 Center     Atomic      Atomic             Coordinates (Angstroms)
 Number     Number       Type             X           Y           Z
 ---------------------------------------------------------------------
      1         12           0       -5.878307    0.419700    0.187340
      2          6           0       -3.357113   -1.886849    0.266320
      3          6           0       -3.810461    2.500457    1.888656
      4          6           0       -8.260817    2.732075   -0.159590
      5          6           0       -8.214715   -2.065882   -0.487858
      6          7           0       -3.897377    0.257617    1.029995
      7          6           0       -2.975198   -0.727165    0.873807
      8          6           0       -1.573752   -0.433525    1.468475
      9          6           0       -1.896656    0.860432    2.239483
     10          6           0       -3.309695    1.249287    1.752980
     11          6           0       -1.772227    0.721645    3.822404
     12          6           0       -0.427396   -0.294301    0.462104
     13          6           0        0.935928   -0.875315    0.914454
     14          6           0        1.864108   -1.279957   -0.237314
     15          8           0        1.811573   -0.989967   -1.415509
     16          8           0        2.919273   -2.081854    0.212492
     17          7           0       -6.004925    2.345536    0.768309
     18          6           0       -5.081363    3.095416    1.462320
     19          6           0       -5.438184    4.498778    1.411184
     20          6           0       -6.786460    4.613537    0.944739
     21          6           0       -7.118597    3.249762    0.539697
     22          6           0       -4.457993    5.616742    1.842353
     23          6           0       -7.650711    5.841637    0.589950
     24          8           0       -8.690362    5.816696   -0.031734
     25          6           0       -7.088654    7.262527    1.122837
     26          7           0       -7.974893    0.335955   -0.321036
     27          6           0       -8.712613    1.460218   -0.467716
     28          6           0      -10.010280    1.213199   -1.160234
     29          6           0      -10.187835   -0.342762   -0.931049
     30          6           0       -8.720712   -0.775129   -0.560160
     31          6           0      -11.288497    2.062752   -0.728229
     32          6           0      -10.772364   -0.936311   -2.196003
     33          6           0      -11.100504   -2.486643   -2.246240
     34          7           0       -5.851828   -1.519347   -0.149377
     35          6           0       -6.895470   -2.438390   -0.381497
     36          6           0       -6.346555   -3.825810   -0.548772
     37          6           0       -4.936479   -3.613532   -0.380090
     38          6           0       -4.695269   -2.185941   -0.130586
     39          6           0       -7.026877   -5.158982   -0.953656
     40          6           0       -3.670743   -4.305502   -0.288819
     41          8           0       -3.395131   -5.456415   -0.426652
     42          6           0       -2.625177   -3.179593    0.007930
     43          6           0       -1.672858   -3.205513   -1.156419
     44          8           0       -1.835007   -2.701773   -2.248516
     45          8           0       -0.515659   -3.912187   -0.868522
     46          6           0        0.522881   -3.888395   -1.928082
     47          6           0        3.949565   -2.478104   -0.737750
     48          6           0        5.257361   -2.099373   -0.134947
     49          6           0        6.293077   -2.798623    0.343270
     50          6           0        6.340234   -4.283624    0.335984
     51          6           0        7.709377   -2.220532    0.402991
     52          6           0        8.390292   -2.517883    1.728323
     53          6           0        9.049090   -1.413118    2.586085
     54          6           0       10.538789   -1.378149    2.807533
     55          6           0       10.865482   -1.714222    4.277045
     56          6           0       11.166687    0.024669    2.484291
     57          6           0       11.328071    0.254598    0.974242
     58          6           0       12.788086    0.045554    0.488987
     59          6           0       13.370268    1.323054   -0.293078
     60          6           0       14.837387    1.485670    0.157196
     61          6           0       13.249134    1.253832   -1.784391
     62          6           0       12.927064    2.686233   -2.422375
     63          6           0       11.344707    2.955975   -2.597183
     64          6           0       10.958917    4.020859   -3.589031
     65          6           0       11.819626    5.297871   -3.522432
     66          6           0        9.444503    4.250728   -3.521495
     67          1           0       -3.035722    3.126792    2.335897
     68          1           0       -8.972019    3.496053   -0.478273
     69          1           0       -8.880704   -2.920412   -0.625261
     70          1           0       -1.348188   -1.194194    2.216076
     71          1           0       -1.305082    1.714287    1.910229
     72          1           0       -2.428870    1.345283    4.430259
     73          1           0       -0.721473    0.884775    4.062835
     74          1           0       -2.073099   -0.297866    4.061557
     75          1           0       -0.317853    0.750298    0.170488
     76          1           0       -0.694308   -0.774316   -0.478343
     77          1           0        0.800617   -1.590171    1.727049
     78          1           0        1.416432   -0.001311    1.354501
     79          1           0       -3.555636    5.181263    2.270476
     80          1           0       -4.900146    6.195572    2.652986
     81          1           0       -4.219634    6.272325    1.005067
     82          1           0       -6.166930    7.487138    0.585203
     83          1           0       -6.966258    7.210755    2.204565
     84          1           0       -7.791528    8.079472    0.959132
     85          1           0       -9.896154    1.486128   -2.209050
     86          1           0      -10.789677   -0.479466   -0.032809
     87          1           0      -10.990611    2.845990   -0.031763
     88          1           0      -12.046247    1.414276   -0.288762
     89          1           0      -11.664080    2.574188   -1.614073
     90          1           0      -10.153561   -0.640688   -3.042879
     91          1           0      -11.727007   -0.419425   -2.296121
     92          1           0      -10.936849   -2.851098   -1.231927
     93          1           0      -10.351607   -2.876603   -2.936354
     94          1           0      -12.101689   -2.768508   -2.569946
     95          1           0       -6.548984   -5.395029   -1.904610
     96          1           0       -8.099733   -5.096838   -1.136382
     97          1           0       -6.856725   -5.916978   -0.189796
     98          1           0       -2.174464   -3.571416    0.920429
     99          1           0        1.479734   -3.896000   -1.406029
    100          1           0        0.621713   -2.938852   -2.454048
    101          1           0        0.288937   -4.662413   -2.659881
    102          1           0        3.859940   -2.075605   -1.746930
    103          1           0        3.886672   -3.557629   -0.880322
    104          1           0        5.502725   -1.069479   -0.394495
    105          1           0        6.337846   -4.567419   -0.716555
    106          1           0        5.464571   -4.645093    0.875098
    107          1           0        7.221674   -4.716950    0.807475
    108          1           0        7.730011   -1.137780    0.280163
    109          1           0        8.329410   -2.726104   -0.335629
    110          1           0        9.204114   -3.158584    1.389364
    111          1           0        7.766054   -3.060029    2.438398
    112          1           0        8.639376   -1.609990    3.576822
    113          1           0        8.804768   -0.424440    2.197240
    114          1           0       10.977265   -2.142275    2.165873
    115          1           0       10.362418   -2.631682    4.583572
    116          1           0       10.608922   -0.999718    5.059663
    117          1           0       11.916164   -1.936031    4.464381
    118          1           0       12.155213    0.032405    2.944720
    119          1           0       10.523376    0.726279    3.014555
    120          1           0       10.980288    1.250926    0.701919
    121          1           0       10.642467   -0.415097    0.456832
    122          1           0       12.771376   -0.810161   -0.186066
    123          1           0       13.457981   -0.273953    1.286912
    124          1           0       12.832514    2.202366    0.060752
    125          1           0       14.859510    2.471899    0.620510
    126          1           0       15.408541    1.658556   -0.755014
    127          1           0       15.223805    0.709609    0.817241
    128          1           0       12.494689    0.500584   -2.010555
    129          1           0       14.178766    0.806117   -2.135251
    130          1           0       13.478688    2.697902   -3.363209
    131          1           0       13.255812    3.424387   -1.690569
    132          1           0       11.006404    3.173848   -1.584754
    133          1           0       10.943623    1.997906   -2.930555
    134          1           0       11.179831    3.609371   -4.573619
    135          1           0       11.266240    6.235957   -3.487072
    136          1           0       12.309430    5.337228   -4.495772
    137          1           0       12.372134    5.320783   -2.582786
    138          1           0        8.947473    4.516037   -4.455056
    139          1           0        9.234715    5.076275   -2.841711
    140          1           0        8.847485    3.455560   -3.075664
 ---------------------------------------------------------------------

 SCF Done:  E(RB-LYP) =  -3007.39211350     A.U. after   20 cycles

 Excitation energies and oscillator strengths:

 Excited State   1:      Singlet-A      1.8053 eV  686.79 nm  f=0.2946  <S**2>=0.000
     245 -> 248        0.17584
     246 -> 247        0.68878
     246 <- 247       -0.15320
 This state for optimization and/or second-order correction.
 Total Energy, E(TD-HF/TD-DFT) =  -3007.32577123
 Copying the excited state density for this state as the 1-particle RhoCI density.

 Excited State   2:      Singlet-A      1.9318 eV  641.80 nm  f=0.0527  <S**2>=0.000
     244 -> 247        0.44887
     245 -> 247        0.51674
     246 -> 248       -0.13254

 Excited State   3:      Singlet-A      2.0673 eV  599.74 nm  f=0.0434  <S**2>=0.000
     243 -> 247       -0.19824
     244 -> 247        0.52629
     245 -> 247       -0.38367
     246 -> 248        0.15580

 Excited State   4:      Singlet-A      2.1145 eV  586.35 nm  f=0.0065  <S**2>=0.000
     243 -> 247        0.67612
     244 -> 247        0.12262
     245 -> 247       -0.14325

 Excited State   5:      Singlet-A      2.4472 eV  506.64 nm  f=0.0000  <S**2>=0.000
     241 -> 247        0.70511

 The electronic state is 1-A.
 Alpha  occ. eigenvalues --  -46.25362 -18.81480 -18.80636 -18.77622 -18.76721
 Alpha  occ. eigenvalues --  -18.75726 -18.75719 -14.02858 -14.02571 -14.01084
 Alpha  occ. eigenvalues --  -14.00923 -10.04894 -10.03018 -10.01024  -9.99170
 Alpha  occ. eigenvalues --   -9.97701  -9.96471  -9.96259  -9.96126  -9.96105
 Alpha  occ. eigenvalues --   -9.95991  -9.95963  -9.95749  -9.95617  -9.95003
 Alpha  occ. eigenvalues --   -9.94778  -9.94734  -9.94584  -9.94308  -9.94293
 Alpha  occ. eigenvalues --   -9.94004  -9.93560  -9.93468  -9.93284  -9.93238
 Alpha  occ. eigenvalues --   -9.93184  -9.93158  -9.93102  -9.93083  -9.93034
 Alpha  occ. eigenvalues --   -9.92699  -9.92548  -9.92412  -9.92159  -9.92092
 Alpha  occ. eigenvalues --   -9.92082  -9.92051  -9.92011  -9.91913  -9.91857
 Alpha  occ. eigenvalues --   -9.91849  -9.91751  -9.91424  -9.91416  -9.91278
 Alpha  occ. eigenvalues --   -9.91276  -9.91258  -9.91145  -9.91122  -9.90991
 Alpha  occ. eigenvalues --   -9.90888  -9.90833  -9.90789  -9.90736  -9.90650
 Alpha  occ. eigenvalues --   -9.90375  -2.90384  -1.70801  -1.70255  -1.70116
 Alpha  occ. eigenvalues --   -0.97793  -0.96337  -0.92908  -0.92617  -0.89971
 Alpha  occ. eigenvalues --   -0.88314  -0.86693  -0.86045  -0.84801  -0.83450
 Alpha  occ. eigenvalues --   -0.75290  -0.74227  -0.73477  -0.72990  -0.72319
 Alpha  occ. eigenvalues --   -0.71993  -0.71580  -0.71212  -0.70886  -0.69607
 Alpha  occ. eigenvalues --   -0.69492  -0.69316  -0.68237  -0.67145  -0.66773
 Alpha  occ. eigenvalues --   -0.66396  -0.65097  -0.64673  -0.64310  -0.64060
 Alpha  occ. eigenvalues --   -0.63519  -0.62720  -0.62460  -0.61147  -0.60511
 Alpha  occ. eigenvalues --   -0.60477  -0.60271  -0.59857  -0.59234  -0.59059
 Alpha  occ. eigenvalues --   -0.58717  -0.57780  -0.56722  -0.55893  -0.54869
 Alpha  occ. eigenvalues --   -0.53893  -0.53699  -0.52637  -0.52503  -0.51652
 Alpha  occ. eigenvalues --   -0.51341  -0.51305  -0.50422  -0.50273  -0.49831
 Alpha  occ. eigenvalues --   -0.49616  -0.48825  -0.48329  -0.47460  -0.46736
 Alpha  occ. eigenvalues --   -0.46357  -0.45664  -0.45482  -0.44926  -0.44505
 Alpha  occ. eigenvalues --   -0.44065  -0.43571  -0.43356  -0.42875  -0.42434
 Alpha  occ. eigenvalues --   -0.42028  -0.41867  -0.41599  -0.41496  -0.41151
 Alpha  occ. eigenvalues --   -0.40708  -0.40634  -0.40099  -0.39768  -0.39651
 Alpha  occ. eigenvalues --   -0.39539  -0.39260  -0.39208  -0.38936  -0.38795
 Alpha  occ. eigenvalues --   -0.38705  -0.38433  -0.38251  -0.38207  -0.37872
 Alpha  occ. eigenvalues --   -0.37833  -0.37703  -0.37627  -0.37329  -0.37109
 Alpha  occ. eigenvalues --   -0.36984  -0.36833  -0.36638  -0.36556  -0.36309
 Alpha  occ. eigenvalues --   -0.36133  -0.36011  -0.35885  -0.35800  -0.35547
 Alpha  occ. eigenvalues --   -0.35483  -0.35309  -0.35250  -0.35008  -0.34947
 Alpha  occ. eigenvalues --   -0.34845  -0.34698  -0.34325  -0.34191  -0.33836
 Alpha  occ. eigenvalues --   -0.33727  -0.33534  -0.33396  -0.33265  -0.32973
 Alpha  occ. eigenvalues --   -0.32793  -0.32616  -0.32474  -0.32341  -0.32184
 Alpha  occ. eigenvalues --   -0.32089  -0.31844  -0.31716  -0.31511  -0.31463
 Alpha  occ. eigenvalues --   -0.31239  -0.31101  -0.31026  -0.31011  -0.30706
 Alpha  occ. eigenvalues --   -0.30589  -0.30232  -0.29919  -0.29884  -0.29788
 Alpha  occ. eigenvalues --   -0.29546  -0.29303  -0.29202  -0.29108  -0.28836
 Alpha  occ. eigenvalues --   -0.28699  -0.28470  -0.28415  -0.28209  -0.27753
 Alpha  occ. eigenvalues --   -0.27604  -0.27141  -0.26904  -0.26771  -0.26454
 Alpha  occ. eigenvalues --   -0.26301  -0.26082  -0.25999  -0.25745  -0.25698
 Alpha  occ. eigenvalues --   -0.25269  -0.24607  -0.23956  -0.23905  -0.23559
 Alpha  occ. eigenvalues --   -0.23365  -0.23124  -0.22330  -0.21062  -0.20844
 Alpha  occ. eigenvalues --   -0.20597  -0.20539  -0.19279  -0.18853  -0.17118
 Alpha  occ. eigenvalues --   -0.15823
 Alpha virt. eigenvalues --   -0.11603  -0.06845  -0.05664  -0.04522  -0.03618
 Alpha virt. eigenvalues --   -0.02702  -0.01640  -0.01458  -0.01274   0.00588
 Alpha virt. eigenvalues --    0.01465   0.01921   0.02604   0.02826   0.02911

 Mulliken charges:
               1
     1  Mg   0.729230
     2  C    0.037752
     3  C   -0.071302
     4  C   -0.052795
     5  C   -0.071992
     6  N   -0.212800
     7  C   -0.092216
     8  C    0.075588
     9  C   -0.015402
    10  C    0.017491
    11  C    0.119918
    12  C    0.104928
    13  C    0.119945
    14  C    0.095044
    15  O   -0.178531
    16  O   -0.287810
    17  N   -0.349698
    18  C    0.174078
    19  C   -0.161081
    20  C    0.032699
    21  C    0.105669
    22  C    0.174638
    23  C   -0.047114
    24  O   -0.135623
    25  C    0.081993
    26  N   -0.193724
    27  C    0.031043
    28  C   -0.044809
    29  C    0.071431
    30  C    0.041035
    31  C    0.123689
    32  C    0.065391
    33  C    0.083123
    34  N   -0.307116
    35  C    0.103524
    36  C   -0.162765
    37  C    0.062887
    38  C    0.083558
    39  C    0.164729
    40  C   -0.094639
    41  O   -0.092464
    42  C    0.063117
    43  C    0.116268
    44  O   -0.178813
    45  O   -0.293149
    46  C    0.214545
    47  C    0.318986
    48  C   -0.087118
    49  C   -0.141389
    50  C    0.122476
    51  C    0.157426
    52  C    0.021127
    53  C    0.144624
    54  C   -0.079676
    55  C    0.093176
    56  C    0.089700
    57  C    0.096608
    58  C    0.097420
    59  C   -0.136868
    60  C    0.135840
    61  C    0.140367
    62  C    0.053612
    63  C    0.054069
    64  C   -0.048262
    65  C    0.124726
    66  C    0.107127
    67  H   -0.073039
    68  H   -0.045229
    69  H   -0.081964
    70  H   -0.032799
    71  H   -0.028237
    72  H   -0.001054
    73  H    0.001187
    74  H   -0.009200
    75  H   -0.021882
    76  H    0.009342
    77  H    0.009674
    78  H    0.006348
    79  H   -0.020683
    80  H   -0.001891
    81  H    0.011834
    82  H    0.010577
    83  H    0.010503
    84  H   -0.010818
    85  H   -0.006093
    86  H   -0.021713
    87  H    0.004247
    88  H   -0.007936
    89  H   -0.011071
    90  H   -0.022053
    91  H   -0.029789
    92  H    0.003606
    93  H    0.001396
    94  H   -0.005463
    95  H    0.024469
    96  H   -0.015657
    97  H    0.019783
    98  H   -0.016373
    99  H    0.006689
   100  H    0.022954
   101  H    0.019196
   102  H    0.004722
   103  H   -0.020065
   104  H   -0.041949
   105  H    0.010919
   106  H    0.009345
   107  H   -0.012174
   108  H   -0.030305
   109  H   -0.017407
   110  H   -0.038600
   111  H   -0.016417
   112  H   -0.043276
   113  H   -0.038443
   114  H   -0.047845
   115  H   -0.030132
   116  H   -0.017748
   117  H   -0.025626
   118  H   -0.034968
   119  H   -0.036082
   120  H   -0.031863
   121  H   -0.036393
   122  H   -0.040871
   123  H   -0.033054
   124  H   -0.031838
   125  H   -0.029312
   126  H   -0.033127
   127  H   -0.001102
   128  H   -0.043159
   129  H   -0.043128
   130  H   -0.025343
   131  H   -0.016193
   132  H   -0.026018
   133  H   -0.026678
   134  H   -0.039985
   135  H   -0.032585
   136  H   -0.009110
   137  H   -0.012238
   138  H   -0.017549
   139  H   -0.030193
   140  H   -0.026510
 Sum of Mulliken charges =  -0.00000

 Dipole moment (field-independent basis, Debye):
    X=              1.9740    Y=              1.4445    Z=              2.4115  Tot=              3.4349
 Quadrupole moment (field-independent basis, Debye-Ang):
   XX=           -372.4908   YY=           -418.9906   ZZ=           -402.6371
   XY=              8.5704   XZ=             -1.4709   YZ=              4.6068

 Normal termination of Gaussian 16 at Thu Apr 28 15:59:12 2022.
