 Gaussian 16, Revision A.03,
 Gaussian 16:  ES64L-G16RevA.03 25-Dec-2016

 -----------------------------------
 #p cam-b3lyp/Def2SVP td=(nstates=5)
 -----------------------------------

 --------------------------------------------------------
 step_1601_chromophore_22 TDDFT with cam-b3lyp functional
 --------------------------------------------------------
 Symbolic Z-matrix:
 Charge =  0 Multiplicity = 1

                         Standard orientation:
 ---------------------------------------------------------------------
 Center     Atomic      Atomic             Coordinates (Angstroms)
 Number     Number       Type             X           Y           Z
 ---------------------------------------------------------------------
      1         12           0       -5.878307    0.419700    0.187340
      2          6           0       -3.357113   -1.886849    0.266320
      3          6           0       -3.810461    2.500457    1.888656
      4          6           0       -8.260817    2.732075   -0.159590
      5          6           0       -8.214715   -2.065882   -0.487858
      6          7           0       -3.897377    0.257617    1.029995
      7          6           0       -2.975198   -0.727165    0.873807
      8          6           0       -1.573752   -0.433525    1.468475
      9          6           0       -1.896656    0.860432    2.239483
     10          6           0       -3.309695    1.249287    1.752980
     11          6           0       -1.772227    0.721645    3.822404
     12          6           0       -0.427396   -0.294301    0.462104
     13          6           0        0.935928   -0.875315    0.914454
     14          6           0        1.864108   -1.279957   -0.237314
     15          8           0        1.811573   -0.989967   -1.415509
     16          8           0        2.919273   -2.081854    0.212492
     17          7           0       -6.004925    2.345536    0.768309
     18          6           0       -5.081363    3.095416    1.462320
     19          6           0       -5.438184    4.498778    1.411184
     20          6           0       -6.786460    4.613537    0.944739
     21          6           0       -7.118597    3.249762    0.539697
     22          6           0       -4.457993    5.616742    1.842353
     23          6           0       -7.650711    5.841637    0.589950
     24          8           0       -8.690362    5.816696   -0.031734
     25          6           0       -7.088654    7.262527    1.122837
     26          7           0       -7.974893    0.335955   -0.321036
     27          6           0       -8.712613    1.460218   -0.467716
     28          6           0      -10.010280    1.213199   -1.160234
     29          6           0      -10.187835   -0.342762   -0.931049
     30          6           0       -8.720712   -0.775129   -0.560160
     31          6           0      -11.288497    2.062752   -0.728229
     32          6           0      -10.772364   -0.936311   -2.196003
     33          6           0      -11.100504   -2.486643   -2.246240
     34          7           0       -5.851828   -1.519347   -0.149377
     35          6           0       -6.895470   -2.438390   -0.381497
     36          6           0       -6.346555   -3.825810   -0.548772
     37          6           0       -4.936479   -3.613532   -0.380090
     38          6           0       -4.695269   -2.185941   -0.130586
     39          6           0       -7.026877   -5.158982   -0.953656
     40          6           0       -3.670743   -4.305502   -0.288819
     41          8           0       -3.395131   -5.456415   -0.426652
     42          6           0       -2.625177   -3.179593    0.007930
     43          6           0       -1.672858   -3.205513   -1.156419
     44          8           0       -1.835007   -2.701773   -2.248516
     45          8           0       -0.515659   -3.912187   -0.868522
     46          6           0        0.522881   -3.888395   -1.928082
     47          6           0        3.949565   -2.478104   -0.737750
     48          6           0        5.257361   -2.099373   -0.134947
     49          6           0        6.293077   -2.798623    0.343270
     50          6           0        6.340234   -4.283624    0.335984
     51          6           0        7.709377   -2.220532    0.402991
     52          6           0        8.390292   -2.517883    1.728323
     53          6           0        9.049090   -1.413118    2.586085
     54          6           0       10.538789   -1.378149    2.807533
     55          6           0       10.865482   -1.714222    4.277045
     56          6           0       11.166687    0.024669    2.484291
     57          6           0       11.328071    0.254598    0.974242
     58          6           0       12.788086    0.045554    0.488987
     59          6           0       13.370268    1.323054   -0.293078
     60          6           0       14.837387    1.485670    0.157196
     61          6           0       13.249134    1.253832   -1.784391
     62          6           0       12.927064    2.686233   -2.422375
     63          6           0       11.344707    2.955975   -2.597183
     64          6           0       10.958917    4.020859   -3.589031
     65          6           0       11.819626    5.297871   -3.522432
     66          6           0        9.444503    4.250728   -3.521495
     67          1           0       -3.035722    3.126792    2.335897
     68          1           0       -8.972019    3.496053   -0.478273
     69          1           0       -8.880704   -2.920412   -0.625261
     70          1           0       -1.348188   -1.194194    2.216076
     71          1           0       -1.305082    1.714287    1.910229
     72          1           0       -2.428870    1.345283    4.430259
     73          1           0       -0.721473    0.884775    4.062835
     74          1           0       -2.073099   -0.297866    4.061557
     75          1           0       -0.317853    0.750298    0.170488
     76          1           0       -0.694308   -0.774316   -0.478343
     77          1           0        0.800617   -1.590171    1.727049
     78          1           0        1.416432   -0.001311    1.354501
     79          1           0       -3.555636    5.181263    2.270476
     80          1           0       -4.900146    6.195572    2.652986
     81          1           0       -4.219634    6.272325    1.005067
     82          1           0       -6.166930    7.487138    0.585203
     83          1           0       -6.966258    7.210755    2.204565
     84          1           0       -7.791528    8.079472    0.959132
     85          1           0       -9.896154    1.486128   -2.209050
     86          1           0      -10.789677   -0.479466   -0.032809
     87          1           0      -10.990611    2.845990   -0.031763
     88          1           0      -12.046247    1.414276   -0.288762
     89          1           0      -11.664080    2.574188   -1.614073
     90          1           0      -10.153561   -0.640688   -3.042879
     91          1           0      -11.727007   -0.419425   -2.296121
     92          1           0      -10.936849   -2.851098   -1.231927
     93          1           0      -10.351607   -2.876603   -2.936354
     94          1           0      -12.101689   -2.768508   -2.569946
     95          1           0       -6.548984   -5.395029   -1.904610
     96          1           0       -8.099733   -5.096838   -1.136382
     97          1           0       -6.856725   -5.916978   -0.189796
     98          1           0       -2.174464   -3.571416    0.920429
     99          1           0        1.479734   -3.896000   -1.406029
    100          1           0        0.621713   -2.938852   -2.454048
    101          1           0        0.288937   -4.662413   -2.659881
    102          1           0        3.859940   -2.075605   -1.746930
    103          1           0        3.886672   -3.557629   -0.880322
    104          1           0        5.502725   -1.069479   -0.394495
    105          1           0        6.337846   -4.567419   -0.716555
    106          1           0        5.464571   -4.645093    0.875098
    107          1           0        7.221674   -4.716950    0.807475
    108          1           0        7.730011   -1.137780    0.280163
    109          1           0        8.329410   -2.726104   -0.335629
    110          1           0        9.204114   -3.158584    1.389364
    111          1           0        7.766054   -3.060029    2.438398
    112          1           0        8.639376   -1.609990    3.576822
    113          1           0        8.804768   -0.424440    2.197240
    114          1           0       10.977265   -2.142275    2.165873
    115          1           0       10.362418   -2.631682    4.583572
    116          1           0       10.608922   -0.999718    5.059663
    117          1           0       11.916164   -1.936031    4.464381
    118          1           0       12.155213    0.032405    2.944720
    119          1           0       10.523376    0.726279    3.014555
    120          1           0       10.980288    1.250926    0.701919
    121          1           0       10.642467   -0.415097    0.456832
    122          1           0       12.771376   -0.810161   -0.186066
    123          1           0       13.457981   -0.273953    1.286912
    124          1           0       12.832514    2.202366    0.060752
    125          1           0       14.859510    2.471899    0.620510
    126          1           0       15.408541    1.658556   -0.755014
    127          1           0       15.223805    0.709609    0.817241
    128          1           0       12.494689    0.500584   -2.010555
    129          1           0       14.178766    0.806117   -2.135251
    130          1           0       13.478688    2.697902   -3.363209
    131          1           0       13.255812    3.424387   -1.690569
    132          1           0       11.006404    3.173848   -1.584754
    133          1           0       10.943623    1.997906   -2.930555
    134          1           0       11.179831    3.609371   -4.573619
    135          1           0       11.266240    6.235957   -3.487072
    136          1           0       12.309430    5.337228   -4.495772
    137          1           0       12.372134    5.320783   -2.582786
    138          1           0        8.947473    4.516037   -4.455056
    139          1           0        9.234715    5.076275   -2.841711
    140          1           0        8.847485    3.455560   -3.075664
 ---------------------------------------------------------------------

 SCF Done:  E(RCAM-B3LYP) =  -3007.18512681     A.U. after   18 cycles

 Excitation energies and oscillator strengths:

 Excited State   1:      Singlet-A      1.6832 eV  736.61 nm  f=0.3824  <S**2>=0.000
     245 -> 248        0.16929
     246 -> 247        0.68670
     245 <- 248        0.10388
 This state for optimization and/or second-order correction.
 Total Energy, E(TD-HF/TD-DFT) =  -3007.12327160
 Copying the excited state density for this state as the 1-particle RhoCI density.

 Excited State   2:      Singlet-A      2.2242 eV  557.44 nm  f=0.1356  <S**2>=0.000
     245 -> 247        0.65034
     246 -> 248       -0.26423

 Excited State   3:      Singlet-A      3.4067 eV  363.94 nm  f=0.0187  <S**2>=0.000
     242 -> 247       -0.16240
     244 -> 247        0.64218
     246 -> 248        0.19230

 Excited State   4:      Singlet-A      3.4948 eV  354.77 nm  f=0.1332  <S**2>=0.000
     240 -> 247        0.10532
     241 -> 247        0.46155
     241 -> 249       -0.20669
     241 -> 250       -0.10936
     242 -> 247        0.18583
     245 -> 247        0.12344
     246 -> 248        0.36281

 Excited State   5:      Singlet-A      3.5762 eV  346.70 nm  f=0.0264  <S**2>=0.000
     239 -> 247       -0.12708
     241 -> 247       -0.25929
     241 -> 249        0.13545
     242 -> 247        0.56697
     246 -> 248        0.20760

 The electronic state is 1-A.
 Alpha  occ. eigenvalues --  -46.86761 -19.24306 -19.23598 -19.20663 -19.19850
 Alpha  occ. eigenvalues --  -19.19085 -19.18912 -14.41687 -14.41436 -14.39512
 Alpha  occ. eigenvalues --  -14.39507 -10.40331 -10.38533 -10.36229 -10.34608
 Alpha  occ. eigenvalues --  -10.31751 -10.31115 -10.30818 -10.30497 -10.30287
 Alpha  occ. eigenvalues --  -10.30156 -10.30109 -10.29970 -10.29795 -10.29752
 Alpha  occ. eigenvalues --  -10.29685 -10.28810 -10.28662 -10.28528 -10.28240
 Alpha  occ. eigenvalues --  -10.28011 -10.27876 -10.27498 -10.27451 -10.27194
 Alpha  occ. eigenvalues --  -10.27177 -10.27156 -10.27114 -10.26953 -10.26867
 Alpha  occ. eigenvalues --  -10.26819 -10.26506 -10.26168 -10.26167 -10.26054
 Alpha  occ. eigenvalues --  -10.25851 -10.25849 -10.25781 -10.25656 -10.25616
 Alpha  occ. eigenvalues --  -10.25595 -10.25545 -10.25444 -10.25142 -10.25120
 Alpha  occ. eigenvalues --  -10.25112 -10.24909 -10.24851 -10.24779 -10.24668
 Alpha  occ. eigenvalues --  -10.24556 -10.24413 -10.24393 -10.24340 -10.24216
 Alpha  occ. eigenvalues --  -10.23948  -3.15705  -1.90592  -1.90146  -1.90053
 Alpha  occ. eigenvalues --   -1.16291  -1.14969  -1.11551  -1.10961  -1.07805
 Alpha  occ. eigenvalues --   -1.06260  -1.04400  -1.03794  -1.02478  -1.00725
 Alpha  occ. eigenvalues --   -0.92513  -0.91108  -0.90294  -0.89792  -0.89036
 Alpha  occ. eigenvalues --   -0.88692  -0.88305  -0.87805  -0.87429  -0.86132
 Alpha  occ. eigenvalues --   -0.85976  -0.85728  -0.84488  -0.83421  -0.82874
 Alpha  occ. eigenvalues --   -0.82453  -0.80950  -0.80585  -0.80131  -0.79874
 Alpha  occ. eigenvalues --   -0.79475  -0.78431  -0.78077  -0.76614  -0.75868
 Alpha  occ. eigenvalues --   -0.75829  -0.75719  -0.75175  -0.74495  -0.74265
 Alpha  occ. eigenvalues --   -0.73812  -0.72845  -0.71591  -0.70700  -0.69598
 Alpha  occ. eigenvalues --   -0.68502  -0.68358  -0.67032  -0.66891  -0.65850
 Alpha  occ. eigenvalues --   -0.65568  -0.65453  -0.64438  -0.64216  -0.63666
 Alpha  occ. eigenvalues --   -0.63548  -0.62716  -0.62147  -0.61250  -0.60417
 Alpha  occ. eigenvalues --   -0.59833  -0.59158  -0.58982  -0.58400  -0.58190
 Alpha  occ. eigenvalues --   -0.57408  -0.56837  -0.56600  -0.56028  -0.55497
 Alpha  occ. eigenvalues --   -0.54985  -0.54815  -0.54648  -0.54409  -0.53893
 Alpha  occ. eigenvalues --   -0.53651  -0.53362  -0.53160  -0.52821  -0.52649
 Alpha  occ. eigenvalues --   -0.52175  -0.51943  -0.51717  -0.51687  -0.51505
 Alpha  occ. eigenvalues --   -0.51233  -0.50942  -0.50880  -0.50866  -0.50345
 Alpha  occ. eigenvalues --   -0.50215  -0.50033  -0.49958  -0.49804  -0.49555
 Alpha  occ. eigenvalues --   -0.49376  -0.49104  -0.48958  -0.48931  -0.48712
 Alpha  occ. eigenvalues --   -0.48520  -0.48282  -0.48259  -0.47965  -0.47631
 Alpha  occ. eigenvalues --   -0.47472  -0.47232  -0.47151  -0.47063  -0.46918
 Alpha  occ. eigenvalues --   -0.46814  -0.46465  -0.46460  -0.45993  -0.45717
 Alpha  occ. eigenvalues --   -0.45487  -0.45389  -0.45349  -0.45115  -0.44739
 Alpha  occ. eigenvalues --   -0.44502  -0.44300  -0.44101  -0.43879  -0.43844
 Alpha  occ. eigenvalues --   -0.43707  -0.43444  -0.43356  -0.43119  -0.43044
 Alpha  occ. eigenvalues --   -0.42889  -0.42622  -0.42429  -0.42321  -0.41952
 Alpha  occ. eigenvalues --   -0.41813  -0.41630  -0.41473  -0.41357  -0.40931
 Alpha  occ. eigenvalues --   -0.40846  -0.40733  -0.40401  -0.40304  -0.40105
 Alpha  occ. eigenvalues --   -0.39876  -0.39840  -0.39585  -0.39244  -0.38700
 Alpha  occ. eigenvalues --   -0.38610  -0.38003  -0.37939  -0.37714  -0.37155
 Alpha  occ. eigenvalues --   -0.37021  -0.36813  -0.36647  -0.36536  -0.36383
 Alpha  occ. eigenvalues --   -0.35816  -0.35767  -0.35470  -0.35311  -0.34486
 Alpha  occ. eigenvalues --   -0.34280  -0.33627  -0.32788  -0.31532  -0.31064
 Alpha  occ. eigenvalues --   -0.30707  -0.30398  -0.30310  -0.29748  -0.23933
 Alpha  occ. eigenvalues --   -0.21159
 Alpha virt. eigenvalues --   -0.08735  -0.01437   0.00796   0.02468   0.03578
 Alpha virt. eigenvalues --    0.03908   0.05015   0.05764   0.06181   0.06709
 Alpha virt. eigenvalues --    0.08281   0.08759   0.09135   0.09230   0.09299

 Mulliken charges:
               1
     1  Mg   0.866767
     2  C   -0.002104
     3  C   -0.088618
     4  C   -0.068662
     5  C   -0.081512
     6  N   -0.290029
     7  C   -0.046230
     8  C    0.024444
     9  C   -0.070089
    10  C    0.038463
    11  C    0.066233
    12  C    0.053194
    13  C    0.047895
    14  C    0.177985
    15  O   -0.220232
    16  O   -0.351668
    17  N   -0.431862
    18  C    0.181043
    19  C   -0.169826
    20  C   -0.029050
    21  C    0.120815
    22  C    0.119845
    23  C    0.027948
    24  O   -0.177500
    25  C    0.009292
    26  N   -0.262910
    27  C    0.050255
    28  C   -0.097135
    29  C    0.011018
    30  C    0.060742
    31  C    0.066777
    32  C    0.012831
    33  C    0.019665
    34  N   -0.399839
    35  C    0.112104
    36  C   -0.156257
    37  C   -0.017305
    38  C    0.132729
    39  C    0.119467
    40  C    0.003632
    41  O   -0.130371
    42  C   -0.012804
    43  C    0.203229
    44  O   -0.214500
    45  O   -0.355061
    46  C    0.178318
    47  C    0.280305
    48  C   -0.103173
    49  C   -0.157282
    50  C    0.053324
    51  C    0.093969
    52  C   -0.031051
    53  C    0.085538
    54  C   -0.133837
    55  C    0.032953
    56  C    0.035322
    57  C    0.043755
    58  C    0.048880
    59  C   -0.187880
    60  C    0.074704
    61  C    0.082850
    62  C    0.000121
    63  C    0.006947
    64  C   -0.107381
    65  C    0.057277
    66  C    0.045673
    67  H   -0.041923
    68  H   -0.006136
    69  H   -0.043595
    70  H    0.003284
    71  H    0.005993
    72  H    0.025322
    73  H    0.023643
    74  H    0.013352
    75  H    0.010983
    76  H    0.037276
    77  H    0.042876
    78  H    0.038464
    79  H    0.006397
    80  H    0.021865
    81  H    0.035140
    82  H    0.035786
    83  H    0.036000
    84  H    0.022688
    85  H    0.027302
    86  H    0.012765
    87  H    0.029199
    88  H    0.015716
    89  H    0.014132
    90  H    0.007584
    91  H   -0.000310
    92  H    0.022392
    93  H    0.023746
    94  H    0.021131
    95  H    0.050664
    96  H    0.009522
    97  H    0.046524
    98  H    0.028532
    99  H    0.024287
   100  H    0.047910
   101  H    0.043794
   102  H    0.038504
   103  H    0.005867
   104  H   -0.011172
   105  H    0.035525
   106  H    0.034746
   107  H    0.014368
   108  H   -0.001470
   109  H    0.012794
   110  H   -0.010671
   111  H    0.011294
   112  H   -0.010766
   113  H   -0.009823
   114  H   -0.016320
   115  H   -0.004854
   116  H    0.007031
   117  H    0.000099
   118  H   -0.006047
   119  H   -0.006606
   120  H   -0.004563
   121  H   -0.011270
   122  H   -0.012106
   123  H   -0.006043
   124  H   -0.002104
   125  H   -0.004174
   126  H   -0.007812
   127  H    0.022476
   128  H   -0.013947
   129  H   -0.011944
   130  H    0.003640
   131  H    0.006998
   132  H   -0.001950
   133  H    0.000964
   134  H   -0.007926
   135  H   -0.005497
   136  H    0.015334
   137  H    0.011681
   138  H    0.007961
   139  H   -0.006284
   140  H   -0.000374
 Sum of Mulliken charges =  -0.00000

 Dipole moment (field-independent basis, Debye):
    X=              1.8087    Y=              1.3891    Z=              2.4833  Tot=              3.3716
 Quadrupole moment (field-independent basis, Debye-Ang):
   XX=           -369.5012   YY=           -414.8746   ZZ=           -402.4842
   XY=              9.1904   XZ=             -0.3784   YZ=              5.7201

 Normal termination of Gaussian 16 at Thu Apr 28 14:33:06 2022.
