 Gaussian 16, Revision A.03,
 Gaussian 16:  ES64L-G16RevA.03 25-Dec-2016

 ---------------------------------
 #p PBE1PBE/Def2SVP td=(nstates=5)
 ---------------------------------

 ------------------------------------------------------
 step_1601_chromophore_22 TDDFT with PBE1PBE functional
 ------------------------------------------------------
 Symbolic Z-matrix:
 Charge =  0 Multiplicity = 1

                         Standard orientation:
 ---------------------------------------------------------------------
 Center     Atomic      Atomic             Coordinates (Angstroms)
 Number     Number       Type             X           Y           Z
 ---------------------------------------------------------------------
      1         12           0       -5.878307    0.419700    0.187340
      2          6           0       -3.357113   -1.886849    0.266320
      3          6           0       -3.810461    2.500457    1.888656
      4          6           0       -8.260817    2.732075   -0.159590
      5          6           0       -8.214715   -2.065882   -0.487858
      6          7           0       -3.897377    0.257617    1.029995
      7          6           0       -2.975198   -0.727165    0.873807
      8          6           0       -1.573752   -0.433525    1.468475
      9          6           0       -1.896656    0.860432    2.239483
     10          6           0       -3.309695    1.249287    1.752980
     11          6           0       -1.772227    0.721645    3.822404
     12          6           0       -0.427396   -0.294301    0.462104
     13          6           0        0.935928   -0.875315    0.914454
     14          6           0        1.864108   -1.279957   -0.237314
     15          8           0        1.811573   -0.989967   -1.415509
     16          8           0        2.919273   -2.081854    0.212492
     17          7           0       -6.004925    2.345536    0.768309
     18          6           0       -5.081363    3.095416    1.462320
     19          6           0       -5.438184    4.498778    1.411184
     20          6           0       -6.786460    4.613537    0.944739
     21          6           0       -7.118597    3.249762    0.539697
     22          6           0       -4.457993    5.616742    1.842353
     23          6           0       -7.650711    5.841637    0.589950
     24          8           0       -8.690362    5.816696   -0.031734
     25          6           0       -7.088654    7.262527    1.122837
     26          7           0       -7.974893    0.335955   -0.321036
     27          6           0       -8.712613    1.460218   -0.467716
     28          6           0      -10.010280    1.213199   -1.160234
     29          6           0      -10.187835   -0.342762   -0.931049
     30          6           0       -8.720712   -0.775129   -0.560160
     31          6           0      -11.288497    2.062752   -0.728229
     32          6           0      -10.772364   -0.936311   -2.196003
     33          6           0      -11.100504   -2.486643   -2.246240
     34          7           0       -5.851828   -1.519347   -0.149377
     35          6           0       -6.895470   -2.438390   -0.381497
     36          6           0       -6.346555   -3.825810   -0.548772
     37          6           0       -4.936479   -3.613532   -0.380090
     38          6           0       -4.695269   -2.185941   -0.130586
     39          6           0       -7.026877   -5.158982   -0.953656
     40          6           0       -3.670743   -4.305502   -0.288819
     41          8           0       -3.395131   -5.456415   -0.426652
     42          6           0       -2.625177   -3.179593    0.007930
     43          6           0       -1.672858   -3.205513   -1.156419
     44          8           0       -1.835007   -2.701773   -2.248516
     45          8           0       -0.515659   -3.912187   -0.868522
     46          6           0        0.522881   -3.888395   -1.928082
     47          6           0        3.949565   -2.478104   -0.737750
     48          6           0        5.257361   -2.099373   -0.134947
     49          6           0        6.293077   -2.798623    0.343270
     50          6           0        6.340234   -4.283624    0.335984
     51          6           0        7.709377   -2.220532    0.402991
     52          6           0        8.390292   -2.517883    1.728323
     53          6           0        9.049090   -1.413118    2.586085
     54          6           0       10.538789   -1.378149    2.807533
     55          6           0       10.865482   -1.714222    4.277045
     56          6           0       11.166687    0.024669    2.484291
     57          6           0       11.328071    0.254598    0.974242
     58          6           0       12.788086    0.045554    0.488987
     59          6           0       13.370268    1.323054   -0.293078
     60          6           0       14.837387    1.485670    0.157196
     61          6           0       13.249134    1.253832   -1.784391
     62          6           0       12.927064    2.686233   -2.422375
     63          6           0       11.344707    2.955975   -2.597183
     64          6           0       10.958917    4.020859   -3.589031
     65          6           0       11.819626    5.297871   -3.522432
     66          6           0        9.444503    4.250728   -3.521495
     67          1           0       -3.035722    3.126792    2.335897
     68          1           0       -8.972019    3.496053   -0.478273
     69          1           0       -8.880704   -2.920412   -0.625261
     70          1           0       -1.348188   -1.194194    2.216076
     71          1           0       -1.305082    1.714287    1.910229
     72          1           0       -2.428870    1.345283    4.430259
     73          1           0       -0.721473    0.884775    4.062835
     74          1           0       -2.073099   -0.297866    4.061557
     75          1           0       -0.317853    0.750298    0.170488
     76          1           0       -0.694308   -0.774316   -0.478343
     77          1           0        0.800617   -1.590171    1.727049
     78          1           0        1.416432   -0.001311    1.354501
     79          1           0       -3.555636    5.181263    2.270476
     80          1           0       -4.900146    6.195572    2.652986
     81          1           0       -4.219634    6.272325    1.005067
     82          1           0       -6.166930    7.487138    0.585203
     83          1           0       -6.966258    7.210755    2.204565
     84          1           0       -7.791528    8.079472    0.959132
     85          1           0       -9.896154    1.486128   -2.209050
     86          1           0      -10.789677   -0.479466   -0.032809
     87          1           0      -10.990611    2.845990   -0.031763
     88          1           0      -12.046247    1.414276   -0.288762
     89          1           0      -11.664080    2.574188   -1.614073
     90          1           0      -10.153561   -0.640688   -3.042879
     91          1           0      -11.727007   -0.419425   -2.296121
     92          1           0      -10.936849   -2.851098   -1.231927
     93          1           0      -10.351607   -2.876603   -2.936354
     94          1           0      -12.101689   -2.768508   -2.569946
     95          1           0       -6.548984   -5.395029   -1.904610
     96          1           0       -8.099733   -5.096838   -1.136382
     97          1           0       -6.856725   -5.916978   -0.189796
     98          1           0       -2.174464   -3.571416    0.920429
     99          1           0        1.479734   -3.896000   -1.406029
    100          1           0        0.621713   -2.938852   -2.454048
    101          1           0        0.288937   -4.662413   -2.659881
    102          1           0        3.859940   -2.075605   -1.746930
    103          1           0        3.886672   -3.557629   -0.880322
    104          1           0        5.502725   -1.069479   -0.394495
    105          1           0        6.337846   -4.567419   -0.716555
    106          1           0        5.464571   -4.645093    0.875098
    107          1           0        7.221674   -4.716950    0.807475
    108          1           0        7.730011   -1.137780    0.280163
    109          1           0        8.329410   -2.726104   -0.335629
    110          1           0        9.204114   -3.158584    1.389364
    111          1           0        7.766054   -3.060029    2.438398
    112          1           0        8.639376   -1.609990    3.576822
    113          1           0        8.804768   -0.424440    2.197240
    114          1           0       10.977265   -2.142275    2.165873
    115          1           0       10.362418   -2.631682    4.583572
    116          1           0       10.608922   -0.999718    5.059663
    117          1           0       11.916164   -1.936031    4.464381
    118          1           0       12.155213    0.032405    2.944720
    119          1           0       10.523376    0.726279    3.014555
    120          1           0       10.980288    1.250926    0.701919
    121          1           0       10.642467   -0.415097    0.456832
    122          1           0       12.771376   -0.810161   -0.186066
    123          1           0       13.457981   -0.273953    1.286912
    124          1           0       12.832514    2.202366    0.060752
    125          1           0       14.859510    2.471899    0.620510
    126          1           0       15.408541    1.658556   -0.755014
    127          1           0       15.223805    0.709609    0.817241
    128          1           0       12.494689    0.500584   -2.010555
    129          1           0       14.178766    0.806117   -2.135251
    130          1           0       13.478688    2.697902   -3.363209
    131          1           0       13.255812    3.424387   -1.690569
    132          1           0       11.006404    3.173848   -1.584754
    133          1           0       10.943623    1.997906   -2.930555
    134          1           0       11.179831    3.609371   -4.573619
    135          1           0       11.266240    6.235957   -3.487072
    136          1           0       12.309430    5.337228   -4.495772
    137          1           0       12.372134    5.320783   -2.582786
    138          1           0        8.947473    4.516037   -4.455056
    139          1           0        9.234715    5.076275   -2.841711
    140          1           0        8.847485    3.455560   -3.075664
 ---------------------------------------------------------------------

 SCF Done:  E(RPBE1PBE) =  -3005.37144294     A.U. after   15 cycles

 Excitation energies and oscillator strengths:

 Excited State   1:      Singlet-A      1.8428 eV  672.79 nm  f=0.3677  <S**2>=0.000
     245 -> 248        0.16067
     246 -> 247        0.69417
     246 <- 247       -0.11163
 This state for optimization and/or second-order correction.
 Total Energy, E(TD-HF/TD-DFT) =  -3005.30371953
 Copying the excited state density for this state as the 1-particle RhoCI density.

 Excited State   2:      Singlet-A      2.2163 eV  559.42 nm  f=0.1313  <S**2>=0.000
     245 -> 247        0.66031
     246 -> 248       -0.23604

 Excited State   3:      Singlet-A      2.9965 eV  413.77 nm  f=0.0005  <S**2>=0.000
     242 -> 247        0.43349
     242 -> 249       -0.11176
     243 -> 247        0.15098
     244 -> 247        0.49783

 Excited State   4:      Singlet-A      3.0956 eV  400.51 nm  f=0.0031  <S**2>=0.000
     242 -> 247       -0.46067
     243 -> 247       -0.14189
     244 -> 247        0.47418
     246 -> 248       -0.16890

 Excited State   5:      Singlet-A      3.2030 eV  387.09 nm  f=0.0026  <S**2>=0.000
     240 -> 247        0.60559
     240 -> 248        0.11930
     241 -> 247       -0.30078

 The electronic state is 1-A.
 Alpha  occ. eigenvalues --  -46.90204 -19.25005 -19.24208 -19.20902 -19.20140
 Alpha  occ. eigenvalues --  -19.19179 -19.19070 -14.41139 -14.41044 -14.39296
 Alpha  occ. eigenvalues --  -14.39097 -10.37325 -10.35505 -10.33488 -10.31632
 Alpha  occ. eigenvalues --  -10.29137 -10.28735 -10.28472 -10.28261 -10.28101
 Alpha  occ. eigenvalues --  -10.28006 -10.27793 -10.27621 -10.27367 -10.27229
 Alpha  occ. eigenvalues --  -10.27213 -10.26487 -10.26459 -10.26284 -10.26117
 Alpha  occ. eigenvalues --  -10.25805 -10.25460 -10.25377 -10.25322 -10.25048
 Alpha  occ. eigenvalues --  -10.24787 -10.24781 -10.24455 -10.24402 -10.24392
 Alpha  occ. eigenvalues --  -10.24336 -10.24088 -10.24037 -10.23648 -10.23532
 Alpha  occ. eigenvalues --  -10.23413 -10.23317 -10.23289 -10.23250 -10.23203
 Alpha  occ. eigenvalues --  -10.23182 -10.23141 -10.22989 -10.22854 -10.22678
 Alpha  occ. eigenvalues --  -10.22655 -10.22478 -10.22461 -10.22321 -10.22248
 Alpha  occ. eigenvalues --  -10.22127 -10.21981 -10.21779 -10.21758 -10.21600
 Alpha  occ. eigenvalues --  -10.21362  -3.12715  -1.85545  -1.85076  -1.84989
 Alpha  occ. eigenvalues --   -1.11065  -1.09663  -1.06214  -1.05795  -1.02659
 Alpha  occ. eigenvalues --   -1.01037  -0.99033  -0.98375  -0.97059  -0.95519
 Alpha  occ. eigenvalues --   -0.86814  -0.85261  -0.84521  -0.83900  -0.83146
 Alpha  occ. eigenvalues --   -0.82926  -0.82625  -0.81929  -0.81807  -0.80429
 Alpha  occ. eigenvalues --   -0.80302  -0.80005  -0.78690  -0.77697  -0.77133
 Alpha  occ. eigenvalues --   -0.76675  -0.75192  -0.74849  -0.74407  -0.74012
 Alpha  occ. eigenvalues --   -0.73700  -0.72664  -0.72402  -0.70924  -0.70061
 Alpha  occ. eigenvalues --   -0.69955  -0.69912  -0.69504  -0.68640  -0.68458
 Alpha  occ. eigenvalues --   -0.68114  -0.67269  -0.66000  -0.65085  -0.63924
 Alpha  occ. eigenvalues --   -0.62865  -0.62638  -0.61461  -0.61216  -0.60363
 Alpha  occ. eigenvalues --   -0.59824  -0.59781  -0.59036  -0.58802  -0.58084
 Alpha  occ. eigenvalues --   -0.57769  -0.56883  -0.56341  -0.55761  -0.54905
 Alpha  occ. eigenvalues --   -0.54181  -0.53756  -0.53615  -0.52989  -0.52566
 Alpha  occ. eigenvalues --   -0.51974  -0.51392  -0.50968  -0.50618  -0.49927
 Alpha  occ. eigenvalues --   -0.49533  -0.49446  -0.49045  -0.48876  -0.48396
 Alpha  occ. eigenvalues --   -0.48226  -0.47919  -0.47617  -0.47350  -0.47236
 Alpha  occ. eigenvalues --   -0.46688  -0.46525  -0.46208  -0.46174  -0.46079
 Alpha  occ. eigenvalues --   -0.45768  -0.45528  -0.45433  -0.45252  -0.44984
 Alpha  occ. eigenvalues --   -0.44771  -0.44622  -0.44494  -0.44385  -0.44144
 Alpha  occ. eigenvalues --   -0.44018  -0.43705  -0.43578  -0.43545  -0.43349
 Alpha  occ. eigenvalues --   -0.43122  -0.42971  -0.42837  -0.42538  -0.42284
 Alpha  occ. eigenvalues --   -0.42030  -0.41855  -0.41760  -0.41695  -0.41558
 Alpha  occ. eigenvalues --   -0.41455  -0.41082  -0.41004  -0.40775  -0.40506
 Alpha  occ. eigenvalues --   -0.40216  -0.40054  -0.40008  -0.39885  -0.39507
 Alpha  occ. eigenvalues --   -0.39276  -0.39017  -0.38817  -0.38658  -0.38596
 Alpha  occ. eigenvalues --   -0.38511  -0.38252  -0.38104  -0.37922  -0.37898
 Alpha  occ. eigenvalues --   -0.37671  -0.37457  -0.37353  -0.37078  -0.36854
 Alpha  occ. eigenvalues --   -0.36713  -0.36392  -0.36268  -0.36158  -0.35841
 Alpha  occ. eigenvalues --   -0.35784  -0.35458  -0.35127  -0.35087  -0.34888
 Alpha  occ. eigenvalues --   -0.34821  -0.34601  -0.34492  -0.34018  -0.33643
 Alpha  occ. eigenvalues --   -0.33460  -0.33040  -0.32763  -0.32596  -0.32111
 Alpha  occ. eigenvalues --   -0.31952  -0.31680  -0.31608  -0.31494  -0.31185
 Alpha  occ. eigenvalues --   -0.30737  -0.30691  -0.30376  -0.30070  -0.29638
 Alpha  occ. eigenvalues --   -0.29246  -0.28505  -0.28305  -0.27087  -0.26040
 Alpha  occ. eigenvalues --   -0.25902  -0.25643  -0.25628  -0.25446  -0.20847
 Alpha  occ. eigenvalues --   -0.18771
 Alpha virt. eigenvalues --   -0.11212  -0.05053  -0.03422  -0.01967  -0.00549
 Alpha virt. eigenvalues --    0.00503   0.00862   0.01355   0.01631   0.03383
 Alpha virt. eigenvalues --    0.04222   0.04981   0.05510   0.05856   0.05911

 Mulliken charges:
               1
     1  Mg   1.028714
     2  C   -0.017288
     3  C   -0.086129
     4  C   -0.074787
     5  C   -0.083522
     6  N   -0.396062
     7  C    0.014727
     8  C   -0.040658
     9  C   -0.146924
    10  C    0.077365
    11  C    0.007610
    12  C    0.005940
    13  C   -0.027872
    14  C    0.246252
    15  O   -0.255680
    16  O   -0.381334
    17  N   -0.538260
    18  C    0.208670
    19  C   -0.197768
    20  C   -0.066205
    21  C    0.150182
    22  C    0.058201
    23  C    0.079081
    24  O   -0.214053
    25  C   -0.066954
    26  N   -0.373671
    27  C    0.089897
    28  C   -0.166818
    29  C   -0.080657
    30  C    0.112824
    31  C    0.009806
    32  C   -0.044727
    33  C   -0.054756
    34  N   -0.530106
    35  C    0.127997
    36  C   -0.165036
    37  C   -0.063912
    38  C    0.193574
    39  C    0.064785
    40  C    0.091047
    41  O   -0.178543
    42  C   -0.116780
    43  C    0.292648
    44  O   -0.250051
    45  O   -0.386476
    46  C    0.117334
    47  C    0.231457
    48  C   -0.117049
    49  C   -0.192386
    50  C   -0.009978
    51  C    0.022420
    52  C   -0.086558
    53  C    0.032864
    54  C   -0.220340
    55  C   -0.029529
    56  C   -0.022741
    57  C   -0.020646
    58  C   -0.000919
    59  C   -0.271869
    60  C    0.015401
    61  C    0.030516
    62  C   -0.068160
    63  C   -0.048279
    64  C   -0.201396
    65  C   -0.003709
    66  C   -0.014181
    67  H   -0.008157
    68  H    0.026374
    69  H   -0.007253
    70  H    0.040496
    71  H    0.041641
    72  H    0.052090
    73  H    0.052224
    74  H    0.041610
    75  H    0.042086
    76  H    0.074710
    77  H    0.071597
    78  H    0.071572
    79  H    0.035803
    80  H    0.050696
    81  H    0.063419
    82  H    0.062663
    83  H    0.062405
    84  H    0.050918
    85  H    0.064544
    86  H    0.050411
    87  H    0.056175
    88  H    0.043182
    89  H    0.041574
    90  H    0.039286
    91  H    0.035037
    92  H    0.049147
    93  H    0.052027
    94  H    0.048856
    95  H    0.076752
    96  H    0.034911
    97  H    0.072216
    98  H    0.066171
    99  H    0.051944
   100  H    0.070436
   101  H    0.066892
   102  H    0.064716
   103  H    0.032387
   104  H    0.019572
   105  H    0.063749
   106  H    0.062619
   107  H    0.041866
   108  H    0.029861
   109  H    0.046652
   110  H    0.021090
   111  H    0.042619
   112  H    0.023464
   113  H    0.023013
   114  H    0.022018
   115  H    0.024594
   116  H    0.034512
   117  H    0.028729
   118  H    0.027346
   119  H    0.025775
   120  H    0.028284
   121  H    0.023899
   122  H    0.020585
   123  H    0.024058
   124  H    0.035904
   125  H    0.024255
   126  H    0.020367
   127  H    0.048223
   128  H    0.019030
   129  H    0.020292
   130  H    0.035934
   131  H    0.039880
   132  H    0.031048
   133  H    0.034028
   134  H    0.031021
   135  H    0.022335
   136  H    0.041999
   137  H    0.039054
   138  H    0.035585
   139  H    0.021862
   140  H    0.026779
 Sum of Mulliken charges =  -0.00000

 Dipole moment (field-independent basis, Debye):
    X=              1.8863    Y=              1.6661    Z=              2.5405  Tot=              3.5761
 Quadrupole moment (field-independent basis, Debye-Ang):
   XX=           -364.9446   YY=           -411.8743   ZZ=           -399.5692
   XY=              7.5771   XZ=              0.3497   YZ=              5.9826

 Normal termination of Gaussian 16 at Thu Apr 28 15:03:31 2022.
