 Gaussian 16, Revision A.03,
 Gaussian 16:  ES64L-G16RevA.03 25-Dec-2016

 --------------------------------
 #p wB97XD/Def2SVP td=(nstates=5)
 --------------------------------

 -----------------------------------------------------
 step_1601_chromophore_22 TDDFT with wB97XD functional
 -----------------------------------------------------
 Symbolic Z-matrix:
 Charge =  0 Multiplicity = 1

                         Standard orientation:
 ---------------------------------------------------------------------
 Center     Atomic      Atomic             Coordinates (Angstroms)
 Number     Number       Type             X           Y           Z
 ---------------------------------------------------------------------
      1         12           0       -5.878307    0.419700    0.187340
      2          6           0       -3.357113   -1.886849    0.266320
      3          6           0       -3.810461    2.500457    1.888656
      4          6           0       -8.260817    2.732075   -0.159590
      5          6           0       -8.214715   -2.065882   -0.487858
      6          7           0       -3.897377    0.257617    1.029995
      7          6           0       -2.975198   -0.727165    0.873807
      8          6           0       -1.573752   -0.433525    1.468475
      9          6           0       -1.896656    0.860432    2.239483
     10          6           0       -3.309695    1.249287    1.752980
     11          6           0       -1.772227    0.721645    3.822404
     12          6           0       -0.427396   -0.294301    0.462104
     13          6           0        0.935928   -0.875315    0.914454
     14          6           0        1.864108   -1.279957   -0.237314
     15          8           0        1.811573   -0.989967   -1.415509
     16          8           0        2.919273   -2.081854    0.212492
     17          7           0       -6.004925    2.345536    0.768309
     18          6           0       -5.081363    3.095416    1.462320
     19          6           0       -5.438184    4.498778    1.411184
     20          6           0       -6.786460    4.613537    0.944739
     21          6           0       -7.118597    3.249762    0.539697
     22          6           0       -4.457993    5.616742    1.842353
     23          6           0       -7.650711    5.841637    0.589950
     24          8           0       -8.690362    5.816696   -0.031734
     25          6           0       -7.088654    7.262527    1.122837
     26          7           0       -7.974893    0.335955   -0.321036
     27          6           0       -8.712613    1.460218   -0.467716
     28          6           0      -10.010280    1.213199   -1.160234
     29          6           0      -10.187835   -0.342762   -0.931049
     30          6           0       -8.720712   -0.775129   -0.560160
     31          6           0      -11.288497    2.062752   -0.728229
     32          6           0      -10.772364   -0.936311   -2.196003
     33          6           0      -11.100504   -2.486643   -2.246240
     34          7           0       -5.851828   -1.519347   -0.149377
     35          6           0       -6.895470   -2.438390   -0.381497
     36          6           0       -6.346555   -3.825810   -0.548772
     37          6           0       -4.936479   -3.613532   -0.380090
     38          6           0       -4.695269   -2.185941   -0.130586
     39          6           0       -7.026877   -5.158982   -0.953656
     40          6           0       -3.670743   -4.305502   -0.288819
     41          8           0       -3.395131   -5.456415   -0.426652
     42          6           0       -2.625177   -3.179593    0.007930
     43          6           0       -1.672858   -3.205513   -1.156419
     44          8           0       -1.835007   -2.701773   -2.248516
     45          8           0       -0.515659   -3.912187   -0.868522
     46          6           0        0.522881   -3.888395   -1.928082
     47          6           0        3.949565   -2.478104   -0.737750
     48          6           0        5.257361   -2.099373   -0.134947
     49          6           0        6.293077   -2.798623    0.343270
     50          6           0        6.340234   -4.283624    0.335984
     51          6           0        7.709377   -2.220532    0.402991
     52          6           0        8.390292   -2.517883    1.728323
     53          6           0        9.049090   -1.413118    2.586085
     54          6           0       10.538789   -1.378149    2.807533
     55          6           0       10.865482   -1.714222    4.277045
     56          6           0       11.166687    0.024669    2.484291
     57          6           0       11.328071    0.254598    0.974242
     58          6           0       12.788086    0.045554    0.488987
     59          6           0       13.370268    1.323054   -0.293078
     60          6           0       14.837387    1.485670    0.157196
     61          6           0       13.249134    1.253832   -1.784391
     62          6           0       12.927064    2.686233   -2.422375
     63          6           0       11.344707    2.955975   -2.597183
     64          6           0       10.958917    4.020859   -3.589031
     65          6           0       11.819626    5.297871   -3.522432
     66          6           0        9.444503    4.250728   -3.521495
     67          1           0       -3.035722    3.126792    2.335897
     68          1           0       -8.972019    3.496053   -0.478273
     69          1           0       -8.880704   -2.920412   -0.625261
     70          1           0       -1.348188   -1.194194    2.216076
     71          1           0       -1.305082    1.714287    1.910229
     72          1           0       -2.428870    1.345283    4.430259
     73          1           0       -0.721473    0.884775    4.062835
     74          1           0       -2.073099   -0.297866    4.061557
     75          1           0       -0.317853    0.750298    0.170488
     76          1           0       -0.694308   -0.774316   -0.478343
     77          1           0        0.800617   -1.590171    1.727049
     78          1           0        1.416432   -0.001311    1.354501
     79          1           0       -3.555636    5.181263    2.270476
     80          1           0       -4.900146    6.195572    2.652986
     81          1           0       -4.219634    6.272325    1.005067
     82          1           0       -6.166930    7.487138    0.585203
     83          1           0       -6.966258    7.210755    2.204565
     84          1           0       -7.791528    8.079472    0.959132
     85          1           0       -9.896154    1.486128   -2.209050
     86          1           0      -10.789677   -0.479466   -0.032809
     87          1           0      -10.990611    2.845990   -0.031763
     88          1           0      -12.046247    1.414276   -0.288762
     89          1           0      -11.664080    2.574188   -1.614073
     90          1           0      -10.153561   -0.640688   -3.042879
     91          1           0      -11.727007   -0.419425   -2.296121
     92          1           0      -10.936849   -2.851098   -1.231927
     93          1           0      -10.351607   -2.876603   -2.936354
     94          1           0      -12.101689   -2.768508   -2.569946
     95          1           0       -6.548984   -5.395029   -1.904610
     96          1           0       -8.099733   -5.096838   -1.136382
     97          1           0       -6.856725   -5.916978   -0.189796
     98          1           0       -2.174464   -3.571416    0.920429
     99          1           0        1.479734   -3.896000   -1.406029
    100          1           0        0.621713   -2.938852   -2.454048
    101          1           0        0.288937   -4.662413   -2.659881
    102          1           0        3.859940   -2.075605   -1.746930
    103          1           0        3.886672   -3.557629   -0.880322
    104          1           0        5.502725   -1.069479   -0.394495
    105          1           0        6.337846   -4.567419   -0.716555
    106          1           0        5.464571   -4.645093    0.875098
    107          1           0        7.221674   -4.716950    0.807475
    108          1           0        7.730011   -1.137780    0.280163
    109          1           0        8.329410   -2.726104   -0.335629
    110          1           0        9.204114   -3.158584    1.389364
    111          1           0        7.766054   -3.060029    2.438398
    112          1           0        8.639376   -1.609990    3.576822
    113          1           0        8.804768   -0.424440    2.197240
    114          1           0       10.977265   -2.142275    2.165873
    115          1           0       10.362418   -2.631682    4.583572
    116          1           0       10.608922   -0.999718    5.059663
    117          1           0       11.916164   -1.936031    4.464381
    118          1           0       12.155213    0.032405    2.944720
    119          1           0       10.523376    0.726279    3.014555
    120          1           0       10.980288    1.250926    0.701919
    121          1           0       10.642467   -0.415097    0.456832
    122          1           0       12.771376   -0.810161   -0.186066
    123          1           0       13.457981   -0.273953    1.286912
    124          1           0       12.832514    2.202366    0.060752
    125          1           0       14.859510    2.471899    0.620510
    126          1           0       15.408541    1.658556   -0.755014
    127          1           0       15.223805    0.709609    0.817241
    128          1           0       12.494689    0.500584   -2.010555
    129          1           0       14.178766    0.806117   -2.135251
    130          1           0       13.478688    2.697902   -3.363209
    131          1           0       13.255812    3.424387   -1.690569
    132          1           0       11.006404    3.173848   -1.584754
    133          1           0       10.943623    1.997906   -2.930555
    134          1           0       11.179831    3.609371   -4.573619
    135          1           0       11.266240    6.235957   -3.487072
    136          1           0       12.309430    5.337228   -4.495772
    137          1           0       12.372134    5.320783   -2.582786
    138          1           0        8.947473    4.516037   -4.455056
    139          1           0        9.234715    5.076275   -2.841711
    140          1           0        8.847485    3.455560   -3.075664
 ---------------------------------------------------------------------

 SCF Done:  E(RwB97XD) =  -3007.88180762     A.U. after   19 cycles

 Excitation energies and oscillator strengths:

 Excited State   1:      Singlet-A      1.6273 eV  761.90 nm  f=0.3818  <S**2>=0.000
     245 -> 248        0.17460
     246 -> 247        0.68434
     245 <- 248        0.11268
 This state for optimization and/or second-order correction.
 Total Energy, E(TD-HF/TD-DFT) =  -3007.82200537
 Copying the excited state density for this state as the 1-particle RhoCI density.

 Excited State   2:      Singlet-A      2.1751 eV  570.01 nm  f=0.1314  <S**2>=0.000
     245 -> 247        0.64820
     246 -> 248       -0.26701

 Excited State   3:      Singlet-A      3.4311 eV  361.36 nm  f=0.0192  <S**2>=0.000
     242 -> 247       -0.20151
     244 -> 247        0.62848
     246 -> 248        0.18361

 Excited State   4:      Singlet-A      3.5154 eV  352.69 nm  f=0.1634  <S**2>=0.000
     241 -> 247        0.40461
     241 -> 249       -0.20636
     241 -> 250       -0.10933
     242 -> 247        0.25454
     245 -> 247        0.13439
     246 -> 248        0.39289

 Excited State   5:      Singlet-A      3.5986 eV  344.53 nm  f=0.0453  <S**2>=0.000
     239 -> 247       -0.11833
     241 -> 247       -0.36337
     241 -> 249        0.18379
     242 -> 247        0.47631
     246 -> 248        0.22864

 The electronic state is 1-A.
 Alpha  occ. eigenvalues --  -46.93129 -19.29564 -19.28848 -19.25590 -19.24842
 Alpha  occ. eigenvalues --  -19.24161 -19.23862 -14.46336 -14.46018 -14.44154
 Alpha  occ. eigenvalues --  -14.44148 -10.44150 -10.42407 -10.40202 -10.38642
 Alpha  occ. eigenvalues --  -10.35657 -10.35169 -10.34858 -10.34587 -10.34324
 Alpha  occ. eigenvalues --  -10.34125 -10.34000 -10.33962 -10.33959 -10.33770
 Alpha  occ. eigenvalues --  -10.33757 -10.32738 -10.32720 -10.32630 -10.32284
 Alpha  occ. eigenvalues --  -10.32069 -10.31945 -10.31576 -10.31498 -10.31256
 Alpha  occ. eigenvalues --  -10.31180 -10.31121 -10.31109 -10.31032 -10.30728
 Alpha  occ. eigenvalues --  -10.30728 -10.30461 -10.30172 -10.30140 -10.30026
 Alpha  occ. eigenvalues --  -10.29785 -10.29783 -10.29719 -10.29665 -10.29565
 Alpha  occ. eigenvalues --  -10.29472 -10.29441 -10.29418 -10.29118 -10.29056
 Alpha  occ. eigenvalues --  -10.29033 -10.28844 -10.28802 -10.28694 -10.28606
 Alpha  occ. eigenvalues --  -10.28486 -10.28342 -10.28202 -10.28189 -10.28024
 Alpha  occ. eigenvalues --  -10.27775  -3.19461  -1.93049  -1.92580  -1.92485
 Alpha  occ. eigenvalues --   -1.18452  -1.17140  -1.13828  -1.13159  -1.10015
 Alpha  occ. eigenvalues --   -1.08479  -1.06403  -1.05812  -1.04544  -1.02746
 Alpha  occ. eigenvalues --   -0.94511  -0.92920  -0.92143  -0.91562  -0.90806
 Alpha  occ. eigenvalues --   -0.90554  -0.90264  -0.89578  -0.89363  -0.88103
 Alpha  occ. eigenvalues --   -0.87898  -0.87629  -0.86339  -0.85384  -0.84753
 Alpha  occ. eigenvalues --   -0.84318  -0.82836  -0.82496  -0.82093  -0.81686
 Alpha  occ. eigenvalues --   -0.81385  -0.80361  -0.79984  -0.78537  -0.77756
 Alpha  occ. eigenvalues --   -0.77641  -0.77604  -0.77124  -0.76314  -0.76108
 Alpha  occ. eigenvalues --   -0.75721  -0.74840  -0.73543  -0.72655  -0.71547
 Alpha  occ. eigenvalues --   -0.70454  -0.70273  -0.68983  -0.68819  -0.67830
 Alpha  occ. eigenvalues --   -0.67430  -0.67382  -0.66451  -0.66238  -0.65572
 Alpha  occ. eigenvalues --   -0.65433  -0.64540  -0.63970  -0.63277  -0.62373
 Alpha  occ. eigenvalues --   -0.61723  -0.61148  -0.60998  -0.60402  -0.60141
 Alpha  occ. eigenvalues --   -0.59368  -0.58814  -0.58494  -0.58016  -0.57420
 Alpha  occ. eigenvalues --   -0.56929  -0.56803  -0.56493  -0.56313  -0.55789
 Alpha  occ. eigenvalues --   -0.55599  -0.55290  -0.55048  -0.54784  -0.54628
 Alpha  occ. eigenvalues --   -0.54068  -0.53867  -0.53606  -0.53584  -0.53413
 Alpha  occ. eigenvalues --   -0.53127  -0.52856  -0.52841  -0.52777  -0.52311
 Alpha  occ. eigenvalues --   -0.52157  -0.51931  -0.51830  -0.51763  -0.51470
 Alpha  occ. eigenvalues --   -0.51303  -0.51007  -0.50872  -0.50855  -0.50613
 Alpha  occ. eigenvalues --   -0.50428  -0.50215  -0.50186  -0.49840  -0.49555
 Alpha  occ. eigenvalues --   -0.49327  -0.49123  -0.49042  -0.48969  -0.48825
 Alpha  occ. eigenvalues --   -0.48712  -0.48427  -0.48292  -0.47945  -0.47662
 Alpha  occ. eigenvalues --   -0.47465  -0.47322  -0.47238  -0.47069  -0.46680
 Alpha  occ. eigenvalues --   -0.46428  -0.46230  -0.45996  -0.45823  -0.45732
 Alpha  occ. eigenvalues --   -0.45621  -0.45343  -0.45265  -0.45086  -0.45016
 Alpha  occ. eigenvalues --   -0.44806  -0.44555  -0.44362  -0.44187  -0.43867
 Alpha  occ. eigenvalues --   -0.43744  -0.43542  -0.43334  -0.43242  -0.42889
 Alpha  occ. eigenvalues --   -0.42760  -0.42672  -0.42246  -0.42166  -0.41973
 Alpha  occ. eigenvalues --   -0.41783  -0.41700  -0.41491  -0.41096  -0.40551
 Alpha  occ. eigenvalues --   -0.40526  -0.39945  -0.39777  -0.39581  -0.39135
 Alpha  occ. eigenvalues --   -0.38982  -0.38680  -0.38516  -0.38494  -0.38229
 Alpha  occ. eigenvalues --   -0.37787  -0.37613  -0.37455  -0.37228  -0.36486
 Alpha  occ. eigenvalues --   -0.36126  -0.35579  -0.35058  -0.33733  -0.33017
 Alpha  occ. eigenvalues --   -0.32754  -0.32628  -0.32348  -0.31900  -0.25877
 Alpha  occ. eigenvalues --   -0.22982
 Alpha virt. eigenvalues --   -0.07081   0.00498   0.02825   0.04563   0.06148
 Alpha virt. eigenvalues --    0.06749   0.07349   0.08104   0.08339   0.09590
 Alpha virt. eigenvalues --    0.10900   0.11774   0.12253   0.12610   0.12679

 Mulliken charges:
               1
     1  Mg   1.013471
     2  C   -0.023280
     3  C   -0.100872
     4  C   -0.077991
     5  C   -0.087966
     6  N   -0.363573
     7  C   -0.008002
     8  C   -0.018097
     9  C   -0.120064
    10  C    0.063834
    11  C    0.019494
    12  C    0.018352
    13  C   -0.011854
    14  C    0.231475
    15  O   -0.250103
    16  O   -0.379123
    17  N   -0.511380
    18  C    0.199254
    19  C   -0.190586
    20  C   -0.063921
    21  C    0.139457
    22  C    0.072646
    23  C    0.073991
    24  O   -0.209767
    25  C   -0.051195
    26  N   -0.335105
    27  C    0.072183
    28  C   -0.144330
    29  C   -0.045907
    30  C    0.088503
    31  C    0.019664
    32  C   -0.032684
    33  C   -0.037785
    34  N   -0.493075
    35  C    0.124448
    36  C   -0.165282
    37  C   -0.062749
    38  C    0.175674
    39  C    0.078655
    40  C    0.078766
    41  O   -0.168271
    42  C   -0.077515
    43  C    0.266187
    44  O   -0.243009
    45  O   -0.384069
    46  C    0.137288
    47  C    0.246871
    48  C   -0.122371
    49  C   -0.180910
    50  C   -0.001332
    51  C    0.044993
    52  C   -0.072762
    53  C    0.045050
    54  C   -0.190147
    55  C   -0.016362
    56  C   -0.003268
    57  C   -0.002527
    58  C    0.014138
    59  C   -0.240346
    60  C    0.027191
    61  C    0.043639
    62  C   -0.046938
    63  C   -0.031152
    64  C   -0.172768
    65  C    0.006548
    66  C   -0.003630
    67  H   -0.018563
    68  H    0.018390
    69  H   -0.020600
    70  H    0.026642
    71  H    0.031134
    72  H    0.047551
    73  H    0.045905
    74  H    0.034066
    75  H    0.036750
    76  H    0.059373
    77  H    0.067647
    78  H    0.065193
    79  H    0.030465
    80  H    0.043358
    81  H    0.057189
    82  H    0.056280
    83  H    0.056337
    84  H    0.048848
    85  H    0.053065
    86  H    0.040103
    87  H    0.050127
    88  H    0.037175
    89  H    0.036803
    90  H    0.032118
    91  H    0.025324
    92  H    0.041589
    93  H    0.045234
    94  H    0.045597
    95  H    0.072655
    96  H    0.031066
    97  H    0.069227
    98  H    0.060147
    99  H    0.042567
   100  H    0.064829
   101  H    0.064914
   102  H    0.061329
   103  H    0.026461
   104  H    0.015276
   105  H    0.057918
   106  H    0.057444
   107  H    0.036814
   108  H    0.020987
   109  H    0.038954
   110  H    0.011039
   111  H    0.034594
   112  H    0.014596
   113  H    0.012091
   114  H    0.008203
   115  H    0.017223
   116  H    0.028462
   117  H    0.022819
   118  H    0.016477
   119  H    0.017189
   120  H    0.018982
   121  H    0.011578
   122  H    0.012043
   123  H    0.013520
   124  H    0.018862
   125  H    0.018540
   126  H    0.012845
   127  H    0.043453
   128  H    0.008455
   129  H    0.012094
   130  H    0.029074
   131  H    0.026812
   132  H    0.020202
   133  H    0.024047
   134  H    0.020262
   135  H    0.017038
   136  H    0.037300
   137  H    0.032070
   138  H    0.031024
   139  H    0.014444
   140  H    0.021273
 Sum of Mulliken charges =  -0.00000

 Dipole moment (field-independent basis, Debye):
    X=              1.8310    Y=              1.3146    Z=              2.4448  Tot=              3.3253
 Quadrupole moment (field-independent basis, Debye-Ang):
   XX=           -364.5099   YY=           -410.2967   ZZ=           -399.4806
   XY=              9.5571   XZ=              0.6359   YZ=              6.0841

 Normal termination of Gaussian 16 at Thu Apr 28 15:40:34 2022.
