 Gaussian 16, Revision A.03,
 Gaussian 16:  ES64L-G16RevA.03 25-Dec-2016

 --------------------
 #p ZINDO=(nstates=5)
 --------------------

 ------------------------------
 step_1601_chromophore_22 ZINDO
 ------------------------------
 Symbolic Z-matrix:
 Charge =  0 Multiplicity = 1

                         Standard orientation:
 ---------------------------------------------------------------------
 Center     Atomic      Atomic             Coordinates (Angstroms)
 Number     Number       Type             X           Y           Z
 ---------------------------------------------------------------------
      1         12           0       -5.878307    0.419700    0.187340
      2          6           0       -3.357113   -1.886849    0.266320
      3          6           0       -3.810461    2.500457    1.888656
      4          6           0       -8.260817    2.732075   -0.159590
      5          6           0       -8.214715   -2.065882   -0.487858
      6          7           0       -3.897377    0.257617    1.029995
      7          6           0       -2.975198   -0.727165    0.873807
      8          6           0       -1.573752   -0.433525    1.468475
      9          6           0       -1.896656    0.860432    2.239483
     10          6           0       -3.309695    1.249287    1.752980
     11          6           0       -1.772227    0.721645    3.822404
     12          6           0       -0.427396   -0.294301    0.462104
     13          6           0        0.935928   -0.875315    0.914454
     14          6           0        1.864108   -1.279957   -0.237314
     15          8           0        1.811573   -0.989967   -1.415509
     16          8           0        2.919273   -2.081854    0.212492
     17          7           0       -6.004925    2.345536    0.768309
     18          6           0       -5.081363    3.095416    1.462320
     19          6           0       -5.438184    4.498778    1.411184
     20          6           0       -6.786460    4.613537    0.944739
     21          6           0       -7.118597    3.249762    0.539697
     22          6           0       -4.457993    5.616742    1.842353
     23          6           0       -7.650711    5.841637    0.589950
     24          8           0       -8.690362    5.816696   -0.031734
     25          6           0       -7.088654    7.262527    1.122837
     26          7           0       -7.974893    0.335955   -0.321036
     27          6           0       -8.712613    1.460218   -0.467716
     28          6           0      -10.010280    1.213199   -1.160234
     29          6           0      -10.187835   -0.342762   -0.931049
     30          6           0       -8.720712   -0.775129   -0.560160
     31          6           0      -11.288497    2.062752   -0.728229
     32          6           0      -10.772364   -0.936311   -2.196003
     33          6           0      -11.100504   -2.486643   -2.246240
     34          7           0       -5.851828   -1.519347   -0.149377
     35          6           0       -6.895470   -2.438390   -0.381497
     36          6           0       -6.346555   -3.825810   -0.548772
     37          6           0       -4.936479   -3.613532   -0.380090
     38          6           0       -4.695269   -2.185941   -0.130586
     39          6           0       -7.026877   -5.158982   -0.953656
     40          6           0       -3.670743   -4.305502   -0.288819
     41          8           0       -3.395131   -5.456415   -0.426652
     42          6           0       -2.625177   -3.179593    0.007930
     43          6           0       -1.672858   -3.205513   -1.156419
     44          8           0       -1.835007   -2.701773   -2.248516
     45          8           0       -0.515659   -3.912187   -0.868522
     46          6           0        0.522881   -3.888395   -1.928082
     47          6           0        3.949565   -2.478104   -0.737750
     48          6           0        5.257361   -2.099373   -0.134947
     49          6           0        6.293077   -2.798623    0.343270
     50          6           0        6.340234   -4.283624    0.335984
     51          6           0        7.709377   -2.220532    0.402991
     52          6           0        8.390292   -2.517883    1.728323
     53          6           0        9.049090   -1.413118    2.586085
     54          6           0       10.538789   -1.378149    2.807533
     55          6           0       10.865482   -1.714222    4.277045
     56          6           0       11.166687    0.024669    2.484291
     57          6           0       11.328071    0.254598    0.974242
     58          6           0       12.788086    0.045554    0.488987
     59          6           0       13.370268    1.323054   -0.293078
     60          6           0       14.837387    1.485670    0.157196
     61          6           0       13.249134    1.253832   -1.784391
     62          6           0       12.927064    2.686233   -2.422375
     63          6           0       11.344707    2.955975   -2.597183
     64          6           0       10.958917    4.020859   -3.589031
     65          6           0       11.819626    5.297871   -3.522432
     66          6           0        9.444503    4.250728   -3.521495
     67          1           0       -3.035722    3.126792    2.335897
     68          1           0       -8.972019    3.496053   -0.478273
     69          1           0       -8.880704   -2.920412   -0.625261
     70          1           0       -1.348188   -1.194194    2.216076
     71          1           0       -1.305082    1.714287    1.910229
     72          1           0       -2.428870    1.345283    4.430259
     73          1           0       -0.721473    0.884775    4.062835
     74          1           0       -2.073099   -0.297866    4.061557
     75          1           0       -0.317853    0.750298    0.170488
     76          1           0       -0.694308   -0.774316   -0.478343
     77          1           0        0.800617   -1.590171    1.727049
     78          1           0        1.416432   -0.001311    1.354501
     79          1           0       -3.555636    5.181263    2.270476
     80          1           0       -4.900146    6.195572    2.652986
     81          1           0       -4.219634    6.272325    1.005067
     82          1           0       -6.166930    7.487138    0.585203
     83          1           0       -6.966258    7.210755    2.204565
     84          1           0       -7.791528    8.079472    0.959132
     85          1           0       -9.896154    1.486128   -2.209050
     86          1           0      -10.789677   -0.479466   -0.032809
     87          1           0      -10.990611    2.845990   -0.031763
     88          1           0      -12.046247    1.414276   -0.288762
     89          1           0      -11.664080    2.574188   -1.614073
     90          1           0      -10.153561   -0.640688   -3.042879
     91          1           0      -11.727007   -0.419425   -2.296121
     92          1           0      -10.936849   -2.851098   -1.231927
     93          1           0      -10.351607   -2.876603   -2.936354
     94          1           0      -12.101689   -2.768508   -2.569946
     95          1           0       -6.548984   -5.395029   -1.904610
     96          1           0       -8.099733   -5.096838   -1.136382
     97          1           0       -6.856725   -5.916978   -0.189796
     98          1           0       -2.174464   -3.571416    0.920429
     99          1           0        1.479734   -3.896000   -1.406029
    100          1           0        0.621713   -2.938852   -2.454048
    101          1           0        0.288937   -4.662413   -2.659881
    102          1           0        3.859940   -2.075605   -1.746930
    103          1           0        3.886672   -3.557629   -0.880322
    104          1           0        5.502725   -1.069479   -0.394495
    105          1           0        6.337846   -4.567419   -0.716555
    106          1           0        5.464571   -4.645093    0.875098
    107          1           0        7.221674   -4.716950    0.807475
    108          1           0        7.730011   -1.137780    0.280163
    109          1           0        8.329410   -2.726104   -0.335629
    110          1           0        9.204114   -3.158584    1.389364
    111          1           0        7.766054   -3.060029    2.438398
    112          1           0        8.639376   -1.609990    3.576822
    113          1           0        8.804768   -0.424440    2.197240
    114          1           0       10.977265   -2.142275    2.165873
    115          1           0       10.362418   -2.631682    4.583572
    116          1           0       10.608922   -0.999718    5.059663
    117          1           0       11.916164   -1.936031    4.464381
    118          1           0       12.155213    0.032405    2.944720
    119          1           0       10.523376    0.726279    3.014555
    120          1           0       10.980288    1.250926    0.701919
    121          1           0       10.642467   -0.415097    0.456832
    122          1           0       12.771376   -0.810161   -0.186066
    123          1           0       13.457981   -0.273953    1.286912
    124          1           0       12.832514    2.202366    0.060752
    125          1           0       14.859510    2.471899    0.620510
    126          1           0       15.408541    1.658556   -0.755014
    127          1           0       15.223805    0.709609    0.817241
    128          1           0       12.494689    0.500584   -2.010555
    129          1           0       14.178766    0.806117   -2.135251
    130          1           0       13.478688    2.697902   -3.363209
    131          1           0       13.255812    3.424387   -1.690569
    132          1           0       11.006404    3.173848   -1.584754
    133          1           0       10.943623    1.997906   -2.930555
    134          1           0       11.179831    3.609371   -4.573619
    135          1           0       11.266240    6.235957   -3.487072
    136          1           0       12.309430    5.337228   -4.495772
    137          1           0       12.372134    5.320783   -2.582786
    138          1           0        8.947473    4.516037   -4.455056
    139          1           0        9.234715    5.076275   -2.841711
    140          1           0        8.847485    3.455560   -3.075664
 ---------------------------------------------------------------------

 SCF Done:  E(RZINDO/S) =  -474.210055172     A.U. after   19 cycles

 Excitation energies and oscillator strengths:

 Excited State   1:      Singlet-A      1.2487 eV  992.90 nm  f=0.5837  <S**2>=0.000
     175 ->178        -0.18465
     176 ->177         0.66384
 This state for optimization and/or second-order correction.
 Total Energy, E(CIS/TDA) =  -474.164165903
 Copying the excited state density for this state as the 1-particle RhoCI density.

 Excited State   2:      Singlet-A      1.9540 eV  634.51 nm  f=0.0574  <S**2>=0.000
     175 ->177         0.56053
     176 ->178         0.40495

 Excited State   3:      Singlet-A      2.9761 eV  416.59 nm  f=0.3442  <S**2>=0.000
     168 ->177         0.14289
     168 ->179        -0.18185
     169 ->177        -0.27381
     169 ->179         0.32218
     169 ->180        -0.11309
     169 ->186         0.11690
     175 ->177        -0.21683
     176 ->178         0.31944

 Excited State   4:      Singlet-A      3.0190 eV  410.68 nm  f=0.6594  <S**2>=0.000
     168 ->177        -0.10668
     168 ->179         0.13308
     169 ->177         0.18786
     169 ->179        -0.23598
     175 ->177        -0.28865
     176 ->178         0.40412
     176 ->179        -0.17332
     176 ->180        -0.16458

 Excited State   5:      Singlet-A      3.1297 eV  396.16 nm  f=0.1261  <S**2>=0.000
     168 ->180        -0.10153
     171 ->177        -0.11344
     175 ->177        -0.12945
     176 ->178         0.17452
     176 ->179         0.58836
     176 ->180         0.16424

 The electronic state is 1-A.
 Alpha  occ. eigenvalues --   -1.84219  -1.80998  -1.78119  -1.73072  -1.71406
 Alpha  occ. eigenvalues --   -1.68598  -1.65658  -1.61623  -1.60041  -1.56336
 Alpha  occ. eigenvalues --   -1.55988  -1.53256  -1.50037  -1.49085  -1.46892
 Alpha  occ. eigenvalues --   -1.44235  -1.42594  -1.39872  -1.38135  -1.36771
 Alpha  occ. eigenvalues --   -1.35502  -1.32424  -1.32285  -1.31571  -1.27708
 Alpha  occ. eigenvalues --   -1.27280  -1.25341  -1.21276  -1.19948  -1.17686
 Alpha  occ. eigenvalues --   -1.16767  -1.16654  -1.15120  -1.13559  -1.12641
 Alpha  occ. eigenvalues --   -1.11490  -1.10680  -1.10177  -1.05179  -1.04444
 Alpha  occ. eigenvalues --   -1.03682  -1.01193  -0.99580  -0.97874  -0.97604
 Alpha  occ. eigenvalues --   -0.96391  -0.93841  -0.93525  -0.92149  -0.91737
 Alpha  occ. eigenvalues --   -0.90906  -0.88789  -0.88551  -0.88168  -0.86271
 Alpha  occ. eigenvalues --   -0.85871  -0.84180  -0.83805  -0.82205  -0.80026
 Alpha  occ. eigenvalues --   -0.79242  -0.78956  -0.78016  -0.77517  -0.76782
 Alpha  occ. eigenvalues --   -0.76066  -0.75846  -0.75079  -0.74035  -0.73478
 Alpha  occ. eigenvalues --   -0.72347  -0.71799  -0.71759  -0.71229  -0.71105
 Alpha  occ. eigenvalues --   -0.70629  -0.69626  -0.69057  -0.68245  -0.67531
 Alpha  occ. eigenvalues --   -0.67076  -0.66274  -0.65843  -0.65479  -0.65193
 Alpha  occ. eigenvalues --   -0.65007  -0.64310  -0.64088  -0.63792  -0.63618
 Alpha  occ. eigenvalues --   -0.63324  -0.62653  -0.62138  -0.61947  -0.61844
 Alpha  occ. eigenvalues --   -0.60994  -0.60758  -0.60422  -0.60021  -0.59594
 Alpha  occ. eigenvalues --   -0.59496  -0.59258  -0.58698  -0.58489  -0.58232
 Alpha  occ. eigenvalues --   -0.57827  -0.57657  -0.57221  -0.57099  -0.56432
 Alpha  occ. eigenvalues --   -0.56327  -0.55779  -0.55483  -0.54824  -0.54451
 Alpha  occ. eigenvalues --   -0.53855  -0.53576  -0.53231  -0.52768  -0.52551
 Alpha  occ. eigenvalues --   -0.52475  -0.51863  -0.51490  -0.51119  -0.50871
 Alpha  occ. eigenvalues --   -0.50747  -0.50531  -0.50301  -0.50110  -0.49984
 Alpha  occ. eigenvalues --   -0.49698  -0.49139  -0.49099  -0.49049  -0.48897
 Alpha  occ. eigenvalues --   -0.48740  -0.48326  -0.47991  -0.47678  -0.47366
 Alpha  occ. eigenvalues --   -0.47305  -0.46878  -0.46622  -0.46533  -0.46370
 Alpha  occ. eigenvalues --   -0.46105  -0.46069  -0.45777  -0.45466  -0.45239
 Alpha  occ. eigenvalues --   -0.45033  -0.44736  -0.44703  -0.44547  -0.44058
 Alpha  occ. eigenvalues --   -0.43990  -0.43957  -0.43533  -0.42599  -0.42204
 Alpha  occ. eigenvalues --   -0.42078  -0.41612  -0.41161  -0.39265  -0.38978
 Alpha  occ. eigenvalues --   -0.38110  -0.37355  -0.35281  -0.35123  -0.34448
 Alpha  occ. eigenvalues --   -0.33521  -0.32742  -0.32501  -0.31936  -0.26577
 Alpha  occ. eigenvalues --   -0.21785
 Alpha virt. eigenvalues --   -0.08436  -0.01697  -0.00362   0.01598   0.01940
 Alpha virt. eigenvalues --    0.02939   0.03200   0.03383   0.03770   0.05393
 Alpha virt. eigenvalues --    0.06662   0.06959   0.07037   0.07541   0.07859

 Mulliken charges:
               1
     1  Mg   0.431217
     2  C   -0.060232
     3  C   -0.088486
     4  C   -0.043170
     5  C   -0.042264
     6  N   -0.301228
     7  C    0.155169
     8  C    0.008259
     9  C   -0.004130
    10  C    0.117808
    11  C   -0.053909
    12  C   -0.021921
    13  C    0.008125
    14  C    0.468958
    15  O   -0.504346
    16  O   -0.282567
    17  N   -0.329680
    18  C    0.100105
    19  C   -0.011716
    20  C   -0.045872
    21  C    0.094223
    22  C   -0.047356
    23  C    0.325863
    24  O   -0.502338
    25  C   -0.038978
    26  N   -0.255240
    27  C    0.116574
    28  C   -0.005635
    29  C    0.009155
    30  C    0.128348
    31  C   -0.061070
    32  C   -0.029604
    33  C   -0.065896
    34  N   -0.314681
    35  C    0.104190
    36  C    0.040683
    37  C   -0.067003
    38  C    0.144365
    39  C   -0.029434
    40  C    0.341776
    41  O   -0.506430
    42  C    0.057412
    43  C    0.490571
    44  O   -0.515791
    45  O   -0.280748
    46  C    0.068932
    47  C    0.116277
    48  C   -0.078306
    49  C   -0.005321
    50  C   -0.041891
    51  C   -0.016187
    52  C   -0.040106
    53  C   -0.037251
    54  C   -0.006362
    55  C   -0.058720
    56  C   -0.035444
    57  C   -0.034829
    58  C   -0.042667
    59  C   -0.014228
    60  C   -0.067007
    61  C   -0.036731
    62  C   -0.050303
    63  C   -0.029107
    64  C    0.001200
    65  C   -0.061258
    66  C   -0.056962
    67  H    0.014766
    68  H    0.036178
    69  H    0.028543
    70  H    0.028830
    71  H    0.027725
    72  H    0.029887
    73  H    0.020313
    74  H    0.017916
    75  H    0.030344
    76  H    0.035230
    77  H    0.048262
    78  H    0.041044
    79  H    0.021728
    80  H    0.022786
    81  H    0.033859
    82  H    0.038918
    83  H    0.033098
    84  H    0.031929
    85  H    0.038668
    86  H    0.039184
    87  H    0.030562
    88  H    0.022188
    89  H    0.021898
    90  H    0.027670
    91  H    0.012690
    92  H    0.020012
    93  H    0.021326
    94  H    0.028600
    95  H    0.043017
    96  H    0.023881
    97  H    0.042931
    98  H    0.046440
    99  H    0.034213
   100  H    0.050744
   101  H    0.051310
   102  H    0.059572
   103  H    0.030089
   104  H    0.017720
   105  H    0.030929
   106  H    0.023689
   107  H    0.020000
   108  H    0.020940
   109  H    0.030927
   110  H    0.011393
   111  H    0.021881
   112  H    0.017223
   113  H    0.020329
   114  H    0.021351
   115  H    0.005713
   116  H    0.021369
   117  H    0.007842
   118  H    0.016156
   119  H    0.021603
   120  H    0.016109
   121  H    0.016979
   122  H    0.012532
   123  H    0.024215
   124  H    0.020488
   125  H    0.010498
   126  H    0.017436
   127  H    0.033407
   128  H    0.014334
   129  H    0.018321
   130  H    0.024261
   131  H    0.025067
   132  H    0.022079
   133  H    0.016425
   134  H    0.013629
   135  H    0.011374
   136  H    0.026591
   137  H    0.029669
   138  H    0.018100
   139  H    0.010151
   140  H    0.016112
 Sum of Mulliken charges =  -0.00000

 Dipole moment (field-independent basis, Debye):
    X=              2.4186    Y=              0.0120    Z=              4.7426  Tot=              5.3237
 N-N= 4.249127889810D+03 E-N= 0.000000000000D+00  KE=-9.172942777767D+03
 Leave Link  601 at Thu Apr 28 15:59:19 2022, MaxMem=  6710886400 cpu:               0.7 elap:               0.0
 (Enter /sw/apps/gaussian-16.0/g16/l9999.exe)
 1\1\GINC-BP1-COMPUTE140\SP\RZINDO CIS\STO-3G\C55H74Mg1N4O6\OF15641\28-
 Apr-2022\0\\#p ZINDO=(nstates=5)\\step_1601_chromophore_22 ZINDO\\0,1\
 Mg,0,8.565,47.034,25.336\C,0,6.863,47.061,28.3\C,0,11.223,48.277,27.03
 6\C,0,10.269,46.726,22.482\C,0,5.583,46.876,23.554\N,0,8.924,47.662,27
 .37\C,0,8.142,47.503,28.469\C,0,8.792,47.905,29.818\C,0,10.074,48.574,
 29.287\C,0,10.097,48.212,27.786\C,0,10.158,50.139,29.577\C,0,9.044,46.
 768,30.813\C,0,8.82,47.121,32.305\C,0,8.481,45.919,33.195\O,0,8.608,44

 Normal termination of Gaussian 16 at Thu Apr 28 15:59:19 2022.
