 Gaussian 16, Revision A.03,
 Gaussian 16:  ES64L-G16RevA.03 25-Dec-2016

 ------------------------------
 #p blyp/Def2SVP td=(nstates=5)
 ------------------------------

 -------------------------------------------------
 step_551_chromophore_7 TDDFT with blyp functional
 -------------------------------------------------
 Symbolic Z-matrix:
 Charge =  0 Multiplicity = 1

                         Standard orientation:
 ---------------------------------------------------------------------
 Center     Atomic      Atomic             Coordinates (Angstroms)
 Number     Number       Type             X           Y           Z
 ---------------------------------------------------------------------
      1         12           0        6.279146    0.529430    0.314565
      2          6           0        3.756302   -1.958446   -0.005881
      3          6           0        4.002921    2.749989   -1.136304
      4          6           0        8.753928    2.784555    0.198390
      5          6           0        8.572275   -1.942136    1.052069
      6          7           0        4.142564    0.299950   -0.463340
      7          6           0        3.295640   -0.715935   -0.450144
      8          6           0        1.851015   -0.307415   -0.740406
      9          6           0        2.025412    1.123380   -1.287094
     10          6           0        3.497018    1.433714   -0.919805
     11          6           0        1.723069    1.273117   -2.777544
     12          6           0        0.825574   -0.463344    0.460688
     13          6           0       -0.610996    0.079571    0.338392
     14          6           0       -1.769946   -0.989300    0.487845
     15          8           0       -1.702922   -2.112153    1.101922
     16          8           0       -2.788304   -0.768661   -0.416856
     17          7           0        6.366969    2.540405   -0.272691
     18          6           0        5.340082    3.259209   -0.844020
     19          6           0        5.856093    4.628251   -1.090495
     20          6           0        7.258414    4.640541   -0.880631
     21          6           0        7.540284    3.300791   -0.249352
     22          6           0        4.957251    5.794597   -1.576112
     23          6           0        8.313676    5.671677   -1.212199
     24          8           0        9.533696    5.456251   -0.953738
     25          6           0        7.927324    6.970683   -1.867760
     26          7           0        8.357794    0.441216    0.586963
     27          6           0        9.144573    1.544982    0.685965
     28          6           0       10.613075    1.214807    1.150277
     29          6           0       10.397514   -0.300231    1.593607
     30          6           0        9.019295   -0.606108    1.070328
     31          6           0       11.638985    1.378018   -0.032936
     32          6           0       10.452118   -0.538820    3.176021
     33          6           0       11.348591   -1.693875    3.571594
     34          7           0        6.300104   -1.540249    0.520779
     35          6           0        7.260747   -2.479463    0.742037
     36          6           0        6.845646   -3.795710    0.781769
     37          6           0        5.442454   -3.643592    0.582592
     38          6           0        5.124607   -2.288926    0.375903
     39          6           0        7.572436   -5.079275    1.012678
     40          6           0        4.190221   -4.322833    0.497242
     41          8           0        3.897836   -5.481200    0.698571
     42          6           0        3.058725   -3.290759    0.174203
     43          6           0        2.144329   -3.775640   -0.899666
     44          8           0        2.257741   -3.731435   -2.073911
     45          8           0        1.086540   -4.413153   -0.336927
     46          6           0        0.209068   -5.128548   -1.321298
     47          6           0       -3.772666   -1.869340   -0.451079
     48          6           0       -5.033432   -1.550094   -1.282252
     49          6           0       -6.130471   -2.315084   -1.536742
     50          6           0       -6.174918   -3.805342   -1.186684
     51          6           0       -7.359948   -1.714453   -2.166357
     52          6           0       -8.318315   -1.102687   -1.153569
     53          6           0       -9.066585    0.170198   -1.659352
     54          6           0      -10.573497   -0.220987   -2.199648
     55          6           0      -10.942830    0.548455   -3.461900
     56          6           0      -11.512705    0.013994   -0.979891
     57          6           0      -12.876635   -0.722014   -1.196726
     58          6           0      -13.988211    0.317549   -1.160224
     59          6           0      -14.714832    0.458312    0.208920
     60          6           0      -16.153291   -0.166895    0.110091
     61          6           0      -14.742064    1.906915    0.814547
     62          6           0      -14.851975    1.980623    2.363800
     63          6           0      -14.032602    3.089888    3.015198
     64          6           0      -12.929373    2.527746    3.928572
     65          6           0      -12.508678    3.725093    4.824909
     66          6           0      -11.684553    1.932224    3.171867
     67          1           0        3.292388    3.359922   -1.698170
     68          1           0        9.627207    3.432711    0.300876
     69          1           0        9.275307   -2.622228    1.537512
     70          1           0        1.520660   -1.026436   -1.489373
     71          1           0        1.430931    1.848673   -0.732697
     72          1           0        1.583364    0.306876   -3.261164
     73          1           0        2.640161    1.711090   -3.173449
     74          1           0        0.895389    1.970730   -2.907481
     75          1           0        1.262524   -0.125519    1.400575
     76          1           0        0.601768   -1.527283    0.544416
     77          1           0       -0.611669    0.434677   -0.692437
     78          1           0       -0.707476    0.894745    1.055219
     79          1           0        3.902774    5.527260   -1.521572
     80          1           0        5.251196    6.040917   -2.596718
     81          1           0        5.036218    6.643558   -0.896781
     82          1           0        8.791578    7.469022   -2.306490
     83          1           0        7.388243    7.576042   -1.138076
     84          1           0        7.369557    6.726986   -2.772064
     85          1           0       10.876685    1.818760    2.018995
     86          1           0       11.117113   -1.006004    1.178409
     87          1           0       11.174794    2.046451   -0.758812
     88          1           0       11.833973    0.390358   -0.451586
     89          1           0       12.635149    1.704262    0.263134
     90          1           0        9.438862   -0.609207    3.570264
     91          1           0       10.965608    0.288475    3.666254
     92          1           0       12.072878   -1.289443    4.278221
     93          1           0       11.960682   -2.115426    2.773915
     94          1           0       10.890175   -2.529976    4.100477
     95          1           0        7.122428   -5.449579    1.933919
     96          1           0        8.661802   -5.057541    1.054282
     97          1           0        7.173078   -5.765580    0.266909
     98          1           0        2.343351   -3.282265    0.997024
     99          1           0       -0.274351   -6.031126   -0.947388
    100          1           0        0.776874   -5.571022   -2.139715
    101          1           0       -0.574102   -4.516824   -1.768627
    102          1           0       -4.057570   -2.161824    0.559568
    103          1           0       -3.278738   -2.675597   -0.993181
    104          1           0       -5.039473   -0.485318   -1.515695
    105          1           0       -5.366730   -4.248522   -1.767301
    106          1           0       -7.121130   -4.310671   -1.379032
    107          1           0       -5.891888   -3.873965   -0.136390
    108          1           0       -7.973530   -2.398482   -2.753467
    109          1           0       -7.098492   -0.969201   -2.917866
    110          1           0       -7.776275   -0.893817   -0.232040
    111          1           0       -9.024081   -1.896688   -0.908465
    112          1           0       -8.559994    0.643061   -2.500144
    113          1           0       -9.106736    0.935196   -0.883920
    114          1           0      -10.578582   -1.247555   -2.564760
    115          1           0      -10.332568    1.449292   -3.514746
    116          1           0      -11.928326    0.992203   -3.323072
    117          1           0      -10.937717   -0.050381   -4.373652
    118          1           0      -11.626371    1.071599   -0.741963
    119          1           0      -11.076120   -0.422475   -0.081281
    120          1           0      -13.029031   -1.544018   -0.497914
    121          1           0      -12.978821   -1.152060   -2.193247
    122          1           0      -14.749726   -0.023972   -1.860903
    123          1           0      -13.830858    1.278061   -1.649881
    124          1           0      -14.161386   -0.112766    0.954152
    125          1           0      -16.896240    0.630929    0.138219
    126          1           0      -16.295984   -0.816786    0.972428
    127          1           0      -16.405634   -0.592479   -0.861484
    128          1           0      -15.555681    2.468878    0.355960
    129          1           0      -13.850685    2.461798    0.521525
    130          1           0      -14.625491    0.983754    2.740067
    131          1           0      -15.882566    2.258113    2.584105
    132          1           0      -14.704172    3.695132    3.624315
    133          1           0      -13.546348    3.749480    2.296920
    134          1           0      -13.377103    1.673313    4.437461
    135          1           0      -12.667831    4.721466    4.412458
    136          1           0      -11.441279    3.660113    5.036064
    137          1           0      -12.825487    3.657940    5.866429
    138          1           0      -11.794291    2.127432    2.104222
    139          1           0      -11.672427    0.857634    3.351489
    140          1           0      -10.739070    2.365750    3.497383
 ---------------------------------------------------------------------

 SCF Done:  E(RB-LYP) =  -3007.36851777     A.U. after   21 cycles

 Excitation energies and oscillator strengths:

 Excited State   1:      Singlet-A      1.7522 eV  707.60 nm  f=0.0161  <S**2>=0.000
     244 -> 247        0.59519
     245 -> 247        0.36682
 This state for optimization and/or second-order correction.
 Total Energy, E(TD-HF/TD-DFT) =  -3007.30412653
 Copying the excited state density for this state as the 1-particle RhoCI density.

 Excited State   2:      Singlet-A      1.8163 eV  682.62 nm  f=0.2657  <S**2>=0.000
     243 -> 247        0.10013
     244 -> 247        0.12890
     245 -> 247       -0.10880
     245 -> 248        0.18307
     245 -> 249        0.11164
     246 -> 247        0.65481
     246 <- 247       -0.13620

 Excited State   3:      Singlet-A      1.8961 eV  653.88 nm  f=0.0559  <S**2>=0.000
     243 -> 247        0.55818
     244 -> 247        0.23865
     245 -> 247       -0.29558
     246 -> 247       -0.17492

 Excited State   4:      Singlet-A      1.9557 eV  633.97 nm  f=0.0718  <S**2>=0.000
     243 -> 247        0.41604
     244 -> 247       -0.26165
     245 -> 247        0.46068
     246 -> 248       -0.14099

 Excited State   5:      Singlet-A      2.2040 eV  562.55 nm  f=0.0000  <S**2>=0.000
     242 -> 247        0.70702

 The electronic state is 1-A.
 Alpha  occ. eigenvalues --  -46.27580 -18.83259 -18.80943 -18.77318 -18.75525
 Alpha  occ. eigenvalues --  -18.75479 -18.74719 -14.03499 -14.02889 -14.01852
 Alpha  occ. eigenvalues --  -14.00338 -10.05391 -10.02468 -10.00295  -9.98703
 Alpha  occ. eigenvalues --   -9.98423  -9.96823  -9.96781  -9.96686  -9.96437
 Alpha  occ. eigenvalues --   -9.96429  -9.96164  -9.95748  -9.94890  -9.94792
 Alpha  occ. eigenvalues --   -9.94716  -9.94603  -9.94354  -9.94160  -9.93894
 Alpha  occ. eigenvalues --   -9.93810  -9.93670  -9.93575  -9.93525  -9.93439
 Alpha  occ. eigenvalues --   -9.93349  -9.93231  -9.93117  -9.92870  -9.92812
 Alpha  occ. eigenvalues --   -9.92491  -9.92476  -9.92406  -9.92315  -9.92288
 Alpha  occ. eigenvalues --   -9.92254  -9.92151  -9.92062  -9.91986  -9.91778
 Alpha  occ. eigenvalues --   -9.91749  -9.91731  -9.91651  -9.91553  -9.91403
 Alpha  occ. eigenvalues --   -9.91230  -9.91160  -9.90915  -9.90802  -9.90797
 Alpha  occ. eigenvalues --   -9.90785  -9.90768  -9.90759  -9.90632  -9.90609
 Alpha  occ. eigenvalues --   -9.90430  -2.92136  -1.72555  -1.72025  -1.71844
 Alpha  occ. eigenvalues --   -0.98009  -0.97543  -0.91182  -0.89426  -0.89229
 Alpha  occ. eigenvalues --   -0.87861  -0.86908  -0.86658  -0.85144  -0.84347
 Alpha  occ. eigenvalues --   -0.74891  -0.73390  -0.72915  -0.72642  -0.71981
 Alpha  occ. eigenvalues --   -0.71809  -0.71262  -0.70872  -0.70318  -0.69985
 Alpha  occ. eigenvalues --   -0.69965  -0.68978  -0.67931  -0.67265  -0.66913
 Alpha  occ. eigenvalues --   -0.66413  -0.65881  -0.65276  -0.64823  -0.64176
 Alpha  occ. eigenvalues --   -0.64002  -0.62549  -0.62322  -0.61511  -0.60510
 Alpha  occ. eigenvalues --   -0.60395  -0.60063  -0.59792  -0.59166  -0.59011
 Alpha  occ. eigenvalues --   -0.58209  -0.57862  -0.56336  -0.55166  -0.54148
 Alpha  occ. eigenvalues --   -0.53973  -0.53731  -0.52739  -0.52130  -0.51633
 Alpha  occ. eigenvalues --   -0.51386  -0.50890  -0.50748  -0.49926  -0.49739
 Alpha  occ. eigenvalues --   -0.49561  -0.49224  -0.48795  -0.47530  -0.46495
 Alpha  occ. eigenvalues --   -0.46255  -0.45943  -0.45721  -0.44856  -0.44120
 Alpha  occ. eigenvalues --   -0.43884  -0.43214  -0.42924  -0.42582  -0.42066
 Alpha  occ. eigenvalues --   -0.41937  -0.41516  -0.41273  -0.41054  -0.40929
 Alpha  occ. eigenvalues --   -0.40712  -0.40459  -0.40289  -0.40087  -0.40069
 Alpha  occ. eigenvalues --   -0.39618  -0.39502  -0.39132  -0.39074  -0.38903
 Alpha  occ. eigenvalues --   -0.38798  -0.38723  -0.38645  -0.38250  -0.38187
 Alpha  occ. eigenvalues --   -0.37977  -0.37923  -0.37710  -0.37401  -0.36911
 Alpha  occ. eigenvalues --   -0.36750  -0.36565  -0.36447  -0.36199  -0.36076
 Alpha  occ. eigenvalues --   -0.35963  -0.35803  -0.35614  -0.35479  -0.35308
 Alpha  occ. eigenvalues --   -0.35183  -0.34945  -0.34894  -0.34790  -0.34642
 Alpha  occ. eigenvalues --   -0.34486  -0.34385  -0.34198  -0.34089  -0.33824
 Alpha  occ. eigenvalues --   -0.33737  -0.33534  -0.33389  -0.33183  -0.33010
 Alpha  occ. eigenvalues --   -0.32857  -0.32846  -0.32653  -0.32367  -0.32221
 Alpha  occ. eigenvalues --   -0.32077  -0.32016  -0.31758  -0.31565  -0.31504
 Alpha  occ. eigenvalues --   -0.31354  -0.30920  -0.30867  -0.30774  -0.30506
 Alpha  occ. eigenvalues --   -0.30413  -0.30182  -0.29988  -0.29917  -0.29681
 Alpha  occ. eigenvalues --   -0.29519  -0.29229  -0.29182  -0.28757  -0.28683
 Alpha  occ. eigenvalues --   -0.28510  -0.28456  -0.28321  -0.27990  -0.27923
 Alpha  occ. eigenvalues --   -0.27418  -0.27152  -0.26795  -0.26637  -0.26531
 Alpha  occ. eigenvalues --   -0.26390  -0.26189  -0.25989  -0.25732  -0.25429
 Alpha  occ. eigenvalues --   -0.24948  -0.24539  -0.24395  -0.23943  -0.23445
 Alpha  occ. eigenvalues --   -0.22545  -0.22160  -0.21926  -0.21003  -0.20739
 Alpha  occ. eigenvalues --   -0.19915  -0.19779  -0.18612  -0.18149  -0.16816
 Alpha  occ. eigenvalues --   -0.16056
 Alpha virt. eigenvalues --   -0.11679  -0.07092  -0.06145  -0.05064  -0.04089
 Alpha virt. eigenvalues --   -0.02787  -0.02046  -0.01308  -0.00944   0.00209
 Alpha virt. eigenvalues --    0.01196   0.01670   0.02261   0.02598   0.02791

 Mulliken charges:
               1
     1  Mg   0.695793
     2  C    0.089996
     3  C   -0.063276
     4  C   -0.015072
     5  C   -0.095620
     6  N   -0.170655
     7  C   -0.117143
     8  C    0.057195
     9  C   -0.036961
    10  C    0.010575
    11  C    0.151627
    12  C    0.078066
    13  C    0.100643
    14  C    0.135867
    15  O   -0.239121
    16  O   -0.268727
    17  N   -0.307618
    18  C    0.148094
    19  C   -0.167328
    20  C    0.054601
    21  C    0.127655
    22  C    0.168490
    23  C   -0.077378
    24  O   -0.199503
    25  C    0.150428
    26  N   -0.206245
    27  C   -0.047284
    28  C    0.046498
    29  C   -0.001768
    30  C    0.029128
    31  C    0.126506
    32  C    0.098100
    33  C    0.051411
    34  N   -0.277242
    35  C    0.115644
    36  C   -0.165499
    37  C    0.101267
    38  C    0.019765
    39  C    0.203897
    40  C   -0.081741
    41  O   -0.121480
    42  C    0.057144
    43  C    0.047502
    44  O   -0.145190
    45  O   -0.263808
    46  C    0.219536
    47  C    0.292686
    48  C   -0.117982
    49  C   -0.150964
    50  C    0.149244
    51  C    0.140480
    52  C    0.078509
    53  C    0.105795
    54  C   -0.108457
    55  C    0.125810
    56  C    0.110010
    57  C    0.102688
    58  C    0.100490
    59  C   -0.083326
    60  C    0.109786
    61  C    0.076264
    62  C    0.110263
    63  C    0.081686
    64  C   -0.110019
    65  C    0.117945
    66  C    0.097687
    67  H   -0.050374
    68  H   -0.037624
    69  H   -0.066873
    70  H   -0.021949
    71  H   -0.024207
    72  H    0.004133
    73  H   -0.012759
    74  H   -0.002290
    75  H   -0.023895
    76  H    0.001570
    77  H    0.001754
    78  H    0.013652
    79  H   -0.016440
    80  H    0.012432
    81  H    0.002482
    82  H   -0.010374
    83  H    0.022715
    84  H   -0.003377
    85  H   -0.020685
    86  H   -0.021600
    87  H    0.014043
    88  H   -0.013918
    89  H   -0.004748
    90  H   -0.007525
    91  H   -0.022146
    92  H   -0.018988
    93  H   -0.012929
    94  H   -0.004464
    95  H    0.004651
    96  H   -0.002349
    97  H    0.007319
    98  H    0.010922
    99  H    0.007883
   100  H    0.010850
   101  H    0.007751
   102  H    0.025965
   103  H    0.002753
   104  H   -0.031597
   105  H    0.006659
   106  H   -0.005235
   107  H    0.001143
   108  H   -0.043896
   109  H   -0.031272
   110  H   -0.032944
   111  H   -0.028219
   112  H   -0.040257
   113  H   -0.030885
   114  H   -0.035616
   115  H   -0.025526
   116  H   -0.032747
   117  H   -0.004770
   118  H   -0.017192
   119  H   -0.037038
   120  H   -0.027107
   121  H   -0.033323
   122  H   -0.068338
   123  H   -0.041076
   124  H   -0.040023
   125  H   -0.029854
   126  H   -0.006407
   127  H   -0.014755
   128  H   -0.039031
   129  H   -0.038381
   130  H   -0.029224
   131  H   -0.034922
   132  H   -0.031598
   133  H   -0.029677
   134  H   -0.033452
   135  H   -0.005207
   136  H   -0.045325
   137  H   -0.021905
   138  H   -0.014152
   139  H   -0.011051
   140  H   -0.012521
 Sum of Mulliken charges =  -0.00000

 Dipole moment (field-independent basis, Debye):
    X=             -2.5384    Y=              3.8295    Z=              0.4493  Tot=              4.6164
 Quadrupole moment (field-independent basis, Debye-Ang):
   XX=           -379.9335   YY=           -416.5723   ZZ=           -403.4866
   XY=              0.6598   XZ=             23.9248   YZ=              1.2570

 Normal termination of Gaussian 16 at Sat Apr 30 04:49:37 2022.
