 Gaussian 16, Revision A.03,
 Gaussian 16:  ES64L-G16RevA.03 25-Dec-2016

 -----------------------------------
 #p cam-b3lyp/Def2SVP td=(nstates=5)
 -----------------------------------

 ------------------------------------------------------
 step_551_chromophore_7 TDDFT with cam-b3lyp functional
 ------------------------------------------------------
 Symbolic Z-matrix:
 Charge =  0 Multiplicity = 1

                         Standard orientation:
 ---------------------------------------------------------------------
 Center     Atomic      Atomic             Coordinates (Angstroms)
 Number     Number       Type             X           Y           Z
 ---------------------------------------------------------------------
      1         12           0        6.279146    0.529430    0.314565
      2          6           0        3.756302   -1.958446   -0.005881
      3          6           0        4.002921    2.749989   -1.136304
      4          6           0        8.753928    2.784555    0.198390
      5          6           0        8.572275   -1.942136    1.052069
      6          7           0        4.142564    0.299950   -0.463340
      7          6           0        3.295640   -0.715935   -0.450144
      8          6           0        1.851015   -0.307415   -0.740406
      9          6           0        2.025412    1.123380   -1.287094
     10          6           0        3.497018    1.433714   -0.919805
     11          6           0        1.723069    1.273117   -2.777544
     12          6           0        0.825574   -0.463344    0.460688
     13          6           0       -0.610996    0.079571    0.338392
     14          6           0       -1.769946   -0.989300    0.487845
     15          8           0       -1.702922   -2.112153    1.101922
     16          8           0       -2.788304   -0.768661   -0.416856
     17          7           0        6.366969    2.540405   -0.272691
     18          6           0        5.340082    3.259209   -0.844020
     19          6           0        5.856093    4.628251   -1.090495
     20          6           0        7.258414    4.640541   -0.880631
     21          6           0        7.540284    3.300791   -0.249352
     22          6           0        4.957251    5.794597   -1.576112
     23          6           0        8.313676    5.671677   -1.212199
     24          8           0        9.533696    5.456251   -0.953738
     25          6           0        7.927324    6.970683   -1.867760
     26          7           0        8.357794    0.441216    0.586963
     27          6           0        9.144573    1.544982    0.685965
     28          6           0       10.613075    1.214807    1.150277
     29          6           0       10.397514   -0.300231    1.593607
     30          6           0        9.019295   -0.606108    1.070328
     31          6           0       11.638985    1.378018   -0.032936
     32          6           0       10.452118   -0.538820    3.176021
     33          6           0       11.348591   -1.693875    3.571594
     34          7           0        6.300104   -1.540249    0.520779
     35          6           0        7.260747   -2.479463    0.742037
     36          6           0        6.845646   -3.795710    0.781769
     37          6           0        5.442454   -3.643592    0.582592
     38          6           0        5.124607   -2.288926    0.375903
     39          6           0        7.572436   -5.079275    1.012678
     40          6           0        4.190221   -4.322833    0.497242
     41          8           0        3.897836   -5.481200    0.698571
     42          6           0        3.058725   -3.290759    0.174203
     43          6           0        2.144329   -3.775640   -0.899666
     44          8           0        2.257741   -3.731435   -2.073911
     45          8           0        1.086540   -4.413153   -0.336927
     46          6           0        0.209068   -5.128548   -1.321298
     47          6           0       -3.772666   -1.869340   -0.451079
     48          6           0       -5.033432   -1.550094   -1.282252
     49          6           0       -6.130471   -2.315084   -1.536742
     50          6           0       -6.174918   -3.805342   -1.186684
     51          6           0       -7.359948   -1.714453   -2.166357
     52          6           0       -8.318315   -1.102687   -1.153569
     53          6           0       -9.066585    0.170198   -1.659352
     54          6           0      -10.573497   -0.220987   -2.199648
     55          6           0      -10.942830    0.548455   -3.461900
     56          6           0      -11.512705    0.013994   -0.979891
     57          6           0      -12.876635   -0.722014   -1.196726
     58          6           0      -13.988211    0.317549   -1.160224
     59          6           0      -14.714832    0.458312    0.208920
     60          6           0      -16.153291   -0.166895    0.110091
     61          6           0      -14.742064    1.906915    0.814547
     62          6           0      -14.851975    1.980623    2.363800
     63          6           0      -14.032602    3.089888    3.015198
     64          6           0      -12.929373    2.527746    3.928572
     65          6           0      -12.508678    3.725093    4.824909
     66          6           0      -11.684553    1.932224    3.171867
     67          1           0        3.292388    3.359922   -1.698170
     68          1           0        9.627207    3.432711    0.300876
     69          1           0        9.275307   -2.622228    1.537512
     70          1           0        1.520660   -1.026436   -1.489373
     71          1           0        1.430931    1.848673   -0.732697
     72          1           0        1.583364    0.306876   -3.261164
     73          1           0        2.640161    1.711090   -3.173449
     74          1           0        0.895389    1.970730   -2.907481
     75          1           0        1.262524   -0.125519    1.400575
     76          1           0        0.601768   -1.527283    0.544416
     77          1           0       -0.611669    0.434677   -0.692437
     78          1           0       -0.707476    0.894745    1.055219
     79          1           0        3.902774    5.527260   -1.521572
     80          1           0        5.251196    6.040917   -2.596718
     81          1           0        5.036218    6.643558   -0.896781
     82          1           0        8.791578    7.469022   -2.306490
     83          1           0        7.388243    7.576042   -1.138076
     84          1           0        7.369557    6.726986   -2.772064
     85          1           0       10.876685    1.818760    2.018995
     86          1           0       11.117113   -1.006004    1.178409
     87          1           0       11.174794    2.046451   -0.758812
     88          1           0       11.833973    0.390358   -0.451586
     89          1           0       12.635149    1.704262    0.263134
     90          1           0        9.438862   -0.609207    3.570264
     91          1           0       10.965608    0.288475    3.666254
     92          1           0       12.072878   -1.289443    4.278221
     93          1           0       11.960682   -2.115426    2.773915
     94          1           0       10.890175   -2.529976    4.100477
     95          1           0        7.122428   -5.449579    1.933919
     96          1           0        8.661802   -5.057541    1.054282
     97          1           0        7.173078   -5.765580    0.266909
     98          1           0        2.343351   -3.282265    0.997024
     99          1           0       -0.274351   -6.031126   -0.947388
    100          1           0        0.776874   -5.571022   -2.139715
    101          1           0       -0.574102   -4.516824   -1.768627
    102          1           0       -4.057570   -2.161824    0.559568
    103          1           0       -3.278738   -2.675597   -0.993181
    104          1           0       -5.039473   -0.485318   -1.515695
    105          1           0       -5.366730   -4.248522   -1.767301
    106          1           0       -7.121130   -4.310671   -1.379032
    107          1           0       -5.891888   -3.873965   -0.136390
    108          1           0       -7.973530   -2.398482   -2.753467
    109          1           0       -7.098492   -0.969201   -2.917866
    110          1           0       -7.776275   -0.893817   -0.232040
    111          1           0       -9.024081   -1.896688   -0.908465
    112          1           0       -8.559994    0.643061   -2.500144
    113          1           0       -9.106736    0.935196   -0.883920
    114          1           0      -10.578582   -1.247555   -2.564760
    115          1           0      -10.332568    1.449292   -3.514746
    116          1           0      -11.928326    0.992203   -3.323072
    117          1           0      -10.937717   -0.050381   -4.373652
    118          1           0      -11.626371    1.071599   -0.741963
    119          1           0      -11.076120   -0.422475   -0.081281
    120          1           0      -13.029031   -1.544018   -0.497914
    121          1           0      -12.978821   -1.152060   -2.193247
    122          1           0      -14.749726   -0.023972   -1.860903
    123          1           0      -13.830858    1.278061   -1.649881
    124          1           0      -14.161386   -0.112766    0.954152
    125          1           0      -16.896240    0.630929    0.138219
    126          1           0      -16.295984   -0.816786    0.972428
    127          1           0      -16.405634   -0.592479   -0.861484
    128          1           0      -15.555681    2.468878    0.355960
    129          1           0      -13.850685    2.461798    0.521525
    130          1           0      -14.625491    0.983754    2.740067
    131          1           0      -15.882566    2.258113    2.584105
    132          1           0      -14.704172    3.695132    3.624315
    133          1           0      -13.546348    3.749480    2.296920
    134          1           0      -13.377103    1.673313    4.437461
    135          1           0      -12.667831    4.721466    4.412458
    136          1           0      -11.441279    3.660113    5.036064
    137          1           0      -12.825487    3.657940    5.866429
    138          1           0      -11.794291    2.127432    2.104222
    139          1           0      -11.672427    0.857634    3.351489
    140          1           0      -10.739070    2.365750    3.497383
 ---------------------------------------------------------------------

 SCF Done:  E(RCAM-B3LYP) =  -3007.15207287     A.U. after   19 cycles

 Excitation energies and oscillator strengths:

 Excited State   1:      Singlet-A      1.7373 eV  713.67 nm  f=0.3927  <S**2>=0.000
     245 -> 248        0.18194
     246 -> 247        0.68241
     245 <- 248        0.10294
 This state for optimization and/or second-order correction.
 Total Energy, E(TD-HF/TD-DFT) =  -3007.08822939
 Copying the excited state density for this state as the 1-particle RhoCI density.

 Excited State   2:      Singlet-A      2.1224 eV  584.17 nm  f=0.1680  <S**2>=0.000
     245 -> 247        0.65981
     246 -> 248       -0.23255

 Excited State   3:      Singlet-A      3.2140 eV  385.76 nm  f=0.0018  <S**2>=0.000
     241 -> 247       -0.10469
     244 -> 247        0.67855

 Excited State   4:      Singlet-A      3.4445 eV  359.95 nm  f=0.0192  <S**2>=0.000
     242 -> 247        0.59407
     242 -> 249       -0.20435
     242 -> 251        0.15821
     242 -> 252        0.17228
     246 -> 248        0.12595

 Excited State   5:      Singlet-A      3.4720 eV  357.09 nm  f=0.0090  <S**2>=0.000
     239 -> 247        0.29816
     239 -> 248       -0.16166
     239 -> 249        0.24874
     240 -> 247        0.38672
     240 -> 248       -0.15821
     240 -> 249        0.24964
     241 -> 247        0.20288

 The electronic state is 1-A.
 Alpha  occ. eigenvalues --  -46.89132 -19.26064 -19.23703 -19.20261 -19.19124
 Alpha  occ. eigenvalues --  -19.18471 -19.17536 -14.42342 -14.41816 -14.40562
 Alpha  occ. eigenvalues --  -14.38517 -10.40844 -10.37639 -10.35928 -10.33663
 Alpha  occ. eigenvalues --  -10.32403 -10.31635 -10.31592 -10.31243 -10.30883
 Alpha  occ. eigenvalues --  -10.30706 -10.30586 -10.29860 -10.29841 -10.28982
 Alpha  occ. eigenvalues --  -10.28693 -10.28572 -10.28427 -10.28270 -10.28178
 Alpha  occ. eigenvalues --  -10.28176 -10.27858 -10.27810 -10.27783 -10.27487
 Alpha  occ. eigenvalues --  -10.27462 -10.27183 -10.27045 -10.26971 -10.26772
 Alpha  occ. eigenvalues --  -10.26443 -10.26270 -10.26085 -10.26069 -10.26060
 Alpha  occ. eigenvalues --  -10.25976 -10.25969 -10.25891 -10.25881 -10.25769
 Alpha  occ. eigenvalues --  -10.25533 -10.25297 -10.25285 -10.25270 -10.25017
 Alpha  occ. eigenvalues --  -10.24903 -10.24793 -10.24519 -10.24485 -10.24463
 Alpha  occ. eigenvalues --  -10.24433 -10.24403 -10.24369 -10.24235 -10.24199
 Alpha  occ. eigenvalues --  -10.24084  -3.17589  -1.92486  -1.92048  -1.91887
 Alpha  occ. eigenvalues --   -1.16518  -1.15837  -1.09287  -1.08094  -1.06999
 Alpha  occ. eigenvalues --   -1.05587  -1.04654  -1.04382  -1.02490  -1.02077
 Alpha  occ. eigenvalues --   -0.91824  -0.90224  -0.89709  -0.89426  -0.88668
 Alpha  occ. eigenvalues --   -0.88489  -0.87968  -0.87514  -0.86959  -0.86845
 Alpha  occ. eigenvalues --   -0.86183  -0.85371  -0.84160  -0.83377  -0.83029
 Alpha  occ. eigenvalues --   -0.82454  -0.82272  -0.81296  -0.80562  -0.79932
 Alpha  occ. eigenvalues --   -0.79762  -0.78323  -0.78026  -0.76925  -0.75815
 Alpha  occ. eigenvalues --   -0.75718  -0.75411  -0.75053  -0.74398  -0.74268
 Alpha  occ. eigenvalues --   -0.73220  -0.72834  -0.71215  -0.69956  -0.68634
 Alpha  occ. eigenvalues --   -0.68584  -0.68303  -0.67410  -0.66464  -0.65725
 Alpha  occ. eigenvalues --   -0.65493  -0.65054  -0.64877  -0.63797  -0.63751
 Alpha  occ. eigenvalues --   -0.63504  -0.62954  -0.62700  -0.61046  -0.60034
 Alpha  occ. eigenvalues --   -0.59971  -0.59476  -0.59275  -0.58226  -0.57410
 Alpha  occ. eigenvalues --   -0.57138  -0.56658  -0.56139  -0.55807  -0.55298
 Alpha  occ. eigenvalues --   -0.55143  -0.54268  -0.53983  -0.53847  -0.53804
 Alpha  occ. eigenvalues --   -0.53537  -0.53457  -0.53203  -0.53069  -0.52645
 Alpha  occ. eigenvalues --   -0.52610  -0.52043  -0.51799  -0.51632  -0.51518
 Alpha  occ. eigenvalues --   -0.51364  -0.51137  -0.51090  -0.50875  -0.50590
 Alpha  occ. eigenvalues --   -0.50466  -0.50179  -0.50008  -0.49645  -0.49362
 Alpha  occ. eigenvalues --   -0.49072  -0.48822  -0.48747  -0.48658  -0.48443
 Alpha  occ. eigenvalues --   -0.48121  -0.47919  -0.47910  -0.47717  -0.47488
 Alpha  occ. eigenvalues --   -0.47193  -0.47052  -0.46848  -0.46732  -0.46603
 Alpha  occ. eigenvalues --   -0.46247  -0.46215  -0.45946  -0.45939  -0.45584
 Alpha  occ. eigenvalues --   -0.45508  -0.45244  -0.45167  -0.44867  -0.44757
 Alpha  occ. eigenvalues --   -0.44523  -0.44408  -0.44253  -0.43870  -0.43718
 Alpha  occ. eigenvalues --   -0.43677  -0.43592  -0.43488  -0.43187  -0.43084
 Alpha  occ. eigenvalues --   -0.42995  -0.42537  -0.42503  -0.42264  -0.41808
 Alpha  occ. eigenvalues --   -0.41696  -0.41577  -0.41396  -0.41345  -0.40943
 Alpha  occ. eigenvalues --   -0.40790  -0.40617  -0.40314  -0.40114  -0.39768
 Alpha  occ. eigenvalues --   -0.39759  -0.39461  -0.39376  -0.39112  -0.38889
 Alpha  occ. eigenvalues --   -0.38349  -0.37960  -0.37916  -0.37550  -0.37381
 Alpha  occ. eigenvalues --   -0.37133  -0.37044  -0.36818  -0.36609  -0.36365
 Alpha  occ. eigenvalues --   -0.36046  -0.35546  -0.34892  -0.34863  -0.34176
 Alpha  occ. eigenvalues --   -0.33621  -0.32795  -0.32281  -0.31616  -0.31154
 Alpha  occ. eigenvalues --   -0.30442  -0.29865  -0.29377  -0.28875  -0.23492
 Alpha  occ. eigenvalues --   -0.21495
 Alpha virt. eigenvalues --   -0.08905  -0.01719   0.00023   0.02205   0.02714
 Alpha virt. eigenvalues --    0.03148   0.05453   0.05688   0.06875   0.06963
 Alpha virt. eigenvalues --    0.08143   0.08323   0.08575   0.08682   0.09121

 Mulliken charges:
               1
     1  Mg   0.826336
     2  C    0.060138
     3  C   -0.079053
     4  C   -0.040563
     5  C   -0.086198
     6  N   -0.240623
     7  C   -0.069631
     8  C    0.008978
     9  C   -0.096596
    10  C    0.032238
    11  C    0.090662
    12  C    0.030768
    13  C    0.033407
    14  C    0.214239
    15  O   -0.280868
    16  O   -0.333509
    17  N   -0.394927
    18  C    0.161256
    19  C   -0.172175
    20  C   -0.012583
    21  C    0.155445
    22  C    0.114207
    23  C    0.002510
    24  O   -0.238075
    25  C    0.068215
    26  N   -0.276061
    27  C   -0.024107
    28  C   -0.005658
    29  C   -0.058411
    30  C    0.039381
    31  C    0.068979
    32  C    0.044972
    33  C   -0.013303
    34  N   -0.365780
    35  C    0.114686
    36  C   -0.163655
    37  C    0.018183
    38  C    0.051441
    39  C    0.151436
    40  C    0.015393
    41  O   -0.162807
    42  C   -0.017841
    43  C    0.134524
    44  O   -0.183001
    45  O   -0.327098
    46  C    0.182852
    47  C    0.264714
    48  C   -0.135653
    49  C   -0.178698
    50  C    0.086101
    51  C    0.083575
    52  C    0.024861
    53  C    0.049085
    54  C   -0.160458
    55  C    0.066629
    56  C    0.060935
    57  C    0.045788
    58  C    0.041825
    59  C   -0.135099
    60  C    0.051766
    61  C    0.030909
    62  C    0.051876
    63  C    0.026713
    64  C   -0.166790
    65  C    0.053700
    66  C    0.043287
    67  H   -0.016837
    68  H    0.002074
    69  H   -0.034141
    70  H    0.013186
    71  H    0.010795
    72  H    0.031277
    73  H    0.013572
    74  H    0.021734
    75  H    0.007379
    76  H    0.030849
    77  H    0.034447
    78  H    0.045153
    79  H    0.013114
    80  H    0.038042
    81  H    0.029710
    82  H    0.026945
    83  H    0.049919
    84  H    0.024649
    85  H    0.014212
    86  H    0.012672
    87  H    0.037633
    88  H    0.011416
    89  H    0.020628
    90  H    0.021887
    91  H    0.005536
    92  H    0.005500
    93  H    0.010134
    94  H    0.019791
    95  H    0.030719
    96  H    0.021350
    97  H    0.032958
    98  H    0.053725
    99  H    0.031182
   100  H    0.035957
   101  H    0.027388
   102  H    0.052242
   103  H    0.027712
   104  H    0.002742
   105  H    0.030805
   106  H    0.020381
   107  H    0.024329
   108  H   -0.013509
   109  H   -0.000513
   110  H   -0.002288
   111  H   -0.001731
   112  H   -0.011296
   113  H   -0.001658
   114  H   -0.005610
   115  H   -0.000747
   116  H   -0.009975
   117  H    0.019532
   118  H    0.007323
   119  H   -0.008814
   120  H    0.002418
   121  H   -0.004475
   122  H   -0.035598
   123  H   -0.012024
   124  H   -0.011031
   125  H   -0.005987
   126  H    0.016806
   127  H    0.009548
   128  H   -0.011125
   129  H   -0.013222
   130  H   -0.003044
   131  H   -0.004830
   132  H   -0.000476
   133  H   -0.002348
   134  H   -0.001351
   135  H    0.018469
   136  H   -0.019409
   137  H    0.003964
   138  H    0.004319
   139  H    0.011380
   140  H    0.011747
 Sum of Mulliken charges =  -0.00000

 Dipole moment (field-independent basis, Debye):
    X=             -2.4043    Y=              5.2509    Z=              0.1644  Tot=              5.7775
 Quadrupole moment (field-independent basis, Debye-Ang):
   XX=           -376.4709   YY=           -411.4104   ZZ=           -403.1166
   XY=              8.3523   XZ=             23.4153   YZ=             -0.0134

 Normal termination of Gaussian 16 at Sat Apr 30 03:53:44 2022.
