 Gaussian 16, Revision A.03,
 Gaussian 16:  ES64L-G16RevA.03 25-Dec-2016

 ---------------------------------
 #p PBE1PBE/Def2SVP td=(nstates=5)
 ---------------------------------

 ----------------------------------------------------
 step_551_chromophore_7 TDDFT with PBE1PBE functional
 ----------------------------------------------------
 Symbolic Z-matrix:
 Charge =  0 Multiplicity = 1

                         Standard orientation:
 ---------------------------------------------------------------------
 Center     Atomic      Atomic             Coordinates (Angstroms)
 Number     Number       Type             X           Y           Z
 ---------------------------------------------------------------------
      1         12           0        6.279146    0.529430    0.314565
      2          6           0        3.756302   -1.958446   -0.005881
      3          6           0        4.002921    2.749989   -1.136304
      4          6           0        8.753928    2.784555    0.198390
      5          6           0        8.572275   -1.942136    1.052069
      6          7           0        4.142564    0.299950   -0.463340
      7          6           0        3.295640   -0.715935   -0.450144
      8          6           0        1.851015   -0.307415   -0.740406
      9          6           0        2.025412    1.123380   -1.287094
     10          6           0        3.497018    1.433714   -0.919805
     11          6           0        1.723069    1.273117   -2.777544
     12          6           0        0.825574   -0.463344    0.460688
     13          6           0       -0.610996    0.079571    0.338392
     14          6           0       -1.769946   -0.989300    0.487845
     15          8           0       -1.702922   -2.112153    1.101922
     16          8           0       -2.788304   -0.768661   -0.416856
     17          7           0        6.366969    2.540405   -0.272691
     18          6           0        5.340082    3.259209   -0.844020
     19          6           0        5.856093    4.628251   -1.090495
     20          6           0        7.258414    4.640541   -0.880631
     21          6           0        7.540284    3.300791   -0.249352
     22          6           0        4.957251    5.794597   -1.576112
     23          6           0        8.313676    5.671677   -1.212199
     24          8           0        9.533696    5.456251   -0.953738
     25          6           0        7.927324    6.970683   -1.867760
     26          7           0        8.357794    0.441216    0.586963
     27          6           0        9.144573    1.544982    0.685965
     28          6           0       10.613075    1.214807    1.150277
     29          6           0       10.397514   -0.300231    1.593607
     30          6           0        9.019295   -0.606108    1.070328
     31          6           0       11.638985    1.378018   -0.032936
     32          6           0       10.452118   -0.538820    3.176021
     33          6           0       11.348591   -1.693875    3.571594
     34          7           0        6.300104   -1.540249    0.520779
     35          6           0        7.260747   -2.479463    0.742037
     36          6           0        6.845646   -3.795710    0.781769
     37          6           0        5.442454   -3.643592    0.582592
     38          6           0        5.124607   -2.288926    0.375903
     39          6           0        7.572436   -5.079275    1.012678
     40          6           0        4.190221   -4.322833    0.497242
     41          8           0        3.897836   -5.481200    0.698571
     42          6           0        3.058725   -3.290759    0.174203
     43          6           0        2.144329   -3.775640   -0.899666
     44          8           0        2.257741   -3.731435   -2.073911
     45          8           0        1.086540   -4.413153   -0.336927
     46          6           0        0.209068   -5.128548   -1.321298
     47          6           0       -3.772666   -1.869340   -0.451079
     48          6           0       -5.033432   -1.550094   -1.282252
     49          6           0       -6.130471   -2.315084   -1.536742
     50          6           0       -6.174918   -3.805342   -1.186684
     51          6           0       -7.359948   -1.714453   -2.166357
     52          6           0       -8.318315   -1.102687   -1.153569
     53          6           0       -9.066585    0.170198   -1.659352
     54          6           0      -10.573497   -0.220987   -2.199648
     55          6           0      -10.942830    0.548455   -3.461900
     56          6           0      -11.512705    0.013994   -0.979891
     57          6           0      -12.876635   -0.722014   -1.196726
     58          6           0      -13.988211    0.317549   -1.160224
     59          6           0      -14.714832    0.458312    0.208920
     60          6           0      -16.153291   -0.166895    0.110091
     61          6           0      -14.742064    1.906915    0.814547
     62          6           0      -14.851975    1.980623    2.363800
     63          6           0      -14.032602    3.089888    3.015198
     64          6           0      -12.929373    2.527746    3.928572
     65          6           0      -12.508678    3.725093    4.824909
     66          6           0      -11.684553    1.932224    3.171867
     67          1           0        3.292388    3.359922   -1.698170
     68          1           0        9.627207    3.432711    0.300876
     69          1           0        9.275307   -2.622228    1.537512
     70          1           0        1.520660   -1.026436   -1.489373
     71          1           0        1.430931    1.848673   -0.732697
     72          1           0        1.583364    0.306876   -3.261164
     73          1           0        2.640161    1.711090   -3.173449
     74          1           0        0.895389    1.970730   -2.907481
     75          1           0        1.262524   -0.125519    1.400575
     76          1           0        0.601768   -1.527283    0.544416
     77          1           0       -0.611669    0.434677   -0.692437
     78          1           0       -0.707476    0.894745    1.055219
     79          1           0        3.902774    5.527260   -1.521572
     80          1           0        5.251196    6.040917   -2.596718
     81          1           0        5.036218    6.643558   -0.896781
     82          1           0        8.791578    7.469022   -2.306490
     83          1           0        7.388243    7.576042   -1.138076
     84          1           0        7.369557    6.726986   -2.772064
     85          1           0       10.876685    1.818760    2.018995
     86          1           0       11.117113   -1.006004    1.178409
     87          1           0       11.174794    2.046451   -0.758812
     88          1           0       11.833973    0.390358   -0.451586
     89          1           0       12.635149    1.704262    0.263134
     90          1           0        9.438862   -0.609207    3.570264
     91          1           0       10.965608    0.288475    3.666254
     92          1           0       12.072878   -1.289443    4.278221
     93          1           0       11.960682   -2.115426    2.773915
     94          1           0       10.890175   -2.529976    4.100477
     95          1           0        7.122428   -5.449579    1.933919
     96          1           0        8.661802   -5.057541    1.054282
     97          1           0        7.173078   -5.765580    0.266909
     98          1           0        2.343351   -3.282265    0.997024
     99          1           0       -0.274351   -6.031126   -0.947388
    100          1           0        0.776874   -5.571022   -2.139715
    101          1           0       -0.574102   -4.516824   -1.768627
    102          1           0       -4.057570   -2.161824    0.559568
    103          1           0       -3.278738   -2.675597   -0.993181
    104          1           0       -5.039473   -0.485318   -1.515695
    105          1           0       -5.366730   -4.248522   -1.767301
    106          1           0       -7.121130   -4.310671   -1.379032
    107          1           0       -5.891888   -3.873965   -0.136390
    108          1           0       -7.973530   -2.398482   -2.753467
    109          1           0       -7.098492   -0.969201   -2.917866
    110          1           0       -7.776275   -0.893817   -0.232040
    111          1           0       -9.024081   -1.896688   -0.908465
    112          1           0       -8.559994    0.643061   -2.500144
    113          1           0       -9.106736    0.935196   -0.883920
    114          1           0      -10.578582   -1.247555   -2.564760
    115          1           0      -10.332568    1.449292   -3.514746
    116          1           0      -11.928326    0.992203   -3.323072
    117          1           0      -10.937717   -0.050381   -4.373652
    118          1           0      -11.626371    1.071599   -0.741963
    119          1           0      -11.076120   -0.422475   -0.081281
    120          1           0      -13.029031   -1.544018   -0.497914
    121          1           0      -12.978821   -1.152060   -2.193247
    122          1           0      -14.749726   -0.023972   -1.860903
    123          1           0      -13.830858    1.278061   -1.649881
    124          1           0      -14.161386   -0.112766    0.954152
    125          1           0      -16.896240    0.630929    0.138219
    126          1           0      -16.295984   -0.816786    0.972428
    127          1           0      -16.405634   -0.592479   -0.861484
    128          1           0      -15.555681    2.468878    0.355960
    129          1           0      -13.850685    2.461798    0.521525
    130          1           0      -14.625491    0.983754    2.740067
    131          1           0      -15.882566    2.258113    2.584105
    132          1           0      -14.704172    3.695132    3.624315
    133          1           0      -13.546348    3.749480    2.296920
    134          1           0      -13.377103    1.673313    4.437461
    135          1           0      -12.667831    4.721466    4.412458
    136          1           0      -11.441279    3.660113    5.036064
    137          1           0      -12.825487    3.657940    5.866429
    138          1           0      -11.794291    2.127432    2.104222
    139          1           0      -11.672427    0.857634    3.351489
    140          1           0      -10.739070    2.365750    3.497383
 ---------------------------------------------------------------------

 SCF Done:  E(RPBE1PBE) =  -3005.34098330     A.U. after   15 cycles

 Excitation energies and oscillator strengths:

 Excited State   1:      Singlet-A      1.8801 eV  659.46 nm  f=0.3735  <S**2>=0.000
     245 -> 248        0.17437
     246 -> 247        0.68731
     246 <- 247       -0.10151
 This state for optimization and/or second-order correction.
 Total Energy, E(TD-HF/TD-DFT) =  -3005.27189169
 Copying the excited state density for this state as the 1-particle RhoCI density.

 Excited State   2:      Singlet-A      2.1207 eV  584.65 nm  f=0.1588  <S**2>=0.000
     245 -> 247        0.66874
     246 -> 248       -0.19929

 Excited State   3:      Singlet-A      2.8353 eV  437.29 nm  f=0.0012  <S**2>=0.000
     242 -> 247        0.54020
     242 -> 249       -0.10189
     243 -> 247        0.41984

 Excited State   4:      Singlet-A      2.9048 eV  426.83 nm  f=0.0048  <S**2>=0.000
     242 -> 247       -0.42259
     243 -> 247        0.55086

 Excited State   5:      Singlet-A      3.0232 eV  410.11 nm  f=0.0015  <S**2>=0.000
     240 -> 247        0.28436
     240 -> 249        0.10131
     241 -> 247        0.59018
     241 -> 248       -0.12442
     241 -> 249        0.14514

 The electronic state is 1-A.
 Alpha  occ. eigenvalues --  -46.92549 -19.26822 -19.24453 -19.20669 -19.19156
 Alpha  occ. eigenvalues --  -19.18747 -19.17991 -14.41859 -14.41252 -14.40122
 Alpha  occ. eigenvalues --  -14.38356 -10.38003 -10.34716 -10.32867 -10.30994
 Alpha  occ. eigenvalues --  -10.29879 -10.29197 -10.29087 -10.28734 -10.28538
 Alpha  occ. eigenvalues --  -10.28454 -10.27910 -10.27719 -10.27251 -10.26646
 Alpha  occ. eigenvalues --  -10.26527 -10.26501 -10.26223 -10.26031 -10.25814
 Alpha  occ. eigenvalues --  -10.25742 -10.25733 -10.25616 -10.25366 -10.25175
 Alpha  occ. eigenvalues --  -10.25136 -10.25016 -10.24733 -10.24708 -10.24147
 Alpha  occ. eigenvalues --  -10.23987 -10.23870 -10.23795 -10.23557 -10.23511
 Alpha  occ. eigenvalues --  -10.23503 -10.23502 -10.23477 -10.23452 -10.23327
 Alpha  occ. eigenvalues --  -10.23250 -10.22914 -10.22842 -10.22750 -10.22575
 Alpha  occ. eigenvalues --  -10.22472 -10.22462 -10.22349 -10.22051 -10.21967
 Alpha  occ. eigenvalues --  -10.21952 -10.21905 -10.21757 -10.21675 -10.21641
 Alpha  occ. eigenvalues --  -10.21610  -3.14588  -1.87426  -1.86966  -1.86810
 Alpha  occ. eigenvalues --   -1.11378  -1.10723  -1.04250  -1.02592  -1.01931
 Alpha  occ. eigenvalues --   -1.00496  -0.99274  -0.98995  -0.97318  -0.96610
 Alpha  occ. eigenvalues --   -0.86314  -0.84365  -0.83943  -0.83516  -0.82940
 Alpha  occ. eigenvalues --   -0.82589  -0.82226  -0.81799  -0.81035  -0.80970
 Alpha  occ. eigenvalues --   -0.80691  -0.79626  -0.78337  -0.77655  -0.77367
 Alpha  occ. eigenvalues --   -0.76647  -0.76328  -0.75556  -0.74840  -0.74280
 Alpha  occ. eigenvalues --   -0.73942  -0.72544  -0.72300  -0.71279  -0.70175
 Alpha  occ. eigenvalues --   -0.69903  -0.69488  -0.69394  -0.68580  -0.68410
 Alpha  occ. eigenvalues --   -0.67703  -0.67189  -0.65627  -0.64287  -0.63042
 Alpha  occ. eigenvalues --   -0.62972  -0.62590  -0.61775  -0.60743  -0.60152
 Alpha  occ. eigenvalues --   -0.59965  -0.59454  -0.59256  -0.58431  -0.57862
 Alpha  occ. eigenvalues --   -0.57689  -0.57495  -0.56896  -0.55735  -0.54500
 Alpha  occ. eigenvalues --   -0.54384  -0.54022  -0.53844  -0.52824  -0.51922
 Alpha  occ. eigenvalues --   -0.51793  -0.51190  -0.50697  -0.50339  -0.49842
 Alpha  occ. eigenvalues --   -0.49731  -0.48856  -0.48450  -0.48374  -0.48318
 Alpha  occ. eigenvalues --   -0.48038  -0.47913  -0.47602  -0.47512  -0.47223
 Alpha  occ. eigenvalues --   -0.47136  -0.46545  -0.46327  -0.46222  -0.46107
 Alpha  occ. eigenvalues --   -0.45962  -0.45661  -0.45623  -0.45308  -0.45193
 Alpha  occ. eigenvalues --   -0.45056  -0.44722  -0.44698  -0.44340  -0.43913
 Alpha  occ. eigenvalues --   -0.43646  -0.43444  -0.43388  -0.43276  -0.43085
 Alpha  occ. eigenvalues --   -0.42683  -0.42515  -0.42476  -0.42236  -0.42198
 Alpha  occ. eigenvalues --   -0.41838  -0.41655  -0.41520  -0.41322  -0.41199
 Alpha  occ. eigenvalues --   -0.41048  -0.40779  -0.40744  -0.40664  -0.40372
 Alpha  occ. eigenvalues --   -0.40274  -0.40028  -0.39857  -0.39683  -0.39576
 Alpha  occ. eigenvalues --   -0.39314  -0.39199  -0.39050  -0.38711  -0.38532
 Alpha  occ. eigenvalues --   -0.38453  -0.38276  -0.38216  -0.38029  -0.37843
 Alpha  occ. eigenvalues --   -0.37828  -0.37408  -0.37344  -0.37039  -0.36486
 Alpha  occ. eigenvalues --   -0.36417  -0.36401  -0.36267  -0.36122  -0.35847
 Alpha  occ. eigenvalues --   -0.35611  -0.35493  -0.35063  -0.35029  -0.34666
 Alpha  occ. eigenvalues --   -0.34530  -0.34283  -0.34149  -0.34065  -0.33651
 Alpha  occ. eigenvalues --   -0.33347  -0.32926  -0.32755  -0.32352  -0.32178
 Alpha  occ. eigenvalues --   -0.32044  -0.31904  -0.31860  -0.31572  -0.31462
 Alpha  occ. eigenvalues --   -0.31042  -0.30393  -0.30099  -0.29816  -0.29023
 Alpha  occ. eigenvalues --   -0.28824  -0.27797  -0.27699  -0.26949  -0.26012
 Alpha  occ. eigenvalues --   -0.25810  -0.24945  -0.24723  -0.24670  -0.20467
 Alpha  occ. eigenvalues --   -0.19065
 Alpha virt. eigenvalues --   -0.11329  -0.05305  -0.04063  -0.01943  -0.01418
 Alpha virt. eigenvalues --   -0.00543   0.00949   0.01463   0.02200   0.03170
 Alpha virt. eigenvalues --    0.04183   0.04417   0.05071   0.05498   0.05733

 Mulliken charges:
               1
     1  Mg   0.973857
     2  C    0.043524
     3  C   -0.067218
     4  C   -0.044170
     5  C   -0.064274
     6  N   -0.345425
     7  C    0.007632
     8  C   -0.058352
     9  C   -0.175002
    10  C    0.063109
    11  C    0.033874
    12  C   -0.020884
    13  C   -0.042314
    14  C    0.268981
    15  O   -0.308547
    16  O   -0.363137
    17  N   -0.506316
    18  C    0.184912
    19  C   -0.200440
    20  C   -0.060846
    21  C    0.185885
    22  C    0.055049
    23  C    0.048826
    24  O   -0.274722
    25  C   -0.003295
    26  N   -0.380576
    27  C    0.011832
    28  C   -0.081180
    29  C   -0.134959
    30  C    0.072243
    31  C    0.012086
    32  C   -0.010501
    33  C   -0.083903
    34  N   -0.485235
    35  C    0.131249
    36  C   -0.174641
    37  C   -0.038487
    38  C    0.105516
    39  C    0.098047
    40  C    0.110217
    41  O   -0.208663
    42  C   -0.121754
    43  C    0.228146
    44  O   -0.221643
    45  O   -0.360097
    46  C    0.125709
    47  C    0.225929
    48  C   -0.140268
    49  C   -0.232734
    50  C    0.022976
    51  C    0.025747
    52  C   -0.036525
    53  C   -0.007824
    54  C   -0.244984
    55  C    0.007288
    56  C    0.006863
    57  C   -0.018877
    58  C   -0.013471
    59  C   -0.217787
    60  C   -0.005301
    61  C   -0.020263
    62  C   -0.011129
    63  C   -0.030612
    64  C   -0.258382
    65  C   -0.007955
    66  C   -0.016337
    67  H    0.013933
    68  H    0.033736
    69  H    0.000428
    70  H    0.052863
    71  H    0.048477
    72  H    0.057851
    73  H    0.042284
    74  H    0.048209
    75  H    0.039768
    76  H    0.069044
    77  H    0.068921
    78  H    0.076040
    79  H    0.039411
    80  H    0.064407
    81  H    0.056686
    82  H    0.053434
    83  H    0.075446
    84  H    0.051176
    85  H    0.049667
    86  H    0.048252
    87  H    0.065327
    88  H    0.038542
    89  H    0.047904
    90  H    0.053832
    91  H    0.038953
    92  H    0.033811
    93  H    0.036503
    94  H    0.046987
    95  H    0.059977
    96  H    0.048284
    97  H    0.061697
    98  H    0.091196
    99  H    0.053545
   100  H    0.057702
   101  H    0.050295
   102  H    0.077453
   103  H    0.056170
   104  H    0.033285
   105  H    0.058348
   106  H    0.046548
   107  H    0.051627
   108  H    0.019403
   109  H    0.031117
   110  H    0.031310
   111  H    0.030964
   112  H    0.020586
   113  H    0.030135
   114  H    0.031352
   115  H    0.026890
   116  H    0.020512
   117  H    0.046126
   118  H    0.039847
   119  H    0.025004
   120  H    0.033947
   121  H    0.028039
   122  H   -0.001579
   123  H    0.018411
   124  H    0.027673
   125  H    0.021150
   126  H    0.043484
   127  H    0.035297
   128  H    0.021692
   129  H    0.019122
   130  H    0.027448
   131  H    0.029026
   132  H    0.033332
   133  H    0.029322
   134  H    0.036152
   135  H    0.044766
   136  H    0.008646
   137  H    0.032282
   138  H    0.034063
   139  H    0.037924
   140  H    0.038067
 Sum of Mulliken charges =  -0.00000

 Dipole moment (field-independent basis, Debye):
    X=             -2.4856    Y=              4.6430    Z=              0.3332  Tot=              5.2770
 Quadrupole moment (field-independent basis, Debye-Ang):
   XX=           -371.4916   YY=           -409.0062   ZZ=           -400.5408
   XY=              3.9233   XZ=             25.6451   YZ=             -0.1734

 Normal termination of Gaussian 16 at Sat Apr 30 04:08:54 2022.
