 Gaussian 16, Revision A.03,
 Gaussian 16:  ES64L-G16RevA.03 25-Dec-2016

 --------------------------------
 #p wB97XD/Def2SVP td=(nstates=5)
 --------------------------------

 ---------------------------------------------------
 step_551_chromophore_7 TDDFT with wB97XD functional
 ---------------------------------------------------
 Symbolic Z-matrix:
 Charge =  0 Multiplicity = 1

                         Standard orientation:
 ---------------------------------------------------------------------
 Center     Atomic      Atomic             Coordinates (Angstroms)
 Number     Number       Type             X           Y           Z
 ---------------------------------------------------------------------
      1         12           0        6.279146    0.529430    0.314565
      2          6           0        3.756302   -1.958446   -0.005881
      3          6           0        4.002921    2.749989   -1.136304
      4          6           0        8.753928    2.784555    0.198390
      5          6           0        8.572275   -1.942136    1.052069
      6          7           0        4.142564    0.299950   -0.463340
      7          6           0        3.295640   -0.715935   -0.450144
      8          6           0        1.851015   -0.307415   -0.740406
      9          6           0        2.025412    1.123380   -1.287094
     10          6           0        3.497018    1.433714   -0.919805
     11          6           0        1.723069    1.273117   -2.777544
     12          6           0        0.825574   -0.463344    0.460688
     13          6           0       -0.610996    0.079571    0.338392
     14          6           0       -1.769946   -0.989300    0.487845
     15          8           0       -1.702922   -2.112153    1.101922
     16          8           0       -2.788304   -0.768661   -0.416856
     17          7           0        6.366969    2.540405   -0.272691
     18          6           0        5.340082    3.259209   -0.844020
     19          6           0        5.856093    4.628251   -1.090495
     20          6           0        7.258414    4.640541   -0.880631
     21          6           0        7.540284    3.300791   -0.249352
     22          6           0        4.957251    5.794597   -1.576112
     23          6           0        8.313676    5.671677   -1.212199
     24          8           0        9.533696    5.456251   -0.953738
     25          6           0        7.927324    6.970683   -1.867760
     26          7           0        8.357794    0.441216    0.586963
     27          6           0        9.144573    1.544982    0.685965
     28          6           0       10.613075    1.214807    1.150277
     29          6           0       10.397514   -0.300231    1.593607
     30          6           0        9.019295   -0.606108    1.070328
     31          6           0       11.638985    1.378018   -0.032936
     32          6           0       10.452118   -0.538820    3.176021
     33          6           0       11.348591   -1.693875    3.571594
     34          7           0        6.300104   -1.540249    0.520779
     35          6           0        7.260747   -2.479463    0.742037
     36          6           0        6.845646   -3.795710    0.781769
     37          6           0        5.442454   -3.643592    0.582592
     38          6           0        5.124607   -2.288926    0.375903
     39          6           0        7.572436   -5.079275    1.012678
     40          6           0        4.190221   -4.322833    0.497242
     41          8           0        3.897836   -5.481200    0.698571
     42          6           0        3.058725   -3.290759    0.174203
     43          6           0        2.144329   -3.775640   -0.899666
     44          8           0        2.257741   -3.731435   -2.073911
     45          8           0        1.086540   -4.413153   -0.336927
     46          6           0        0.209068   -5.128548   -1.321298
     47          6           0       -3.772666   -1.869340   -0.451079
     48          6           0       -5.033432   -1.550094   -1.282252
     49          6           0       -6.130471   -2.315084   -1.536742
     50          6           0       -6.174918   -3.805342   -1.186684
     51          6           0       -7.359948   -1.714453   -2.166357
     52          6           0       -8.318315   -1.102687   -1.153569
     53          6           0       -9.066585    0.170198   -1.659352
     54          6           0      -10.573497   -0.220987   -2.199648
     55          6           0      -10.942830    0.548455   -3.461900
     56          6           0      -11.512705    0.013994   -0.979891
     57          6           0      -12.876635   -0.722014   -1.196726
     58          6           0      -13.988211    0.317549   -1.160224
     59          6           0      -14.714832    0.458312    0.208920
     60          6           0      -16.153291   -0.166895    0.110091
     61          6           0      -14.742064    1.906915    0.814547
     62          6           0      -14.851975    1.980623    2.363800
     63          6           0      -14.032602    3.089888    3.015198
     64          6           0      -12.929373    2.527746    3.928572
     65          6           0      -12.508678    3.725093    4.824909
     66          6           0      -11.684553    1.932224    3.171867
     67          1           0        3.292388    3.359922   -1.698170
     68          1           0        9.627207    3.432711    0.300876
     69          1           0        9.275307   -2.622228    1.537512
     70          1           0        1.520660   -1.026436   -1.489373
     71          1           0        1.430931    1.848673   -0.732697
     72          1           0        1.583364    0.306876   -3.261164
     73          1           0        2.640161    1.711090   -3.173449
     74          1           0        0.895389    1.970730   -2.907481
     75          1           0        1.262524   -0.125519    1.400575
     76          1           0        0.601768   -1.527283    0.544416
     77          1           0       -0.611669    0.434677   -0.692437
     78          1           0       -0.707476    0.894745    1.055219
     79          1           0        3.902774    5.527260   -1.521572
     80          1           0        5.251196    6.040917   -2.596718
     81          1           0        5.036218    6.643558   -0.896781
     82          1           0        8.791578    7.469022   -2.306490
     83          1           0        7.388243    7.576042   -1.138076
     84          1           0        7.369557    6.726986   -2.772064
     85          1           0       10.876685    1.818760    2.018995
     86          1           0       11.117113   -1.006004    1.178409
     87          1           0       11.174794    2.046451   -0.758812
     88          1           0       11.833973    0.390358   -0.451586
     89          1           0       12.635149    1.704262    0.263134
     90          1           0        9.438862   -0.609207    3.570264
     91          1           0       10.965608    0.288475    3.666254
     92          1           0       12.072878   -1.289443    4.278221
     93          1           0       11.960682   -2.115426    2.773915
     94          1           0       10.890175   -2.529976    4.100477
     95          1           0        7.122428   -5.449579    1.933919
     96          1           0        8.661802   -5.057541    1.054282
     97          1           0        7.173078   -5.765580    0.266909
     98          1           0        2.343351   -3.282265    0.997024
     99          1           0       -0.274351   -6.031126   -0.947388
    100          1           0        0.776874   -5.571022   -2.139715
    101          1           0       -0.574102   -4.516824   -1.768627
    102          1           0       -4.057570   -2.161824    0.559568
    103          1           0       -3.278738   -2.675597   -0.993181
    104          1           0       -5.039473   -0.485318   -1.515695
    105          1           0       -5.366730   -4.248522   -1.767301
    106          1           0       -7.121130   -4.310671   -1.379032
    107          1           0       -5.891888   -3.873965   -0.136390
    108          1           0       -7.973530   -2.398482   -2.753467
    109          1           0       -7.098492   -0.969201   -2.917866
    110          1           0       -7.776275   -0.893817   -0.232040
    111          1           0       -9.024081   -1.896688   -0.908465
    112          1           0       -8.559994    0.643061   -2.500144
    113          1           0       -9.106736    0.935196   -0.883920
    114          1           0      -10.578582   -1.247555   -2.564760
    115          1           0      -10.332568    1.449292   -3.514746
    116          1           0      -11.928326    0.992203   -3.323072
    117          1           0      -10.937717   -0.050381   -4.373652
    118          1           0      -11.626371    1.071599   -0.741963
    119          1           0      -11.076120   -0.422475   -0.081281
    120          1           0      -13.029031   -1.544018   -0.497914
    121          1           0      -12.978821   -1.152060   -2.193247
    122          1           0      -14.749726   -0.023972   -1.860903
    123          1           0      -13.830858    1.278061   -1.649881
    124          1           0      -14.161386   -0.112766    0.954152
    125          1           0      -16.896240    0.630929    0.138219
    126          1           0      -16.295984   -0.816786    0.972428
    127          1           0      -16.405634   -0.592479   -0.861484
    128          1           0      -15.555681    2.468878    0.355960
    129          1           0      -13.850685    2.461798    0.521525
    130          1           0      -14.625491    0.983754    2.740067
    131          1           0      -15.882566    2.258113    2.584105
    132          1           0      -14.704172    3.695132    3.624315
    133          1           0      -13.546348    3.749480    2.296920
    134          1           0      -13.377103    1.673313    4.437461
    135          1           0      -12.667831    4.721466    4.412458
    136          1           0      -11.441279    3.660113    5.036064
    137          1           0      -12.825487    3.657940    5.866429
    138          1           0      -11.794291    2.127432    2.104222
    139          1           0      -11.672427    0.857634    3.351489
    140          1           0      -10.739070    2.365750    3.497383
 ---------------------------------------------------------------------

 SCF Done:  E(RwB97XD) =  -3007.84892313     A.U. after   20 cycles

 Excitation energies and oscillator strengths:

 Excited State   1:      Singlet-A      1.6847 eV  735.93 nm  f=0.3914  <S**2>=0.000
     245 -> 248        0.18696
     246 -> 247        0.68050
     245 <- 248        0.11203
 This state for optimization and/or second-order correction.
 Total Energy, E(TD-HF/TD-DFT) =  -3007.78701044
 Copying the excited state density for this state as the 1-particle RhoCI density.

 Excited State   2:      Singlet-A      2.0681 eV  599.50 nm  f=0.1624  <S**2>=0.000
     245 -> 247        0.65690
     246 -> 248       -0.23716

 Excited State   3:      Singlet-A      3.2461 eV  381.95 nm  f=0.0013  <S**2>=0.000
     241 -> 247       -0.13242
     244 -> 247        0.66909
     246 -> 248        0.10333

 Excited State   4:      Singlet-A      3.4774 eV  356.54 nm  f=0.0070  <S**2>=0.000
     239 -> 247        0.19274
     239 -> 248       -0.11644
     239 -> 249        0.19068
     240 -> 247        0.43728
     240 -> 248       -0.19334
     240 -> 249        0.32499
     241 -> 247        0.18409

 Excited State   5:      Singlet-A      3.5046 eV  353.78 nm  f=0.0414  <S**2>=0.000
     241 -> 247        0.10798
     242 -> 247        0.55898
     242 -> 249       -0.22075
     242 -> 250        0.18862
     242 -> 251        0.16447
     246 -> 248        0.18590

 The electronic state is 1-A.
 Alpha  occ. eigenvalues --  -46.95479 -19.31327 -19.28904 -19.25247 -19.24223
 Alpha  occ. eigenvalues --  -19.23358 -19.22530 -14.46913 -14.46417 -14.45205
 Alpha  occ. eigenvalues --  -14.43108 -10.44700 -10.41431 -10.39958 -10.37617
 Alpha  occ. eigenvalues --  -10.36311 -10.35779 -10.35681 -10.35370 -10.34954
 Alpha  occ. eigenvalues --  -10.34678 -10.34327 -10.34080 -10.33822 -10.32899
 Alpha  occ. eigenvalues --  -10.32688 -10.32519 -10.32499 -10.32443 -10.32281
 Alpha  occ. eigenvalues --  -10.32237 -10.31914 -10.31905 -10.31771 -10.31520
 Alpha  occ. eigenvalues --  -10.31505 -10.31233 -10.31020 -10.30984 -10.30671
 Alpha  occ. eigenvalues --  -10.30374 -10.30314 -10.30058 -10.30055 -10.29933
 Alpha  occ. eigenvalues --  -10.29931 -10.29909 -10.29756 -10.29721 -10.29716
 Alpha  occ. eigenvalues --  -10.29529 -10.29247 -10.29223 -10.29084 -10.28942
 Alpha  occ. eigenvalues --  -10.28835 -10.28711 -10.28459 -10.28419 -10.28341
 Alpha  occ. eigenvalues --  -10.28321 -10.28310 -10.28187 -10.28068 -10.28023
 Alpha  occ. eigenvalues --  -10.28022  -3.21389  -1.94973  -1.94515  -1.94355
 Alpha  occ. eigenvalues --   -1.18645  -1.18047  -1.11472  -1.10354  -1.09173
 Alpha  occ. eigenvalues --   -1.07800  -1.06652  -1.06387  -1.04522  -1.04153
 Alpha  occ. eigenvalues --   -0.93770  -0.92031  -0.91553  -0.91185  -0.90567
 Alpha  occ. eigenvalues --   -0.90254  -0.89883  -0.89441  -0.88945  -0.88629
 Alpha  occ. eigenvalues --   -0.88085  -0.87286  -0.86004  -0.85251  -0.84954
 Alpha  occ. eigenvalues --   -0.84301  -0.84215  -0.83218  -0.82454  -0.81875
 Alpha  occ. eigenvalues --   -0.81595  -0.80314  -0.79926  -0.78834  -0.77725
 Alpha  occ. eigenvalues --   -0.77576  -0.77188  -0.76980  -0.76238  -0.76085
 Alpha  occ. eigenvalues --   -0.75194  -0.74772  -0.73186  -0.71905  -0.70578
 Alpha  occ. eigenvalues --   -0.70500  -0.70202  -0.69451  -0.68351  -0.67653
 Alpha  occ. eigenvalues --   -0.67438  -0.66953  -0.66856  -0.65800  -0.65544
 Alpha  occ. eigenvalues --   -0.65327  -0.64938  -0.64529  -0.63031  -0.62008
 Alpha  occ. eigenvalues --   -0.61932  -0.61442  -0.61276  -0.60211  -0.59286
 Alpha  occ. eigenvalues --   -0.59140  -0.58586  -0.58140  -0.57753  -0.57219
 Alpha  occ. eigenvalues --   -0.57114  -0.56196  -0.55833  -0.55774  -0.55727
 Alpha  occ. eigenvalues --   -0.55465  -0.55380  -0.55129  -0.54954  -0.54591
 Alpha  occ. eigenvalues --   -0.54533  -0.53932  -0.53688  -0.53541  -0.53434
 Alpha  occ. eigenvalues --   -0.53283  -0.53009  -0.52972  -0.52863  -0.52513
 Alpha  occ. eigenvalues --   -0.52378  -0.52042  -0.51930  -0.51588  -0.51335
 Alpha  occ. eigenvalues --   -0.50978  -0.50728  -0.50691  -0.50556  -0.50354
 Alpha  occ. eigenvalues --   -0.50024  -0.49838  -0.49785  -0.49687  -0.49394
 Alpha  occ. eigenvalues --   -0.49086  -0.48986  -0.48757  -0.48599  -0.48462
 Alpha  occ. eigenvalues --   -0.48170  -0.48039  -0.47871  -0.47847  -0.47508
 Alpha  occ. eigenvalues --   -0.47429  -0.47142  -0.47047  -0.46790  -0.46684
 Alpha  occ. eigenvalues --   -0.46435  -0.46317  -0.46153  -0.45752  -0.45638
 Alpha  occ. eigenvalues --   -0.45605  -0.45505  -0.45358  -0.45104  -0.44990
 Alpha  occ. eigenvalues --   -0.44927  -0.44500  -0.44422  -0.44154  -0.43875
 Alpha  occ. eigenvalues --   -0.43553  -0.43482  -0.43275  -0.43253  -0.42846
 Alpha  occ. eigenvalues --   -0.42689  -0.42533  -0.42161  -0.42020  -0.41659
 Alpha  occ. eigenvalues --   -0.41620  -0.41328  -0.41235  -0.41027  -0.40712
 Alpha  occ. eigenvalues --   -0.40276  -0.39844  -0.39790  -0.39397  -0.39222
 Alpha  occ. eigenvalues --   -0.39040  -0.38928  -0.38816  -0.38570  -0.38447
 Alpha  occ. eigenvalues --   -0.38038  -0.37387  -0.36886  -0.36694  -0.36087
 Alpha  occ. eigenvalues --   -0.35666  -0.34648  -0.34433  -0.33726  -0.33227
 Alpha  occ. eigenvalues --   -0.32670  -0.31802  -0.31414  -0.31012  -0.25407
 Alpha  occ. eigenvalues --   -0.23310
 Alpha virt. eigenvalues --   -0.07265   0.00203   0.02040   0.04844   0.05313
 Alpha virt. eigenvalues --    0.05345   0.07665   0.08132   0.09106   0.09651
 Alpha virt. eigenvalues --    0.10619   0.11246   0.11835   0.12212   0.12476

 Mulliken charges:
               1
     1  Mg   0.963577
     2  C    0.043287
     3  C   -0.090049
     4  C   -0.057960
     5  C   -0.082165
     6  N   -0.310127
     7  C   -0.028524
     8  C   -0.032407
     9  C   -0.151057
    10  C    0.056126
    11  C    0.043113
    12  C   -0.003770
    13  C   -0.026880
    14  C    0.263223
    15  O   -0.307606
    16  O   -0.363508
    17  N   -0.476271
    18  C    0.180219
    19  C   -0.189716
    20  C   -0.054504
    21  C    0.179796
    22  C    0.068284
    23  C    0.046488
    24  O   -0.267424
    25  C    0.007167
    26  N   -0.347402
    27  C    0.000706
    28  C   -0.058075
    29  C   -0.105481
    30  C    0.059157
    31  C    0.022932
    32  C    0.000525
    33  C   -0.069030
    34  N   -0.452085
    35  C    0.123530
    36  C   -0.173756
    37  C   -0.033541
    38  C    0.087384
    39  C    0.108244
    40  C    0.092820
    41  O   -0.200833
    42  C   -0.082638
    43  C    0.201268
    44  O   -0.214999
    45  O   -0.358454
    46  C    0.143227
    47  C    0.241392
    48  C   -0.154653
    49  C   -0.212008
    50  C    0.035493
    51  C    0.040107
    52  C   -0.020705
    53  C    0.009393
    54  C   -0.215453
    55  C    0.018481
    56  C    0.021786
    57  C   -0.001685
    58  C    0.002794
    59  C   -0.188433
    60  C    0.006588
    61  C   -0.003846
    62  C    0.005146
    63  C   -0.014007
    64  C   -0.229473
    65  C    0.004975
    66  C   -0.002813
    67  H    0.007244
    68  H    0.028592
    69  H   -0.008733
    70  H    0.039723
    71  H    0.037710
    72  H    0.054306
    73  H    0.034212
    74  H    0.043882
    75  H    0.033537
    76  H    0.052019
    77  H    0.059813
    78  H    0.071631
    79  H    0.036329
    80  H    0.059796
    81  H    0.052607
    82  H    0.053429
    83  H    0.071845
    84  H    0.045104
    85  H    0.041289
    86  H    0.034897
    87  H    0.058118
    88  H    0.032985
    89  H    0.043604
    90  H    0.046323
    91  H    0.029736
    92  H    0.027941
    93  H    0.029998
    94  H    0.041877
    95  H    0.053779
    96  H    0.043544
    97  H    0.056023
    98  H    0.083299
    99  H    0.049660
   100  H    0.052547
   101  H    0.045960
   102  H    0.071685
   103  H    0.049837
   104  H    0.030435
   105  H    0.052479
   106  H    0.043072
   107  H    0.045412
   108  H    0.012056
   109  H    0.022790
   110  H    0.022447
   111  H    0.020911
   112  H    0.010138
   113  H    0.022928
   114  H    0.018435
   115  H    0.020441
   116  H    0.010834
   117  H    0.042388
   118  H    0.028017
   119  H    0.015411
   120  H    0.027662
   121  H    0.019034
   122  H   -0.011502
   123  H    0.009676
   124  H    0.010972
   125  H    0.014014
   126  H    0.038750
   127  H    0.029432
   128  H    0.013119
   129  H    0.005378
   130  H    0.016477
   131  H    0.021818
   132  H    0.024995
   133  H    0.018945
   134  H    0.025268
   135  H    0.039007
   136  H    0.001149
   137  H    0.026841
   138  H    0.023875
   139  H    0.032504
   140  H    0.032352
 Sum of Mulliken charges =  -0.00000

 Dipole moment (field-independent basis, Debye):
    X=             -2.4130    Y=              5.4362    Z=              0.1557  Tot=              5.9497
 Quadrupole moment (field-independent basis, Debye-Ang):
   XX=           -370.8403   YY=           -406.7475   ZZ=           -400.1932
   XY=              9.3460   XZ=             24.2061   YZ=             -0.5836

 Normal termination of Gaussian 16 at Sat Apr 30 04:36:45 2022.
