 Gaussian 16, Revision A.03,
 Gaussian 16:  ES64L-G16RevA.03 25-Dec-2016

 --------------------
 #p ZINDO=(nstates=5)
 --------------------

 ----------------------------
 step_551_chromophore_7 ZINDO
 ----------------------------
 Symbolic Z-matrix:
 Charge =  0 Multiplicity = 1

                         Standard orientation:
 ---------------------------------------------------------------------
 Center     Atomic      Atomic             Coordinates (Angstroms)
 Number     Number       Type             X           Y           Z
 ---------------------------------------------------------------------
      1         12           0        6.279146    0.529430    0.314565
      2          6           0        3.756302   -1.958446   -0.005881
      3          6           0        4.002921    2.749989   -1.136304
      4          6           0        8.753928    2.784555    0.198390
      5          6           0        8.572275   -1.942136    1.052069
      6          7           0        4.142564    0.299950   -0.463340
      7          6           0        3.295640   -0.715935   -0.450144
      8          6           0        1.851015   -0.307415   -0.740406
      9          6           0        2.025412    1.123380   -1.287094
     10          6           0        3.497018    1.433714   -0.919805
     11          6           0        1.723069    1.273117   -2.777544
     12          6           0        0.825574   -0.463344    0.460688
     13          6           0       -0.610996    0.079571    0.338392
     14          6           0       -1.769946   -0.989300    0.487845
     15          8           0       -1.702922   -2.112153    1.101922
     16          8           0       -2.788304   -0.768661   -0.416856
     17          7           0        6.366969    2.540405   -0.272691
     18          6           0        5.340082    3.259209   -0.844020
     19          6           0        5.856093    4.628251   -1.090495
     20          6           0        7.258414    4.640541   -0.880631
     21          6           0        7.540284    3.300791   -0.249352
     22          6           0        4.957251    5.794597   -1.576112
     23          6           0        8.313676    5.671677   -1.212199
     24          8           0        9.533696    5.456251   -0.953738
     25          6           0        7.927324    6.970683   -1.867760
     26          7           0        8.357794    0.441216    0.586963
     27          6           0        9.144573    1.544982    0.685965
     28          6           0       10.613075    1.214807    1.150277
     29          6           0       10.397514   -0.300231    1.593607
     30          6           0        9.019295   -0.606108    1.070328
     31          6           0       11.638985    1.378018   -0.032936
     32          6           0       10.452118   -0.538820    3.176021
     33          6           0       11.348591   -1.693875    3.571594
     34          7           0        6.300104   -1.540249    0.520779
     35          6           0        7.260747   -2.479463    0.742037
     36          6           0        6.845646   -3.795710    0.781769
     37          6           0        5.442454   -3.643592    0.582592
     38          6           0        5.124607   -2.288926    0.375903
     39          6           0        7.572436   -5.079275    1.012678
     40          6           0        4.190221   -4.322833    0.497242
     41          8           0        3.897836   -5.481200    0.698571
     42          6           0        3.058725   -3.290759    0.174203
     43          6           0        2.144329   -3.775640   -0.899666
     44          8           0        2.257741   -3.731435   -2.073911
     45          8           0        1.086540   -4.413153   -0.336927
     46          6           0        0.209068   -5.128548   -1.321298
     47          6           0       -3.772666   -1.869340   -0.451079
     48          6           0       -5.033432   -1.550094   -1.282252
     49          6           0       -6.130471   -2.315084   -1.536742
     50          6           0       -6.174918   -3.805342   -1.186684
     51          6           0       -7.359948   -1.714453   -2.166357
     52          6           0       -8.318315   -1.102687   -1.153569
     53          6           0       -9.066585    0.170198   -1.659352
     54          6           0      -10.573497   -0.220987   -2.199648
     55          6           0      -10.942830    0.548455   -3.461900
     56          6           0      -11.512705    0.013994   -0.979891
     57          6           0      -12.876635   -0.722014   -1.196726
     58          6           0      -13.988211    0.317549   -1.160224
     59          6           0      -14.714832    0.458312    0.208920
     60          6           0      -16.153291   -0.166895    0.110091
     61          6           0      -14.742064    1.906915    0.814547
     62          6           0      -14.851975    1.980623    2.363800
     63          6           0      -14.032602    3.089888    3.015198
     64          6           0      -12.929373    2.527746    3.928572
     65          6           0      -12.508678    3.725093    4.824909
     66          6           0      -11.684553    1.932224    3.171867
     67          1           0        3.292388    3.359922   -1.698170
     68          1           0        9.627207    3.432711    0.300876
     69          1           0        9.275307   -2.622228    1.537512
     70          1           0        1.520660   -1.026436   -1.489373
     71          1           0        1.430931    1.848673   -0.732697
     72          1           0        1.583364    0.306876   -3.261164
     73          1           0        2.640161    1.711090   -3.173449
     74          1           0        0.895389    1.970730   -2.907481
     75          1           0        1.262524   -0.125519    1.400575
     76          1           0        0.601768   -1.527283    0.544416
     77          1           0       -0.611669    0.434677   -0.692437
     78          1           0       -0.707476    0.894745    1.055219
     79          1           0        3.902774    5.527260   -1.521572
     80          1           0        5.251196    6.040917   -2.596718
     81          1           0        5.036218    6.643558   -0.896781
     82          1           0        8.791578    7.469022   -2.306490
     83          1           0        7.388243    7.576042   -1.138076
     84          1           0        7.369557    6.726986   -2.772064
     85          1           0       10.876685    1.818760    2.018995
     86          1           0       11.117113   -1.006004    1.178409
     87          1           0       11.174794    2.046451   -0.758812
     88          1           0       11.833973    0.390358   -0.451586
     89          1           0       12.635149    1.704262    0.263134
     90          1           0        9.438862   -0.609207    3.570264
     91          1           0       10.965608    0.288475    3.666254
     92          1           0       12.072878   -1.289443    4.278221
     93          1           0       11.960682   -2.115426    2.773915
     94          1           0       10.890175   -2.529976    4.100477
     95          1           0        7.122428   -5.449579    1.933919
     96          1           0        8.661802   -5.057541    1.054282
     97          1           0        7.173078   -5.765580    0.266909
     98          1           0        2.343351   -3.282265    0.997024
     99          1           0       -0.274351   -6.031126   -0.947388
    100          1           0        0.776874   -5.571022   -2.139715
    101          1           0       -0.574102   -4.516824   -1.768627
    102          1           0       -4.057570   -2.161824    0.559568
    103          1           0       -3.278738   -2.675597   -0.993181
    104          1           0       -5.039473   -0.485318   -1.515695
    105          1           0       -5.366730   -4.248522   -1.767301
    106          1           0       -7.121130   -4.310671   -1.379032
    107          1           0       -5.891888   -3.873965   -0.136390
    108          1           0       -7.973530   -2.398482   -2.753467
    109          1           0       -7.098492   -0.969201   -2.917866
    110          1           0       -7.776275   -0.893817   -0.232040
    111          1           0       -9.024081   -1.896688   -0.908465
    112          1           0       -8.559994    0.643061   -2.500144
    113          1           0       -9.106736    0.935196   -0.883920
    114          1           0      -10.578582   -1.247555   -2.564760
    115          1           0      -10.332568    1.449292   -3.514746
    116          1           0      -11.928326    0.992203   -3.323072
    117          1           0      -10.937717   -0.050381   -4.373652
    118          1           0      -11.626371    1.071599   -0.741963
    119          1           0      -11.076120   -0.422475   -0.081281
    120          1           0      -13.029031   -1.544018   -0.497914
    121          1           0      -12.978821   -1.152060   -2.193247
    122          1           0      -14.749726   -0.023972   -1.860903
    123          1           0      -13.830858    1.278061   -1.649881
    124          1           0      -14.161386   -0.112766    0.954152
    125          1           0      -16.896240    0.630929    0.138219
    126          1           0      -16.295984   -0.816786    0.972428
    127          1           0      -16.405634   -0.592479   -0.861484
    128          1           0      -15.555681    2.468878    0.355960
    129          1           0      -13.850685    2.461798    0.521525
    130          1           0      -14.625491    0.983754    2.740067
    131          1           0      -15.882566    2.258113    2.584105
    132          1           0      -14.704172    3.695132    3.624315
    133          1           0      -13.546348    3.749480    2.296920
    134          1           0      -13.377103    1.673313    4.437461
    135          1           0      -12.667831    4.721466    4.412458
    136          1           0      -11.441279    3.660113    5.036064
    137          1           0      -12.825487    3.657940    5.866429
    138          1           0      -11.794291    2.127432    2.104222
    139          1           0      -11.672427    0.857634    3.351489
    140          1           0      -10.739070    2.365750    3.497383
 ---------------------------------------------------------------------

 SCF Done:  E(RZINDO/S) =  -474.018915139     A.U. after   19 cycles

 Excitation energies and oscillator strengths:

 Excited State   1:      Singlet-A      1.2922 eV  959.50 nm  f=0.5875  <S**2>=0.000
     175 ->178         0.18150
     176 ->177         0.66278
 This state for optimization and/or second-order correction.
 Total Energy, E(CIS/TDA) =  -473.971428703
 Copying the excited state density for this state as the 1-particle RhoCI density.

 Excited State   2:      Singlet-A      1.8613 eV  666.11 nm  f=0.0988  <S**2>=0.000
     175 ->177         0.57880
     176 ->178        -0.36251

 Excited State   3:      Singlet-A      2.9147 eV  425.38 nm  f=0.0456  <S**2>=0.000
     167 ->179         0.10328
     168 ->177         0.30429
     168 ->178        -0.22621
     168 ->179        -0.41764
     168 ->181         0.17276
     168 ->184        -0.12861
     168 ->186         0.14886
     176 ->178        -0.13493

 Excited State   4:      Singlet-A      2.9610 eV  418.73 nm  f=0.5907  <S**2>=0.000
     171 ->177         0.14723
     171 ->179         0.10656
     171 ->181         0.15776
     175 ->177         0.28018
     176 ->178         0.49867
     176 ->179         0.13657

 Excited State   5:      Singlet-A      3.0074 eV  412.26 nm  f=0.1352  <S**2>=0.000
     170 ->177         0.12716
     170 ->181         0.13243
     171 ->177         0.26052
     171 ->179         0.19191
     171 ->181         0.32747
     171 ->186        -0.14582
     171 ->188         0.15063
     171 ->203        -0.10961
     175 ->177        -0.13226
     176 ->178        -0.24059
     176 ->179        -0.15962

 The electronic state is 1-A.
 Alpha  occ. eigenvalues --   -1.83443  -1.81178  -1.78651  -1.73609  -1.71386
 Alpha  occ. eigenvalues --   -1.70191  -1.64283  -1.60322  -1.58229  -1.56682
 Alpha  occ. eigenvalues --   -1.55092  -1.49977  -1.48192  -1.46964  -1.46672
 Alpha  occ. eigenvalues --   -1.43165  -1.40882  -1.39860  -1.38493  -1.38108
 Alpha  occ. eigenvalues --   -1.36307  -1.33204  -1.32616  -1.31187  -1.28402
 Alpha  occ. eigenvalues --   -1.26526  -1.24521  -1.22222  -1.20257  -1.17978
 Alpha  occ. eigenvalues --   -1.16788  -1.16027  -1.15194  -1.14901  -1.12513
 Alpha  occ. eigenvalues --   -1.11719  -1.10932  -1.10165  -1.04648  -1.03495
 Alpha  occ. eigenvalues --   -1.01997  -1.01435  -0.98759  -0.97946  -0.96397
 Alpha  occ. eigenvalues --   -0.95733  -0.94135  -0.93534  -0.92803  -0.91588
 Alpha  occ. eigenvalues --   -0.90661  -0.90544  -0.90146  -0.88663  -0.87237
 Alpha  occ. eigenvalues --   -0.86124  -0.83120  -0.82576  -0.82042  -0.80099
 Alpha  occ. eigenvalues --   -0.79815  -0.78407  -0.76375  -0.76304  -0.75879
 Alpha  occ. eigenvalues --   -0.75717  -0.75321  -0.73434  -0.72917  -0.72446
 Alpha  occ. eigenvalues --   -0.72177  -0.71630  -0.71415  -0.71032  -0.70370
 Alpha  occ. eigenvalues --   -0.69933  -0.69363  -0.68600  -0.68515  -0.67858
 Alpha  occ. eigenvalues --   -0.67602  -0.67343  -0.66829  -0.66694  -0.65760
 Alpha  occ. eigenvalues --   -0.65245  -0.64239  -0.64117  -0.63691  -0.63625
 Alpha  occ. eigenvalues --   -0.63383  -0.62960  -0.62323  -0.62096  -0.61850
 Alpha  occ. eigenvalues --   -0.61203  -0.60804  -0.60330  -0.60241  -0.60183
 Alpha  occ. eigenvalues --   -0.60127  -0.59730  -0.59547  -0.59105  -0.59007
 Alpha  occ. eigenvalues --   -0.58125  -0.57833  -0.56676  -0.56458  -0.56056
 Alpha  occ. eigenvalues --   -0.55698  -0.55609  -0.54919  -0.54774  -0.54622
 Alpha  occ. eigenvalues --   -0.54132  -0.53987  -0.53691  -0.53196  -0.52560
 Alpha  occ. eigenvalues --   -0.52433  -0.52319  -0.51692  -0.51243  -0.51182
 Alpha  occ. eigenvalues --   -0.51086  -0.50959  -0.50742  -0.50189  -0.50000
 Alpha  occ. eigenvalues --   -0.49933  -0.49579  -0.49309  -0.49060  -0.48502
 Alpha  occ. eigenvalues --   -0.48234  -0.48032  -0.47952  -0.47755  -0.47703
 Alpha  occ. eigenvalues --   -0.47446  -0.47231  -0.46986  -0.46623  -0.46541
 Alpha  occ. eigenvalues --   -0.46338  -0.45864  -0.45668  -0.45469  -0.45255
 Alpha  occ. eigenvalues --   -0.45123  -0.44991  -0.44802  -0.44560  -0.44417
 Alpha  occ. eigenvalues --   -0.44151  -0.43139  -0.42787  -0.42685  -0.42258
 Alpha  occ. eigenvalues --   -0.41828  -0.41108  -0.40175  -0.39020  -0.38600
 Alpha  occ. eigenvalues --   -0.37601  -0.36896  -0.36447  -0.34244  -0.33893
 Alpha  occ. eigenvalues --   -0.33474  -0.32475  -0.31527  -0.31335  -0.26143
 Alpha  occ. eigenvalues --   -0.22102
 Alpha virt. eigenvalues --   -0.08670  -0.02202  -0.00996  -0.00145   0.01782
 Alpha virt. eigenvalues --    0.01986   0.03303   0.04305   0.04660   0.04858
 Alpha virt. eigenvalues --    0.05897   0.06551   0.06893   0.07693   0.08241

 Mulliken charges:
               1
     1  Mg   0.430583
     2  C   -0.044005
     3  C   -0.102267
     4  C   -0.052695
     5  C   -0.081274
     6  N   -0.275700
     7  C    0.121502
     8  C    0.006379
     9  C    0.005237
    10  C    0.144153
    11  C   -0.050872
    12  C   -0.033748
    13  C    0.009678
    14  C    0.452680
    15  O   -0.521471
    16  O   -0.260281
    17  N   -0.326208
    18  C    0.127944
    19  C    0.021960
    20  C   -0.035535
    21  C    0.141226
    22  C   -0.045095
    23  C    0.332103
    24  O   -0.534714
    25  C   -0.026978
    26  N   -0.250230
    27  C    0.147964
    28  C    0.000887
    29  C   -0.006946
    30  C    0.115989
    31  C   -0.051744
    32  C   -0.029102
    33  C   -0.056380
    34  N   -0.341331
    35  C    0.096326
    36  C    0.022088
    37  C   -0.058515
    38  C    0.085348
    39  C   -0.037613
    40  C    0.334552
    41  O   -0.531794
    42  C    0.051659
    43  C    0.493608
    44  O   -0.520636
    45  O   -0.261629
    46  C    0.070176
    47  C    0.105965
    48  C   -0.104527
    49  C    0.001486
    50  C   -0.044860
    51  C   -0.013593
    52  C   -0.026791
    53  C   -0.045893
    54  C   -0.017525
    55  C   -0.059126
    56  C   -0.028196
    57  C   -0.033087
    58  C   -0.038724
    59  C   -0.015058
    60  C   -0.063038
    61  C   -0.038203
    62  C   -0.039219
    63  C   -0.028814
    64  C   -0.013527
    65  C   -0.063288
    66  C   -0.060168
    67  H    0.031649
    68  H    0.038595
    69  H    0.017199
    70  H    0.038357
    71  H    0.024268
    72  H    0.034932
    73  H    0.022021
    74  H    0.023028
    75  H    0.025732
    76  H    0.033773
    77  H    0.038320
    78  H    0.046762
    79  H    0.023664
    80  H    0.037478
    81  H    0.030585
    82  H    0.038840
    83  H    0.048596
    84  H    0.032796
    85  H    0.038193
    86  H    0.036063
    87  H    0.035476
    88  H    0.020724
    89  H    0.024728
    90  H    0.031278
    91  H    0.016849
    92  H    0.008938
    93  H    0.020622
    94  H    0.021060
    95  H    0.034892
    96  H    0.031157
    97  H    0.036560
    98  H    0.057915
    99  H    0.031976
   100  H    0.041119
   101  H    0.039098
   102  H    0.060891
   103  H    0.048093
   104  H    0.024336
   105  H    0.030785
   106  H    0.028406
   107  H    0.028999
   108  H    0.015097
   109  H    0.018435
   110  H    0.018194
   111  H    0.017696
   112  H    0.017435
   113  H    0.021887
   114  H    0.025568
   115  H    0.017429
   116  H    0.012364
   117  H    0.026885
   118  H    0.028944
   119  H    0.010827
   120  H    0.026105
   121  H    0.015956
   122  H   -0.000544
   123  H    0.025353
   124  H    0.017114
   125  H    0.011882
   126  H    0.022494
   127  H    0.026151
   128  H    0.015453
   129  H    0.012439
   130  H    0.027036
   131  H    0.014108
   132  H    0.013992
   133  H    0.022178
   134  H    0.025747
   135  H    0.028198
   136  H    0.003912
   137  H    0.017930
   138  H    0.018790
   139  H    0.017773
   140  H    0.023331
 Sum of Mulliken charges =  -0.00000

 Dipole moment (field-independent basis, Debye):
    X=             -3.3041    Y=             10.2456    Z=             -0.0771  Tot=             10.7655
 N-N= 4.179640943367D+03 E-N= 0.000000000000D+00  KE=-9.033889564397D+03
 Leave Link  601 at Sat Apr 30 04:49:45 2022, MaxMem=  6710886400 cpu:               2.6 elap:               0.1
 (Enter /sw/apps/gaussian-16.0/g16/l9999.exe)
 1\1\GINC-BP1-COMPUTE148\SP\RZINDO CIS\STO-3G\C55H74Mg1N4O6\OF15641\30-
 Apr-2022\0\\#p ZINDO=(nstates=5)\\step_551_chromophore_7 ZINDO\\0,1\Mg
 ,0,25.489,-0.251,29.259\C,0,27.281,-0.449,32.326\C,0,22.58,-0.102,31.1
 91\C,0,23.742,-0.497,26.411\C,0,28.367,-1.118,27.563\N,0,25.097,-0.297
 ,31.51\C,0,25.909,-0.311,32.554\C,0,25.214,0.04,33.87\C,0,23.725,-0.06
 9,33.486\C,0,23.793,-0.141,31.941\C,0,22.992,-1.25,34.121\C,0,25.65,1.
 407,34.548\C,0,24.895,1.946,35.778\C,0,25.76,2.142,37.09\O,0,27.027,2.

 Normal termination of Gaussian 16 at Sat Apr 30 04:49:45 2022.
