 Gaussian 16, Revision A.03,
 Gaussian 16:  ES64L-G16RevA.03 25-Dec-2016

 ------------------------------
 #p blyp/Def2SVP td=(nstates=5)
 ------------------------------

 --------------------------------------------------
 step_951_chromophore_27 TDDFT with blyp functional
 --------------------------------------------------
 Symbolic Z-matrix:
 Charge =  0 Multiplicity = 1

                         Standard orientation:
 ---------------------------------------------------------------------
 Center     Atomic      Atomic             Coordinates (Angstroms)
 Number     Number       Type             X           Y           Z
 ---------------------------------------------------------------------
      1         12           0       -4.503011    0.934683   -0.035487
      2          6           0       -3.950592   -2.556401    0.243784
      3          6           0       -1.082678    1.388730   -0.010746
      4          6           0       -5.095389    4.159920    0.076276
      5          6           0       -7.907917    0.220554    0.163150
      6          7           0       -2.717329   -0.430359    0.040756
      7          6           0       -2.755632   -1.827789    0.039239
      8          6           0       -1.315748   -2.389187   -0.000276
      9          6           0       -0.363575   -1.126574    0.219014
     10          6           0       -1.433074    0.033209    0.071916
     11          6           0        0.342063   -0.885748    1.624455
     12          6           0       -1.091758   -3.130516   -1.337614
     13          6           0       -0.126106   -4.400219   -1.211095
     14          6           0        1.260764   -4.492833   -1.966147
     15          8           0        1.446546   -4.395435   -3.199783
     16          8           0        2.357034   -4.628155   -1.183250
     17          7           0       -3.242124    2.522977    0.012677
     18          6           0       -1.904831    2.560142   -0.066265
     19          6           0       -1.467357    3.875589   -0.210428
     20          6           0       -2.602831    4.705062   -0.360694
     21          6           0       -3.728205    3.815974   -0.117021
     22          6           0        0.023375    4.248416   -0.341947
     23          6           0       -2.615080    6.206228   -0.531484
     24          8           0       -3.652839    6.882399   -0.499455
     25          6           0       -1.315308    6.921067   -0.854272
     26          7           0       -6.308947    2.079895    0.161011
     27          6           0       -6.278937    3.435587    0.189494
     28          6           0       -7.719313    3.963591    0.378085
     29          6           0       -8.646046    2.702767    0.216445
     30          6           0       -7.525049    1.593952    0.252160
     31          6           0       -7.797137    4.650166    1.788543
     32          6           0       -9.429170    2.779816   -1.099636
     33          6           0      -10.858459    2.501624   -1.009079
     34          7           0       -5.708664   -0.770850    0.216600
     35          6           0       -7.046529   -0.879856    0.219256
     36          6           0       -7.421076   -2.237831    0.357629
     37          6           0       -6.188776   -2.979608    0.379149
     38          6           0       -5.208380   -2.046435    0.309568
     39          6           0       -8.845519   -2.804167    0.480142
     40          6           0       -5.578758   -4.292064    0.461108
     41          8           0       -6.142132   -5.370588    0.635437
     42          6           0       -4.013264   -4.103090    0.426204
     43          6           0       -3.393830   -4.700191    1.648684
     44          8           0       -3.670050   -4.341311    2.772736
     45          8           0       -2.487838   -5.699368    1.304413
     46          6           0       -1.813911   -6.514842    2.339164
     47          6           0        3.653601   -4.485718   -1.897491
     48          6           0        3.981830   -3.036505   -2.155011
     49          6           0        5.200190   -2.499849   -2.123995
     50          6           0        6.461349   -3.297284   -1.810103
     51          6           0        5.522336   -0.926154   -2.292513
     52          6           0        6.384487   -0.432687   -3.585850
     53          6           0        7.777628    0.068461   -3.226269
     54          6           0        8.047376    1.538545   -3.545896
     55          6           0        7.839645    1.803774   -5.105099
     56          6           0        9.544953    1.909857   -3.167401
     57          6           0        9.582604    2.737831   -1.870034
     58          6           0       10.502445    2.032884   -0.767182
     59          6           0        9.702995    1.460240    0.440285
     60          6           0        9.452282   -0.139214    0.307552
     61          6           0       10.411379    1.729616    1.747063
     62          6           0        9.384850    1.766673    2.991029
     63          6           0        9.540715    0.647514    3.993952
     64          6           0        9.726090    1.190216    5.398728
     65          6           0       10.464810    0.166627    6.362656
     66          6           0        8.295717    1.571907    6.035769
     67          1           0        0.000357    1.410724   -0.149381
     68          1           0       -5.245761    5.222314    0.278734
     69          1           0       -8.980430    0.018225    0.124995
     70          1           0       -1.249416   -2.997300    0.901164
     71          1           0        0.412121   -1.068086   -0.544966
     72          1           0        1.370075   -0.640907    1.356542
     73          1           0        0.438168   -1.766201    2.259164
     74          1           0       -0.058624   -0.034055    2.175048
     75          1           0       -0.641441   -2.477848   -2.085935
     76          1           0       -2.042728   -3.441592   -1.768802
     77          1           0       -0.658145   -5.253504   -1.631542
     78          1           0        0.073195   -4.655608   -0.169983
     79          1           0        0.207357    5.164250    0.219867
     80          1           0        0.127393    4.582480   -1.374046
     81          1           0        0.792772    3.520760   -0.081222
     82          1           0       -0.713764    7.079673    0.041065
     83          1           0       -1.680195    7.869986   -1.246252
     84          1           0       -0.693539    6.532768   -1.660796
     85          1           0       -7.772486    4.825719   -0.286171
     86          1           0       -9.268747    2.491157    1.084808
     87          1           0       -7.678068    5.733789    1.805422
     88          1           0       -6.969895    4.287389    2.399250
     89          1           0       -8.700412    4.467347    2.370549
     90          1           0       -8.991338    2.089989   -1.822814
     91          1           0       -9.292531    3.794688   -1.472971
     92          1           0      -11.133164    2.303713    0.026104
     93          1           0      -11.105282    1.690120   -1.693736
     94          1           0      -11.437402    3.354996   -1.362643
     95          1           0       -8.814041   -3.873369    0.269373
     96          1           0       -9.611267   -2.482267   -0.225019
     97          1           0       -9.195281   -2.589969    1.490072
     98          1           0       -3.591722   -4.601440   -0.447244
     99          1           0       -1.898399   -5.935978    3.258876
    100          1           0       -0.855068   -6.481692    1.821201
    101          1           0       -2.313285   -7.477264    2.447841
    102          1           0        3.720396   -5.098716   -2.795412
    103          1           0        4.194151   -4.979169   -1.090005
    104          1           0        3.265374   -2.248503   -2.388084
    105          1           0        6.177652   -4.169792   -1.220785
    106          1           0        7.177447   -2.695957   -1.249843
    107          1           0        6.912845   -3.620335   -2.748002
    108          1           0        6.030895   -0.603190   -1.384243
    109          1           0        4.589381   -0.377132   -2.419300
    110          1           0        5.837914    0.359089   -4.097181
    111          1           0        6.597692   -1.237807   -4.288145
    112          1           0        8.494998   -0.509935   -3.808753
    113          1           0        7.935443   -0.136868   -2.167639
    114          1           0        7.320024    2.138245   -2.999182
    115          1           0        8.695403    2.304395   -5.558012
    116          1           0        6.942271    2.420111   -5.140640
    117          1           0        7.686508    0.845278   -5.602272
    118          1           0       10.216171    2.366943   -3.894073
    119          1           0       10.011926    0.929830   -3.068143
    120          1           0        8.604375    2.896821   -1.416347
    121          1           0       10.094907    3.666307   -2.123726
    122          1           0       11.255149    2.740835   -0.421232
    123          1           0       11.050097    1.238991   -1.273565
    124          1           0        8.683446    1.843296    0.407980
    125          1           0        9.902862   -0.491475   -0.620399
    126          1           0        8.378622   -0.326961    0.319945
    127          1           0        9.880740   -0.757731    1.096069
    128          1           0       10.778826    2.755149    1.706805
    129          1           0       11.245419    1.042344    1.884029
    130          1           0        8.330444    1.790762    2.714962
    131          1           0        9.562361    2.727005    3.475030
    132          1           0       10.195329   -0.114797    3.570939
    133          1           0        8.653748    0.016408    4.044708
    134          1           0       10.314286    2.107147    5.429925
    135          1           0       11.526407    0.099970    6.122495
    136          1           0       10.062088   -0.845932    6.380367
    137          1           0       10.390779    0.402286    7.423771
    138          1           0        7.911337    0.738907    6.625273
    139          1           0        7.585512    1.945296    5.298221
    140          1           0        8.528096    2.357075    6.753949
 ---------------------------------------------------------------------

 SCF Done:  E(RB-LYP) =  -3007.37305350     A.U. after   21 cycles

 Excitation energies and oscillator strengths:

 Excited State   1:      Singlet-A      1.8766 eV  660.70 nm  f=0.2877  <S**2>=0.000
     245 -> 248       -0.20870
     246 -> 247        0.67958
     246 <- 247       -0.13897
 This state for optimization and/or second-order correction.
 Total Energy, E(TD-HF/TD-DFT) =  -3007.30409086
 Copying the excited state density for this state as the 1-particle RhoCI density.

 Excited State   2:      Singlet-A      1.9593 eV  632.80 nm  f=0.0555  <S**2>=0.000
     243 -> 247       -0.32865
     244 -> 247       -0.31858
     245 -> 247        0.51108
     246 -> 248        0.13602

 Excited State   3:      Singlet-A      2.0105 eV  616.69 nm  f=0.0027  <S**2>=0.000
     243 -> 247       -0.39938
     244 -> 247        0.57344

 Excited State   4:      Singlet-A      2.0717 eV  598.47 nm  f=0.0439  <S**2>=0.000
     243 -> 247        0.47917
     244 -> 247        0.25662
     245 -> 247        0.40547
     246 -> 248        0.17070

 Excited State   5:      Singlet-A      2.5118 eV  493.61 nm  f=0.0003  <S**2>=0.000
     241 -> 247        0.70273

 The electronic state is 1-A.
 Alpha  occ. eigenvalues --  -46.27008 -18.82132 -18.81838 -18.77011 -18.75895
 Alpha  occ. eigenvalues --  -18.75819 -18.75753 -14.03369 -14.03093 -14.01094
 Alpha  occ. eigenvalues --  -14.00498 -10.04193 -10.04115 -10.00110  -9.99895
 Alpha  occ. eigenvalues --   -9.98635  -9.98269  -9.96902  -9.96607  -9.96590
 Alpha  occ. eigenvalues --   -9.96330  -9.96126  -9.95252  -9.95108  -9.94943
 Alpha  occ. eigenvalues --   -9.94794  -9.94572  -9.94507  -9.94386  -9.94136
 Alpha  occ. eigenvalues --   -9.94100  -9.93964  -9.93872  -9.93696  -9.93551
 Alpha  occ. eigenvalues --   -9.93425  -9.93287  -9.93147  -9.92967  -9.92786
 Alpha  occ. eigenvalues --   -9.92765  -9.92706  -9.92586  -9.92326  -9.92294
 Alpha  occ. eigenvalues --   -9.92226  -9.92214  -9.92193  -9.92128  -9.92112
 Alpha  occ. eigenvalues --   -9.92009  -9.91968  -9.91918  -9.91408  -9.91396
 Alpha  occ. eigenvalues --   -9.91393  -9.91271  -9.91258  -9.91184  -9.91082
 Alpha  occ. eigenvalues --   -9.91073  -9.91019  -9.90987  -9.90981  -9.90955
 Alpha  occ. eigenvalues --   -9.90676  -2.91638  -1.72077  -1.71516  -1.71348
 Alpha  occ. eigenvalues --   -0.97869  -0.97085  -0.91084  -0.90877  -0.90169
 Alpha  occ. eigenvalues --   -0.87741  -0.87327  -0.86535  -0.86229  -0.84547
 Alpha  occ. eigenvalues --   -0.76180  -0.73197  -0.72788  -0.72626  -0.72235
 Alpha  occ. eigenvalues --   -0.71910  -0.71657  -0.70617  -0.70577  -0.70456
 Alpha  occ. eigenvalues --   -0.69287  -0.68507  -0.68097  -0.67908  -0.67253
 Alpha  occ. eigenvalues --   -0.66329  -0.65546  -0.65292  -0.64785  -0.64472
 Alpha  occ. eigenvalues --   -0.63568  -0.62572  -0.62369  -0.62089  -0.61076
 Alpha  occ. eigenvalues --   -0.60513  -0.60080  -0.59894  -0.59684  -0.58986
 Alpha  occ. eigenvalues --   -0.58540  -0.57852  -0.56917  -0.56180  -0.54369
 Alpha  occ. eigenvalues --   -0.54182  -0.54060  -0.53153  -0.52701  -0.52075
 Alpha  occ. eigenvalues --   -0.51320  -0.51036  -0.51013  -0.50377  -0.49904
 Alpha  occ. eigenvalues --   -0.49749  -0.49136  -0.48614  -0.48464  -0.46792
 Alpha  occ. eigenvalues --   -0.45982  -0.45834  -0.45671  -0.45294  -0.44990
 Alpha  occ. eigenvalues --   -0.44406  -0.43818  -0.43075  -0.42377  -0.41992
 Alpha  occ. eigenvalues --   -0.41753  -0.41620  -0.41526  -0.40870  -0.40853
 Alpha  occ. eigenvalues --   -0.40730  -0.40594  -0.40405  -0.40363  -0.40143
 Alpha  occ. eigenvalues --   -0.39791  -0.39730  -0.39539  -0.39266  -0.39217
 Alpha  occ. eigenvalues --   -0.39172  -0.39027  -0.38774  -0.38729  -0.38380
 Alpha  occ. eigenvalues --   -0.38205  -0.37670  -0.37501  -0.37296  -0.37208
 Alpha  occ. eigenvalues --   -0.37066  -0.36672  -0.36602  -0.36368  -0.36203
 Alpha  occ. eigenvalues --   -0.36105  -0.35991  -0.35938  -0.35844  -0.35630
 Alpha  occ. eigenvalues --   -0.35401  -0.35242  -0.35203  -0.35086  -0.34906
 Alpha  occ. eigenvalues --   -0.34669  -0.34474  -0.34063  -0.34048  -0.33888
 Alpha  occ. eigenvalues --   -0.33683  -0.33601  -0.33493  -0.33369  -0.33080
 Alpha  occ. eigenvalues --   -0.32795  -0.32590  -0.32402  -0.32322  -0.32153
 Alpha  occ. eigenvalues --   -0.32010  -0.31943  -0.31897  -0.31689  -0.31611
 Alpha  occ. eigenvalues --   -0.31549  -0.31167  -0.31115  -0.31049  -0.30938
 Alpha  occ. eigenvalues --   -0.30800  -0.30636  -0.30323  -0.29993  -0.29924
 Alpha  occ. eigenvalues --   -0.29884  -0.29626  -0.29539  -0.29500  -0.29319
 Alpha  occ. eigenvalues --   -0.28775  -0.28717  -0.28412  -0.28139  -0.28049
 Alpha  occ. eigenvalues --   -0.27883  -0.27770  -0.27575  -0.26872  -0.26852
 Alpha  occ. eigenvalues --   -0.26585  -0.26242  -0.25785  -0.25311  -0.25073
 Alpha  occ. eigenvalues --   -0.25058  -0.24832  -0.24657  -0.24137  -0.23371
 Alpha  occ. eigenvalues --   -0.22925  -0.22623  -0.21991  -0.21214  -0.20974
 Alpha  occ. eigenvalues --   -0.20892  -0.20357  -0.19017  -0.18914  -0.17208
 Alpha  occ. eigenvalues --   -0.16218
 Alpha virt. eigenvalues --   -0.11664  -0.07165  -0.06278  -0.04608  -0.03330
 Alpha virt. eigenvalues --   -0.03004  -0.02043  -0.01468  -0.00711  -0.00285
 Alpha virt. eigenvalues --    0.01083   0.01397   0.01885   0.02213   0.02410

 Mulliken charges:
               1
     1  Mg   0.695412
     2  C   -0.042508
     3  C   -0.047533
     4  C   -0.036848
     5  C   -0.094209
     6  N   -0.207771
     7  C   -0.118915
     8  C    0.064677
     9  C   -0.018746
    10  C   -0.056988
    11  C    0.112278
    12  C    0.144935
    13  C    0.126748
    14  C    0.055973
    15  O   -0.235386
    16  O   -0.264422
    17  N   -0.294307
    18  C    0.175582
    19  C   -0.158823
    20  C    0.060022
    21  C    0.102922
    22  C    0.200386
    23  C   -0.071328
    24  O   -0.176171
    25  C    0.103526
    26  N   -0.185450
    27  C   -0.005252
    28  C    0.016915
    29  C    0.039475
    30  C   -0.010030
    31  C    0.089318
    32  C    0.116477
    33  C    0.087380
    34  N   -0.236741
    35  C    0.148808
    36  C   -0.183496
    37  C    0.105130
    38  C    0.135205
    39  C    0.157093
    40  C   -0.076065
    41  O   -0.133829
    42  C    0.099897
    43  C    0.111976
    44  O   -0.160928
    45  O   -0.310011
    46  C    0.199071
    47  C    0.329207
    48  C   -0.050037
    49  C   -0.187472
    50  C    0.137243
    51  C    0.108030
    52  C    0.076648
    53  C    0.062854
    54  C   -0.112428
    55  C    0.104169
    56  C    0.107734
    57  C    0.087909
    58  C    0.097047
    59  C   -0.082259
    60  C    0.071353
    61  C    0.116778
    62  C    0.063074
    63  C    0.116884
    64  C   -0.068448
    65  C    0.076946
    66  C    0.078206
    67  H   -0.072077
    68  H   -0.043286
    69  H   -0.065976
    70  H   -0.015783
    71  H   -0.013788
    72  H   -0.013866
    73  H   -0.001517
    74  H    0.014210
    75  H   -0.008957
    76  H   -0.008396
    77  H    0.005812
    78  H   -0.013483
    79  H   -0.018934
    80  H   -0.003631
    81  H   -0.001609
    82  H    0.020355
    83  H   -0.010613
    84  H    0.001430
    85  H   -0.012916
    86  H   -0.022283
    87  H   -0.002981
    88  H   -0.008640
    89  H   -0.013344
    90  H   -0.018062
    91  H   -0.020442
    92  H   -0.011111
    93  H   -0.009686
    94  H   -0.015031
    95  H    0.003764
    96  H   -0.008935
    97  H    0.008729
    98  H   -0.011277
    99  H    0.026162
   100  H    0.031869
   101  H    0.037165
   102  H    0.021929
   103  H    0.001816
   104  H   -0.037791
   105  H   -0.018479
   106  H   -0.004397
   107  H    0.007062
   108  H   -0.007562
   109  H   -0.039155
   110  H   -0.021404
   111  H   -0.019163
   112  H   -0.033088
   113  H   -0.035664
   114  H   -0.033953
   115  H   -0.011281
   116  H   -0.010155
   117  H   -0.013411
   118  H   -0.033927
   119  H   -0.038974
   120  H   -0.021514
   121  H   -0.030853
   122  H   -0.041478
   123  H   -0.037523
   124  H   -0.037338
   125  H   -0.007723
   126  H   -0.005062
   127  H   -0.018291
   128  H   -0.038783
   129  H   -0.018072
   130  H   -0.029555
   131  H   -0.030322
   132  H   -0.041526
   133  H   -0.050452
   134  H   -0.024551
   135  H   -0.013798
   136  H   -0.022088
   137  H   -0.027504
   138  H   -0.009649
   139  H   -0.007877
   140  H   -0.018210
 Sum of Mulliken charges =  -0.00000

 Dipole moment (field-independent basis, Debye):
    X=              3.8131    Y=              1.6817    Z=             -0.1683  Tot=              4.1709
 Quadrupole moment (field-independent basis, Debye-Ang):
   XX=           -377.1807   YY=           -429.1300   ZZ=           -418.2164
   XY=            -19.9825   XZ=              7.0319   YZ=             -3.4425

 Normal termination of Gaussian 16 at Sun May  1 01:29:30 2022.
