 Gaussian 16, Revision A.03,
 Gaussian 16:  ES64L-G16RevA.03 25-Dec-2016

 -----------------------------------
 #p cam-b3lyp/Def2SVP td=(nstates=5)
 -----------------------------------

 -------------------------------------------------------
 step_951_chromophore_27 TDDFT with cam-b3lyp functional
 -------------------------------------------------------
 Symbolic Z-matrix:
 Charge =  0 Multiplicity = 1

                         Standard orientation:
 ---------------------------------------------------------------------
 Center     Atomic      Atomic             Coordinates (Angstroms)
 Number     Number       Type             X           Y           Z
 ---------------------------------------------------------------------
      1         12           0       -4.503011    0.934683   -0.035487
      2          6           0       -3.950592   -2.556401    0.243784
      3          6           0       -1.082678    1.388730   -0.010746
      4          6           0       -5.095389    4.159920    0.076276
      5          6           0       -7.907917    0.220554    0.163150
      6          7           0       -2.717329   -0.430359    0.040756
      7          6           0       -2.755632   -1.827789    0.039239
      8          6           0       -1.315748   -2.389187   -0.000276
      9          6           0       -0.363575   -1.126574    0.219014
     10          6           0       -1.433074    0.033209    0.071916
     11          6           0        0.342063   -0.885748    1.624455
     12          6           0       -1.091758   -3.130516   -1.337614
     13          6           0       -0.126106   -4.400219   -1.211095
     14          6           0        1.260764   -4.492833   -1.966147
     15          8           0        1.446546   -4.395435   -3.199783
     16          8           0        2.357034   -4.628155   -1.183250
     17          7           0       -3.242124    2.522977    0.012677
     18          6           0       -1.904831    2.560142   -0.066265
     19          6           0       -1.467357    3.875589   -0.210428
     20          6           0       -2.602831    4.705062   -0.360694
     21          6           0       -3.728205    3.815974   -0.117021
     22          6           0        0.023375    4.248416   -0.341947
     23          6           0       -2.615080    6.206228   -0.531484
     24          8           0       -3.652839    6.882399   -0.499455
     25          6           0       -1.315308    6.921067   -0.854272
     26          7           0       -6.308947    2.079895    0.161011
     27          6           0       -6.278937    3.435587    0.189494
     28          6           0       -7.719313    3.963591    0.378085
     29          6           0       -8.646046    2.702767    0.216445
     30          6           0       -7.525049    1.593952    0.252160
     31          6           0       -7.797137    4.650166    1.788543
     32          6           0       -9.429170    2.779816   -1.099636
     33          6           0      -10.858459    2.501624   -1.009079
     34          7           0       -5.708664   -0.770850    0.216600
     35          6           0       -7.046529   -0.879856    0.219256
     36          6           0       -7.421076   -2.237831    0.357629
     37          6           0       -6.188776   -2.979608    0.379149
     38          6           0       -5.208380   -2.046435    0.309568
     39          6           0       -8.845519   -2.804167    0.480142
     40          6           0       -5.578758   -4.292064    0.461108
     41          8           0       -6.142132   -5.370588    0.635437
     42          6           0       -4.013264   -4.103090    0.426204
     43          6           0       -3.393830   -4.700191    1.648684
     44          8           0       -3.670050   -4.341311    2.772736
     45          8           0       -2.487838   -5.699368    1.304413
     46          6           0       -1.813911   -6.514842    2.339164
     47          6           0        3.653601   -4.485718   -1.897491
     48          6           0        3.981830   -3.036505   -2.155011
     49          6           0        5.200190   -2.499849   -2.123995
     50          6           0        6.461349   -3.297284   -1.810103
     51          6           0        5.522336   -0.926154   -2.292513
     52          6           0        6.384487   -0.432687   -3.585850
     53          6           0        7.777628    0.068461   -3.226269
     54          6           0        8.047376    1.538545   -3.545896
     55          6           0        7.839645    1.803774   -5.105099
     56          6           0        9.544953    1.909857   -3.167401
     57          6           0        9.582604    2.737831   -1.870034
     58          6           0       10.502445    2.032884   -0.767182
     59          6           0        9.702995    1.460240    0.440285
     60          6           0        9.452282   -0.139214    0.307552
     61          6           0       10.411379    1.729616    1.747063
     62          6           0        9.384850    1.766673    2.991029
     63          6           0        9.540715    0.647514    3.993952
     64          6           0        9.726090    1.190216    5.398728
     65          6           0       10.464810    0.166627    6.362656
     66          6           0        8.295717    1.571907    6.035769
     67          1           0        0.000357    1.410724   -0.149381
     68          1           0       -5.245761    5.222314    0.278734
     69          1           0       -8.980430    0.018225    0.124995
     70          1           0       -1.249416   -2.997300    0.901164
     71          1           0        0.412121   -1.068086   -0.544966
     72          1           0        1.370075   -0.640907    1.356542
     73          1           0        0.438168   -1.766201    2.259164
     74          1           0       -0.058624   -0.034055    2.175048
     75          1           0       -0.641441   -2.477848   -2.085935
     76          1           0       -2.042728   -3.441592   -1.768802
     77          1           0       -0.658145   -5.253504   -1.631542
     78          1           0        0.073195   -4.655608   -0.169983
     79          1           0        0.207357    5.164250    0.219867
     80          1           0        0.127393    4.582480   -1.374046
     81          1           0        0.792772    3.520760   -0.081222
     82          1           0       -0.713764    7.079673    0.041065
     83          1           0       -1.680195    7.869986   -1.246252
     84          1           0       -0.693539    6.532768   -1.660796
     85          1           0       -7.772486    4.825719   -0.286171
     86          1           0       -9.268747    2.491157    1.084808
     87          1           0       -7.678068    5.733789    1.805422
     88          1           0       -6.969895    4.287389    2.399250
     89          1           0       -8.700412    4.467347    2.370549
     90          1           0       -8.991338    2.089989   -1.822814
     91          1           0       -9.292531    3.794688   -1.472971
     92          1           0      -11.133164    2.303713    0.026104
     93          1           0      -11.105282    1.690120   -1.693736
     94          1           0      -11.437402    3.354996   -1.362643
     95          1           0       -8.814041   -3.873369    0.269373
     96          1           0       -9.611267   -2.482267   -0.225019
     97          1           0       -9.195281   -2.589969    1.490072
     98          1           0       -3.591722   -4.601440   -0.447244
     99          1           0       -1.898399   -5.935978    3.258876
    100          1           0       -0.855068   -6.481692    1.821201
    101          1           0       -2.313285   -7.477264    2.447841
    102          1           0        3.720396   -5.098716   -2.795412
    103          1           0        4.194151   -4.979169   -1.090005
    104          1           0        3.265374   -2.248503   -2.388084
    105          1           0        6.177652   -4.169792   -1.220785
    106          1           0        7.177447   -2.695957   -1.249843
    107          1           0        6.912845   -3.620335   -2.748002
    108          1           0        6.030895   -0.603190   -1.384243
    109          1           0        4.589381   -0.377132   -2.419300
    110          1           0        5.837914    0.359089   -4.097181
    111          1           0        6.597692   -1.237807   -4.288145
    112          1           0        8.494998   -0.509935   -3.808753
    113          1           0        7.935443   -0.136868   -2.167639
    114          1           0        7.320024    2.138245   -2.999182
    115          1           0        8.695403    2.304395   -5.558012
    116          1           0        6.942271    2.420111   -5.140640
    117          1           0        7.686508    0.845278   -5.602272
    118          1           0       10.216171    2.366943   -3.894073
    119          1           0       10.011926    0.929830   -3.068143
    120          1           0        8.604375    2.896821   -1.416347
    121          1           0       10.094907    3.666307   -2.123726
    122          1           0       11.255149    2.740835   -0.421232
    123          1           0       11.050097    1.238991   -1.273565
    124          1           0        8.683446    1.843296    0.407980
    125          1           0        9.902862   -0.491475   -0.620399
    126          1           0        8.378622   -0.326961    0.319945
    127          1           0        9.880740   -0.757731    1.096069
    128          1           0       10.778826    2.755149    1.706805
    129          1           0       11.245419    1.042344    1.884029
    130          1           0        8.330444    1.790762    2.714962
    131          1           0        9.562361    2.727005    3.475030
    132          1           0       10.195329   -0.114797    3.570939
    133          1           0        8.653748    0.016408    4.044708
    134          1           0       10.314286    2.107147    5.429925
    135          1           0       11.526407    0.099970    6.122495
    136          1           0       10.062088   -0.845932    6.380367
    137          1           0       10.390779    0.402286    7.423771
    138          1           0        7.911337    0.738907    6.625273
    139          1           0        7.585512    1.945296    5.298221
    140          1           0        8.528096    2.357075    6.753949
 ---------------------------------------------------------------------

 SCF Done:  E(RCAM-B3LYP) =  -3007.15860035     A.U. after   19 cycles

 Excitation energies and oscillator strengths:

 Excited State   1:      Singlet-A      1.7754 eV  698.34 nm  f=0.3810  <S**2>=0.000
     245 -> 248       -0.19351
     246 -> 247        0.67982
     245 <- 248       -0.10713
 This state for optimization and/or second-order correction.
 Total Energy, E(TD-HF/TD-DFT) =  -3007.09335504
 Copying the excited state density for this state as the 1-particle RhoCI density.

 Excited State   2:      Singlet-A      2.2155 eV  559.62 nm  f=0.1474  <S**2>=0.000
     245 -> 247        0.64913
     246 -> 248        0.26394

 Excited State   3:      Singlet-A      3.3355 eV  371.71 nm  f=0.0003  <S**2>=0.000
     244 -> 247        0.68946

 Excited State   4:      Singlet-A      3.5111 eV  353.12 nm  f=0.0210  <S**2>=0.000
     239 -> 247       -0.14805
     239 -> 249       -0.10539
     240 -> 247        0.42782
     240 -> 249        0.25455
     240 -> 250       -0.14850
     241 -> 247       -0.28401
     241 -> 249       -0.16487
     243 -> 247        0.19155
     246 -> 248        0.11404

 Excited State   5:      Singlet-A      3.5454 eV  349.71 nm  f=0.1608  <S**2>=0.000
     243 -> 247        0.52469
     245 -> 247        0.13231
     246 -> 248       -0.43185

 The electronic state is 1-A.
 Alpha  occ. eigenvalues --  -46.88492 -19.25018 -19.24863 -19.20252 -19.19207
 Alpha  occ. eigenvalues --  -19.18862 -19.18857 -14.42305 -14.41884 -14.39436
 Alpha  occ. eigenvalues --  -14.38865 -10.39799 -10.39477 -10.35382 -10.35244
 Alpha  occ. eigenvalues --  -10.32740 -10.32396 -10.31607 -10.31101 -10.30954
 Alpha  occ. eigenvalues --  -10.30627 -10.30360 -10.29263 -10.29234 -10.29199
 Alpha  occ. eigenvalues --  -10.28952 -10.28922 -10.28720 -10.28548 -10.28358
 Alpha  occ. eigenvalues --  -10.28343 -10.28238 -10.28060 -10.28005 -10.27839
 Alpha  occ. eigenvalues --  -10.27619 -10.27195 -10.27041 -10.26955 -10.26810
 Alpha  occ. eigenvalues --  -10.26691 -10.26551 -10.26474 -10.26306 -10.26105
 Alpha  occ. eigenvalues --  -10.26074 -10.26064 -10.25976 -10.25936 -10.25906
 Alpha  occ. eigenvalues --  -10.25886 -10.25616 -10.25557 -10.25281 -10.25111
 Alpha  occ. eigenvalues --  -10.25096 -10.24957 -10.24935 -10.24914 -10.24873
 Alpha  occ. eigenvalues --  -10.24800 -10.24781 -10.24709 -10.24638 -10.24601
 Alpha  occ. eigenvalues --  -10.24291  -3.17028  -1.91943  -1.91474  -1.91336
 Alpha  occ. eigenvalues --   -1.16319  -1.15761  -1.09635  -1.09146  -1.08240
 Alpha  occ. eigenvalues --   -1.05559  -1.05076  -1.04219  -1.03708  -1.02126
 Alpha  occ. eigenvalues --   -0.93457  -0.90067  -0.89440  -0.89421  -0.89001
 Alpha  occ. eigenvalues --   -0.88632  -0.88241  -0.87167  -0.87151  -0.86999
 Alpha  occ. eigenvalues --   -0.85813  -0.84824  -0.84325  -0.84157  -0.83392
 Alpha  occ. eigenvalues --   -0.82329  -0.81566  -0.81228  -0.80667  -0.80365
 Alpha  occ. eigenvalues --   -0.79324  -0.78249  -0.77975  -0.77634  -0.76552
 Alpha  occ. eigenvalues --   -0.75871  -0.75315  -0.75236  -0.74994  -0.74192
 Alpha  occ. eigenvalues --   -0.73681  -0.72920  -0.71774  -0.71034  -0.69038
 Alpha  occ. eigenvalues --   -0.68875  -0.68567  -0.67589  -0.67142  -0.66187
 Alpha  occ. eigenvalues --   -0.65473  -0.65232  -0.65110  -0.64316  -0.63936
 Alpha  occ. eigenvalues --   -0.63741  -0.62976  -0.62432  -0.62239  -0.60319
 Alpha  occ. eigenvalues --   -0.59664  -0.59349  -0.59177  -0.58899  -0.58377
 Alpha  occ. eigenvalues --   -0.57915  -0.57298  -0.56234  -0.55628  -0.55203
 Alpha  occ. eigenvalues --   -0.54905  -0.54730  -0.54438  -0.53552  -0.53516
 Alpha  occ. eigenvalues --   -0.53488  -0.53458  -0.53016  -0.52987  -0.52723
 Alpha  occ. eigenvalues --   -0.52649  -0.52427  -0.52289  -0.52021  -0.51937
 Alpha  occ. eigenvalues --   -0.51740  -0.51564  -0.51404  -0.51184  -0.50903
 Alpha  occ. eigenvalues --   -0.50601  -0.50040  -0.49958  -0.49614  -0.49522
 Alpha  occ. eigenvalues --   -0.49220  -0.49172  -0.48956  -0.48738  -0.48714
 Alpha  occ. eigenvalues --   -0.48363  -0.48220  -0.48026  -0.47972  -0.47792
 Alpha  occ. eigenvalues --   -0.47480  -0.47290  -0.47158  -0.46982  -0.46754
 Alpha  occ. eigenvalues --   -0.46713  -0.46532  -0.45905  -0.45750  -0.45729
 Alpha  occ. eigenvalues --   -0.45525  -0.45252  -0.45199  -0.44968  -0.44770
 Alpha  occ. eigenvalues --   -0.44582  -0.44457  -0.44310  -0.43992  -0.43728
 Alpha  occ. eigenvalues --   -0.43514  -0.43425  -0.43387  -0.43345  -0.43140
 Alpha  occ. eigenvalues --   -0.42982  -0.42728  -0.42567  -0.42541  -0.42455
 Alpha  occ. eigenvalues --   -0.42063  -0.42033  -0.41838  -0.41811  -0.41615
 Alpha  occ. eigenvalues --   -0.41413  -0.41015  -0.40681  -0.40578  -0.40525
 Alpha  occ. eigenvalues --   -0.39817  -0.39772  -0.39375  -0.39054  -0.39004
 Alpha  occ. eigenvalues --   -0.38974  -0.38737  -0.38425  -0.38035  -0.37632
 Alpha  occ. eigenvalues --   -0.37414  -0.37039  -0.36717  -0.36474  -0.36255
 Alpha  occ. eigenvalues --   -0.35933  -0.35531  -0.35330  -0.34774  -0.34256
 Alpha  occ. eigenvalues --   -0.33501  -0.33254  -0.33226  -0.31595  -0.31238
 Alpha  occ. eigenvalues --   -0.31028  -0.30924  -0.30187  -0.29660  -0.23858
 Alpha  occ. eigenvalues --   -0.21618
 Alpha virt. eigenvalues --   -0.08812  -0.01853   0.00194   0.02376   0.03085
 Alpha virt. eigenvalues --    0.04380   0.04630   0.05778   0.05829   0.06722
 Alpha virt. eigenvalues --    0.07793   0.08115   0.08283   0.08453   0.09260

 Mulliken charges:
               1
     1  Mg   0.828503
     2  C   -0.073845
     3  C   -0.058301
     4  C   -0.054261
     5  C   -0.100861
     6  N   -0.275304
     7  C   -0.071005
     8  C    0.006045
     9  C   -0.058385
    10  C   -0.042197
    11  C    0.055340
    12  C    0.091119
    13  C    0.059395
    14  C    0.138578
    15  O   -0.277627
    16  O   -0.327896
    17  N   -0.383471
    18  C    0.178952
    19  C   -0.163926
    20  C   -0.013282
    21  C    0.124555
    22  C    0.140094
    23  C    0.010128
    24  O   -0.217956
    25  C    0.018479
    26  N   -0.260165
    27  C    0.014757
    28  C   -0.040741
    29  C   -0.015323
    30  C    0.015168
    31  C    0.034510
    32  C    0.058948
    33  C    0.020655
    34  N   -0.329090
    35  C    0.153567
    36  C   -0.176297
    37  C    0.022572
    38  C    0.171028
    39  C    0.106971
    40  C    0.023786
    41  O   -0.171523
    42  C    0.028756
    43  C    0.201148
    44  O   -0.197762
    45  O   -0.376427
    46  C    0.164910
    47  C    0.290570
    48  C   -0.073872
    49  C   -0.204978
    50  C    0.077389
    51  C    0.060056
    52  C    0.017328
    53  C    0.019008
    54  C   -0.163431
    55  C    0.044824
    56  C    0.056564
    57  C    0.028619
    58  C    0.044658
    59  C   -0.131603
    60  C    0.019034
    61  C    0.057488
    62  C    0.010842
    63  C    0.059163
    64  C   -0.129375
    65  C    0.020734
    66  C    0.021108
    67  H   -0.037052
    68  H   -0.004513
    69  H   -0.029801
    70  H    0.016697
    71  H    0.017799
    72  H    0.009637
    73  H    0.022364
    74  H    0.040524
    75  H    0.023718
    76  H    0.022795
    77  H    0.037041
    78  H    0.017939
    79  H    0.005828
    80  H    0.021804
    81  H    0.026221
    82  H    0.047870
    83  H    0.025066
    84  H    0.030733
    85  H    0.022249
    86  H    0.012639
    87  H    0.021147
    88  H    0.017178
    89  H    0.010804
    90  H    0.012620
    91  H    0.009941
    92  H    0.011498
    93  H    0.014353
    94  H    0.010371
    95  H    0.031594
    96  H    0.016856
    97  H    0.035162
    98  H    0.031888
    99  H    0.052307
   100  H    0.051562
   101  H    0.058139
   102  H    0.053326
   103  H    0.033706
   104  H   -0.005487
   105  H    0.005274
   106  H    0.017029
   107  H    0.030803
   108  H    0.017265
   109  H   -0.008953
   110  H    0.007979
   111  H    0.009271
   112  H   -0.004844
   113  H   -0.014143
   114  H   -0.003941
   115  H    0.013345
   116  H    0.012955
   117  H    0.009604
   118  H   -0.003886
   119  H   -0.012425
   120  H    0.004634
   121  H   -0.000109
   122  H   -0.010756
   123  H   -0.009386
   124  H   -0.006618
   125  H    0.012468
   126  H    0.012747
   127  H    0.005348
   128  H   -0.007999
   129  H    0.009458
   130  H   -0.002210
   131  H   -0.001775
   132  H   -0.013066
   133  H   -0.020186
   134  H    0.005496
   135  H    0.010597
   136  H    0.001084
   137  H   -0.002333
   138  H    0.013538
   139  H    0.014690
   140  H    0.006075
 Sum of Mulliken charges =  -0.00000

 Dipole moment (field-independent basis, Debye):
    X=              4.0335    Y=              1.5813    Z=             -0.1373  Tot=              4.3346
 Quadrupole moment (field-independent basis, Debye-Ang):
   XX=           -374.4513   YY=           -425.8489   ZZ=           -418.6773
   XY=            -18.8669   XZ=              7.4996   YZ=             -4.4063

 Normal termination of Gaussian 16 at Sun May  1 00:09:28 2022.
