 Gaussian 16, Revision A.03,
 Gaussian 16:  ES64L-G16RevA.03 25-Dec-2016

 ---------------------------------
 #p PBE1PBE/Def2SVP td=(nstates=5)
 ---------------------------------

 -----------------------------------------------------
 step_951_chromophore_27 TDDFT with PBE1PBE functional
 -----------------------------------------------------
 Symbolic Z-matrix:
 Charge =  0 Multiplicity = 1

                         Standard orientation:
 ---------------------------------------------------------------------
 Center     Atomic      Atomic             Coordinates (Angstroms)
 Number     Number       Type             X           Y           Z
 ---------------------------------------------------------------------
      1         12           0       -4.503011    0.934683   -0.035487
      2          6           0       -3.950592   -2.556401    0.243784
      3          6           0       -1.082678    1.388730   -0.010746
      4          6           0       -5.095389    4.159920    0.076276
      5          6           0       -7.907917    0.220554    0.163150
      6          7           0       -2.717329   -0.430359    0.040756
      7          6           0       -2.755632   -1.827789    0.039239
      8          6           0       -1.315748   -2.389187   -0.000276
      9          6           0       -0.363575   -1.126574    0.219014
     10          6           0       -1.433074    0.033209    0.071916
     11          6           0        0.342063   -0.885748    1.624455
     12          6           0       -1.091758   -3.130516   -1.337614
     13          6           0       -0.126106   -4.400219   -1.211095
     14          6           0        1.260764   -4.492833   -1.966147
     15          8           0        1.446546   -4.395435   -3.199783
     16          8           0        2.357034   -4.628155   -1.183250
     17          7           0       -3.242124    2.522977    0.012677
     18          6           0       -1.904831    2.560142   -0.066265
     19          6           0       -1.467357    3.875589   -0.210428
     20          6           0       -2.602831    4.705062   -0.360694
     21          6           0       -3.728205    3.815974   -0.117021
     22          6           0        0.023375    4.248416   -0.341947
     23          6           0       -2.615080    6.206228   -0.531484
     24          8           0       -3.652839    6.882399   -0.499455
     25          6           0       -1.315308    6.921067   -0.854272
     26          7           0       -6.308947    2.079895    0.161011
     27          6           0       -6.278937    3.435587    0.189494
     28          6           0       -7.719313    3.963591    0.378085
     29          6           0       -8.646046    2.702767    0.216445
     30          6           0       -7.525049    1.593952    0.252160
     31          6           0       -7.797137    4.650166    1.788543
     32          6           0       -9.429170    2.779816   -1.099636
     33          6           0      -10.858459    2.501624   -1.009079
     34          7           0       -5.708664   -0.770850    0.216600
     35          6           0       -7.046529   -0.879856    0.219256
     36          6           0       -7.421076   -2.237831    0.357629
     37          6           0       -6.188776   -2.979608    0.379149
     38          6           0       -5.208380   -2.046435    0.309568
     39          6           0       -8.845519   -2.804167    0.480142
     40          6           0       -5.578758   -4.292064    0.461108
     41          8           0       -6.142132   -5.370588    0.635437
     42          6           0       -4.013264   -4.103090    0.426204
     43          6           0       -3.393830   -4.700191    1.648684
     44          8           0       -3.670050   -4.341311    2.772736
     45          8           0       -2.487838   -5.699368    1.304413
     46          6           0       -1.813911   -6.514842    2.339164
     47          6           0        3.653601   -4.485718   -1.897491
     48          6           0        3.981830   -3.036505   -2.155011
     49          6           0        5.200190   -2.499849   -2.123995
     50          6           0        6.461349   -3.297284   -1.810103
     51          6           0        5.522336   -0.926154   -2.292513
     52          6           0        6.384487   -0.432687   -3.585850
     53          6           0        7.777628    0.068461   -3.226269
     54          6           0        8.047376    1.538545   -3.545896
     55          6           0        7.839645    1.803774   -5.105099
     56          6           0        9.544953    1.909857   -3.167401
     57          6           0        9.582604    2.737831   -1.870034
     58          6           0       10.502445    2.032884   -0.767182
     59          6           0        9.702995    1.460240    0.440285
     60          6           0        9.452282   -0.139214    0.307552
     61          6           0       10.411379    1.729616    1.747063
     62          6           0        9.384850    1.766673    2.991029
     63          6           0        9.540715    0.647514    3.993952
     64          6           0        9.726090    1.190216    5.398728
     65          6           0       10.464810    0.166627    6.362656
     66          6           0        8.295717    1.571907    6.035769
     67          1           0        0.000357    1.410724   -0.149381
     68          1           0       -5.245761    5.222314    0.278734
     69          1           0       -8.980430    0.018225    0.124995
     70          1           0       -1.249416   -2.997300    0.901164
     71          1           0        0.412121   -1.068086   -0.544966
     72          1           0        1.370075   -0.640907    1.356542
     73          1           0        0.438168   -1.766201    2.259164
     74          1           0       -0.058624   -0.034055    2.175048
     75          1           0       -0.641441   -2.477848   -2.085935
     76          1           0       -2.042728   -3.441592   -1.768802
     77          1           0       -0.658145   -5.253504   -1.631542
     78          1           0        0.073195   -4.655608   -0.169983
     79          1           0        0.207357    5.164250    0.219867
     80          1           0        0.127393    4.582480   -1.374046
     81          1           0        0.792772    3.520760   -0.081222
     82          1           0       -0.713764    7.079673    0.041065
     83          1           0       -1.680195    7.869986   -1.246252
     84          1           0       -0.693539    6.532768   -1.660796
     85          1           0       -7.772486    4.825719   -0.286171
     86          1           0       -9.268747    2.491157    1.084808
     87          1           0       -7.678068    5.733789    1.805422
     88          1           0       -6.969895    4.287389    2.399250
     89          1           0       -8.700412    4.467347    2.370549
     90          1           0       -8.991338    2.089989   -1.822814
     91          1           0       -9.292531    3.794688   -1.472971
     92          1           0      -11.133164    2.303713    0.026104
     93          1           0      -11.105282    1.690120   -1.693736
     94          1           0      -11.437402    3.354996   -1.362643
     95          1           0       -8.814041   -3.873369    0.269373
     96          1           0       -9.611267   -2.482267   -0.225019
     97          1           0       -9.195281   -2.589969    1.490072
     98          1           0       -3.591722   -4.601440   -0.447244
     99          1           0       -1.898399   -5.935978    3.258876
    100          1           0       -0.855068   -6.481692    1.821201
    101          1           0       -2.313285   -7.477264    2.447841
    102          1           0        3.720396   -5.098716   -2.795412
    103          1           0        4.194151   -4.979169   -1.090005
    104          1           0        3.265374   -2.248503   -2.388084
    105          1           0        6.177652   -4.169792   -1.220785
    106          1           0        7.177447   -2.695957   -1.249843
    107          1           0        6.912845   -3.620335   -2.748002
    108          1           0        6.030895   -0.603190   -1.384243
    109          1           0        4.589381   -0.377132   -2.419300
    110          1           0        5.837914    0.359089   -4.097181
    111          1           0        6.597692   -1.237807   -4.288145
    112          1           0        8.494998   -0.509935   -3.808753
    113          1           0        7.935443   -0.136868   -2.167639
    114          1           0        7.320024    2.138245   -2.999182
    115          1           0        8.695403    2.304395   -5.558012
    116          1           0        6.942271    2.420111   -5.140640
    117          1           0        7.686508    0.845278   -5.602272
    118          1           0       10.216171    2.366943   -3.894073
    119          1           0       10.011926    0.929830   -3.068143
    120          1           0        8.604375    2.896821   -1.416347
    121          1           0       10.094907    3.666307   -2.123726
    122          1           0       11.255149    2.740835   -0.421232
    123          1           0       11.050097    1.238991   -1.273565
    124          1           0        8.683446    1.843296    0.407980
    125          1           0        9.902862   -0.491475   -0.620399
    126          1           0        8.378622   -0.326961    0.319945
    127          1           0        9.880740   -0.757731    1.096069
    128          1           0       10.778826    2.755149    1.706805
    129          1           0       11.245419    1.042344    1.884029
    130          1           0        8.330444    1.790762    2.714962
    131          1           0        9.562361    2.727005    3.475030
    132          1           0       10.195329   -0.114797    3.570939
    133          1           0        8.653748    0.016408    4.044708
    134          1           0       10.314286    2.107147    5.429925
    135          1           0       11.526407    0.099970    6.122495
    136          1           0       10.062088   -0.845932    6.380367
    137          1           0       10.390779    0.402286    7.423771
    138          1           0        7.911337    0.738907    6.625273
    139          1           0        7.585512    1.945296    5.298221
    140          1           0        8.528096    2.357075    6.753949
 ---------------------------------------------------------------------

 SCF Done:  E(RPBE1PBE) =  -3005.34525807     A.U. after   15 cycles

 Excitation energies and oscillator strengths:

 Excited State   1:      Singlet-A      1.9324 eV  641.60 nm  f=0.3648  <S**2>=0.000
     245 -> 248       -0.18815
     246 -> 247        0.68562
 This state for optimization and/or second-order correction.
 Total Energy, E(TD-HF/TD-DFT) =  -3005.27424338
 Copying the excited state density for this state as the 1-particle RhoCI density.

 Excited State   2:      Singlet-A      2.2268 eV  556.79 nm  f=0.1376  <S**2>=0.000
     245 -> 247        0.65871
     246 -> 248        0.23813

 Excited State   3:      Singlet-A      3.0169 eV  410.96 nm  f=0.0028  <S**2>=0.000
     241 -> 247        0.20208
     242 -> 247       -0.17508
     243 -> 247        0.17293
     244 -> 247        0.61059

 Excited State   4:      Singlet-A      3.0755 eV  403.13 nm  f=0.0001  <S**2>=0.000
     241 -> 247        0.25545
     242 -> 247       -0.31239
     243 -> 247        0.43821
     244 -> 247       -0.33143

 Excited State   5:      Singlet-A      3.1864 eV  389.10 nm  f=0.0035  <S**2>=0.000
     241 -> 247        0.26576
     242 -> 247        0.56017
     243 -> 247        0.25546

 The electronic state is 1-A.
 Alpha  occ. eigenvalues --  -46.91898 -19.25742 -19.25504 -19.20405 -19.19334
 Alpha  occ. eigenvalues --  -19.19211 -19.19175 -14.41814 -14.41372 -14.39155
 Alpha  occ. eigenvalues --  -14.38506 -10.36743 -10.36569 -10.32468 -10.32460
 Alpha  occ. eigenvalues --  -10.30188 -10.29585 -10.29290 -10.28781 -10.28763
 Alpha  occ. eigenvalues --  -10.28438 -10.28183 -10.27040 -10.27032 -10.26817
 Alpha  occ. eigenvalues --  -10.26732 -10.26486 -10.26218 -10.26147 -10.26003
 Alpha  occ. eigenvalues --  -10.25921 -10.25900 -10.25888 -10.25874 -10.25657
 Alpha  occ. eigenvalues --  -10.25318 -10.24828 -10.24726 -10.24552 -10.24484
 Alpha  occ. eigenvalues --  -10.24424 -10.24237 -10.24017 -10.23981 -10.23847
 Alpha  occ. eigenvalues --  -10.23700 -10.23642 -10.23467 -10.23420 -10.23307
 Alpha  occ. eigenvalues --  -10.23298 -10.23197 -10.23095 -10.22882 -10.22696
 Alpha  occ. eigenvalues --  -10.22677 -10.22434 -10.22409 -10.22400 -10.22343
 Alpha  occ. eigenvalues --  -10.22326 -10.22319 -10.22315 -10.22071 -10.21995
 Alpha  occ. eigenvalues --  -10.21813  -3.14016  -1.86873  -1.86381  -1.86247
 Alpha  occ. eigenvalues --   -1.11181  -1.10462  -1.04286  -1.03956  -1.03022
 Alpha  occ. eigenvalues --   -1.00445  -0.99696  -0.98864  -0.98474  -0.96717
 Alpha  occ. eigenvalues --   -0.87777  -0.84176  -0.83703  -0.83540  -0.83169
 Alpha  occ. eigenvalues --   -0.82776  -0.82615  -0.81494  -0.81362  -0.81260
 Alpha  occ. eigenvalues --   -0.80108  -0.79056  -0.78591  -0.78344  -0.77649
 Alpha  occ. eigenvalues --   -0.76598  -0.75769  -0.75526  -0.74920  -0.74617
 Alpha  occ. eigenvalues --   -0.73499  -0.72567  -0.72236  -0.71948  -0.70844
 Alpha  occ. eigenvalues --   -0.70054  -0.69678  -0.69330  -0.69070  -0.68399
 Alpha  occ. eigenvalues --   -0.67958  -0.67330  -0.66229  -0.65352  -0.63399
 Alpha  occ. eigenvalues --   -0.63187  -0.62945  -0.62097  -0.61372  -0.60560
 Alpha  occ. eigenvalues --   -0.59913  -0.59672  -0.59415  -0.58909  -0.58122
 Alpha  occ. eigenvalues --   -0.57905  -0.57408  -0.56771  -0.56766  -0.54947
 Alpha  occ. eigenvalues --   -0.54099  -0.53935  -0.53590  -0.53372  -0.52962
 Alpha  occ. eigenvalues --   -0.52451  -0.51685  -0.50881  -0.50077  -0.49738
 Alpha  occ. eigenvalues --   -0.49395  -0.49243  -0.48968  -0.48094  -0.48047
 Alpha  occ. eigenvalues --   -0.47986  -0.47894  -0.47663  -0.47428  -0.47269
 Alpha  occ. eigenvalues --   -0.47203  -0.46953  -0.46782  -0.46625  -0.46517
 Alpha  occ. eigenvalues --   -0.46274  -0.46054  -0.45993  -0.45708  -0.45489
 Alpha  occ. eigenvalues --   -0.45245  -0.44580  -0.44486  -0.44228  -0.44134
 Alpha  occ. eigenvalues --   -0.43791  -0.43717  -0.43573  -0.43355  -0.43299
 Alpha  occ. eigenvalues --   -0.43024  -0.42834  -0.42688  -0.42639  -0.42380
 Alpha  occ. eigenvalues --   -0.42130  -0.41922  -0.41833  -0.41625  -0.41351
 Alpha  occ. eigenvalues --   -0.41322  -0.41224  -0.40648  -0.40515  -0.40405
 Alpha  occ. eigenvalues --   -0.40362  -0.40007  -0.39854  -0.39793  -0.39481
 Alpha  occ. eigenvalues --   -0.39269  -0.39128  -0.39088  -0.38599  -0.38540
 Alpha  occ. eigenvalues --   -0.38329  -0.38181  -0.38140  -0.38037  -0.37911
 Alpha  occ. eigenvalues --   -0.37780  -0.37523  -0.37384  -0.37365  -0.37187
 Alpha  occ. eigenvalues --   -0.36908  -0.36845  -0.36672  -0.36637  -0.36491
 Alpha  occ. eigenvalues --   -0.36225  -0.35791  -0.35498  -0.35482  -0.35431
 Alpha  occ. eigenvalues --   -0.34733  -0.34550  -0.34231  -0.33966  -0.33885
 Alpha  occ. eigenvalues --   -0.33795  -0.33605  -0.33267  -0.33010  -0.32480
 Alpha  occ. eigenvalues --   -0.32479  -0.31919  -0.31631  -0.31383  -0.31280
 Alpha  occ. eigenvalues --   -0.30929  -0.30469  -0.30204  -0.29618  -0.29441
 Alpha  occ. eigenvalues --   -0.29026  -0.28269  -0.28017  -0.27154  -0.26227
 Alpha  occ. eigenvalues --   -0.26109  -0.25987  -0.25814  -0.25238  -0.20849
 Alpha  occ. eigenvalues --   -0.19206
 Alpha virt. eigenvalues --   -0.11260  -0.05425  -0.04014  -0.02040  -0.00228
 Alpha virt. eigenvalues --   -0.00034   0.00334   0.01496   0.02050   0.02617
 Alpha virt. eigenvalues --    0.03813   0.04284   0.04786   0.05071   0.05406

 Mulliken charges:
               1
     1  Mg   0.978091
     2  C   -0.080633
     3  C   -0.052509
     4  C   -0.047899
     5  C   -0.083352
     6  N   -0.375641
     7  C    0.005000
     8  C   -0.073926
     9  C   -0.124000
    10  C   -0.003935
    11  C   -0.001041
    12  C    0.043644
    13  C   -0.015745
    14  C    0.204057
    15  O   -0.306979
    16  O   -0.357763
    17  N   -0.504308
    18  C    0.206185
    19  C   -0.191833
    20  C   -0.063742
    21  C    0.154228
    22  C    0.075962
    23  C    0.062593
    24  O   -0.253602
    25  C   -0.056197
    26  N   -0.367371
    27  C    0.052225
    28  C   -0.127039
    29  C   -0.089014
    30  C    0.058763
    31  C   -0.016535
    32  C    0.003241
    33  C   -0.051878
    34  N   -0.459773
    35  C    0.168421
    36  C   -0.192686
    37  C   -0.027421
    38  C    0.210062
    39  C    0.053800
    40  C    0.122861
    41  O   -0.217764
    42  C   -0.078576
    43  C    0.291937
    44  O   -0.233600
    45  O   -0.409503
    46  C    0.112657
    47  C    0.242718
    48  C   -0.086583
    49  C   -0.240728
    50  C    0.013449
    51  C   -0.007121
    52  C   -0.039480
    53  C   -0.045931
    54  C   -0.249907
    55  C   -0.014999
    56  C    0.009605
    57  C   -0.039040
    58  C   -0.007343
    59  C   -0.211079
    60  C   -0.040332
    61  C   -0.005682
    62  C   -0.044702
    63  C    0.008038
    64  C   -0.226888
    65  C   -0.038331
    66  C   -0.040767
    67  H   -0.003568
    68  H    0.027807
    69  H    0.003078
    70  H    0.058199
    71  H    0.052849
    72  H    0.037053
    73  H    0.049766
    74  H    0.067753
    75  H    0.054573
    76  H    0.055181
    77  H    0.068748
    78  H    0.051051
    79  H    0.036129
    80  H    0.052093
    81  H    0.052922
    82  H    0.074646
    83  H    0.053382
    84  H    0.057128
    85  H    0.058003
    86  H    0.047625
    87  H    0.047817
    88  H    0.045499
    89  H    0.038750
    90  H    0.045203
    91  H    0.042803
    92  H    0.038212
    93  H    0.041776
    94  H    0.038513
    95  H    0.058726
    96  H    0.042637
    97  H    0.062661
    98  H    0.069902
    99  H    0.071946
   100  H    0.072547
   101  H    0.079248
   102  H    0.080319
   103  H    0.059331
   104  H    0.024253
   105  H    0.032957
   106  H    0.044518
   107  H    0.058769
   108  H    0.050647
   109  H    0.023065
   110  H    0.040343
   111  H    0.041408
   112  H    0.028065
   113  H    0.029646
   114  H    0.033159
   115  H    0.040965
   116  H    0.040135
   117  H    0.037447
   118  H    0.026456
   119  H    0.018613
   120  H    0.035668
   121  H    0.034014
   122  H    0.021116
   123  H    0.023098
   124  H    0.030153
   125  H    0.038204
   126  H    0.039834
   127  H    0.033358
   128  H    0.026260
   129  H    0.040594
   130  H    0.028348
   131  H    0.030130
   132  H    0.018129
   133  H    0.013366
   134  H    0.042540
   135  H    0.038909
   136  H    0.028340
   137  H    0.025309
   138  H    0.041006
   139  H    0.042058
   140  H    0.034461
 Sum of Mulliken charges =  -0.00000

 Dipole moment (field-independent basis, Debye):
    X=              4.0882    Y=              1.8235    Z=             -0.1405  Tot=              4.4787
 Quadrupole moment (field-independent basis, Debye-Ang):
   XX=           -369.6045   YY=           -422.8295   ZZ=           -416.2041
   XY=            -20.6052   XZ=              7.3284   YZ=             -4.3697

 Normal termination of Gaussian 16 at Sun May  1 00:33:55 2022.
