 Gaussian 16, Revision A.03,
 Gaussian 16:  ES64L-G16RevA.03 25-Dec-2016

 --------------------------------
 #p wB97XD/Def2SVP td=(nstates=5)
 --------------------------------

 ----------------------------------------------------
 step_951_chromophore_27 TDDFT with wB97XD functional
 ----------------------------------------------------
 Symbolic Z-matrix:
 Charge =  0 Multiplicity = 1

                         Standard orientation:
 ---------------------------------------------------------------------
 Center     Atomic      Atomic             Coordinates (Angstroms)
 Number     Number       Type             X           Y           Z
 ---------------------------------------------------------------------
      1         12           0       -4.503011    0.934683   -0.035487
      2          6           0       -3.950592   -2.556401    0.243784
      3          6           0       -1.082678    1.388730   -0.010746
      4          6           0       -5.095389    4.159920    0.076276
      5          6           0       -7.907917    0.220554    0.163150
      6          7           0       -2.717329   -0.430359    0.040756
      7          6           0       -2.755632   -1.827789    0.039239
      8          6           0       -1.315748   -2.389187   -0.000276
      9          6           0       -0.363575   -1.126574    0.219014
     10          6           0       -1.433074    0.033209    0.071916
     11          6           0        0.342063   -0.885748    1.624455
     12          6           0       -1.091758   -3.130516   -1.337614
     13          6           0       -0.126106   -4.400219   -1.211095
     14          6           0        1.260764   -4.492833   -1.966147
     15          8           0        1.446546   -4.395435   -3.199783
     16          8           0        2.357034   -4.628155   -1.183250
     17          7           0       -3.242124    2.522977    0.012677
     18          6           0       -1.904831    2.560142   -0.066265
     19          6           0       -1.467357    3.875589   -0.210428
     20          6           0       -2.602831    4.705062   -0.360694
     21          6           0       -3.728205    3.815974   -0.117021
     22          6           0        0.023375    4.248416   -0.341947
     23          6           0       -2.615080    6.206228   -0.531484
     24          8           0       -3.652839    6.882399   -0.499455
     25          6           0       -1.315308    6.921067   -0.854272
     26          7           0       -6.308947    2.079895    0.161011
     27          6           0       -6.278937    3.435587    0.189494
     28          6           0       -7.719313    3.963591    0.378085
     29          6           0       -8.646046    2.702767    0.216445
     30          6           0       -7.525049    1.593952    0.252160
     31          6           0       -7.797137    4.650166    1.788543
     32          6           0       -9.429170    2.779816   -1.099636
     33          6           0      -10.858459    2.501624   -1.009079
     34          7           0       -5.708664   -0.770850    0.216600
     35          6           0       -7.046529   -0.879856    0.219256
     36          6           0       -7.421076   -2.237831    0.357629
     37          6           0       -6.188776   -2.979608    0.379149
     38          6           0       -5.208380   -2.046435    0.309568
     39          6           0       -8.845519   -2.804167    0.480142
     40          6           0       -5.578758   -4.292064    0.461108
     41          8           0       -6.142132   -5.370588    0.635437
     42          6           0       -4.013264   -4.103090    0.426204
     43          6           0       -3.393830   -4.700191    1.648684
     44          8           0       -3.670050   -4.341311    2.772736
     45          8           0       -2.487838   -5.699368    1.304413
     46          6           0       -1.813911   -6.514842    2.339164
     47          6           0        3.653601   -4.485718   -1.897491
     48          6           0        3.981830   -3.036505   -2.155011
     49          6           0        5.200190   -2.499849   -2.123995
     50          6           0        6.461349   -3.297284   -1.810103
     51          6           0        5.522336   -0.926154   -2.292513
     52          6           0        6.384487   -0.432687   -3.585850
     53          6           0        7.777628    0.068461   -3.226269
     54          6           0        8.047376    1.538545   -3.545896
     55          6           0        7.839645    1.803774   -5.105099
     56          6           0        9.544953    1.909857   -3.167401
     57          6           0        9.582604    2.737831   -1.870034
     58          6           0       10.502445    2.032884   -0.767182
     59          6           0        9.702995    1.460240    0.440285
     60          6           0        9.452282   -0.139214    0.307552
     61          6           0       10.411379    1.729616    1.747063
     62          6           0        9.384850    1.766673    2.991029
     63          6           0        9.540715    0.647514    3.993952
     64          6           0        9.726090    1.190216    5.398728
     65          6           0       10.464810    0.166627    6.362656
     66          6           0        8.295717    1.571907    6.035769
     67          1           0        0.000357    1.410724   -0.149381
     68          1           0       -5.245761    5.222314    0.278734
     69          1           0       -8.980430    0.018225    0.124995
     70          1           0       -1.249416   -2.997300    0.901164
     71          1           0        0.412121   -1.068086   -0.544966
     72          1           0        1.370075   -0.640907    1.356542
     73          1           0        0.438168   -1.766201    2.259164
     74          1           0       -0.058624   -0.034055    2.175048
     75          1           0       -0.641441   -2.477848   -2.085935
     76          1           0       -2.042728   -3.441592   -1.768802
     77          1           0       -0.658145   -5.253504   -1.631542
     78          1           0        0.073195   -4.655608   -0.169983
     79          1           0        0.207357    5.164250    0.219867
     80          1           0        0.127393    4.582480   -1.374046
     81          1           0        0.792772    3.520760   -0.081222
     82          1           0       -0.713764    7.079673    0.041065
     83          1           0       -1.680195    7.869986   -1.246252
     84          1           0       -0.693539    6.532768   -1.660796
     85          1           0       -7.772486    4.825719   -0.286171
     86          1           0       -9.268747    2.491157    1.084808
     87          1           0       -7.678068    5.733789    1.805422
     88          1           0       -6.969895    4.287389    2.399250
     89          1           0       -8.700412    4.467347    2.370549
     90          1           0       -8.991338    2.089989   -1.822814
     91          1           0       -9.292531    3.794688   -1.472971
     92          1           0      -11.133164    2.303713    0.026104
     93          1           0      -11.105282    1.690120   -1.693736
     94          1           0      -11.437402    3.354996   -1.362643
     95          1           0       -8.814041   -3.873369    0.269373
     96          1           0       -9.611267   -2.482267   -0.225019
     97          1           0       -9.195281   -2.589969    1.490072
     98          1           0       -3.591722   -4.601440   -0.447244
     99          1           0       -1.898399   -5.935978    3.258876
    100          1           0       -0.855068   -6.481692    1.821201
    101          1           0       -2.313285   -7.477264    2.447841
    102          1           0        3.720396   -5.098716   -2.795412
    103          1           0        4.194151   -4.979169   -1.090005
    104          1           0        3.265374   -2.248503   -2.388084
    105          1           0        6.177652   -4.169792   -1.220785
    106          1           0        7.177447   -2.695957   -1.249843
    107          1           0        6.912845   -3.620335   -2.748002
    108          1           0        6.030895   -0.603190   -1.384243
    109          1           0        4.589381   -0.377132   -2.419300
    110          1           0        5.837914    0.359089   -4.097181
    111          1           0        6.597692   -1.237807   -4.288145
    112          1           0        8.494998   -0.509935   -3.808753
    113          1           0        7.935443   -0.136868   -2.167639
    114          1           0        7.320024    2.138245   -2.999182
    115          1           0        8.695403    2.304395   -5.558012
    116          1           0        6.942271    2.420111   -5.140640
    117          1           0        7.686508    0.845278   -5.602272
    118          1           0       10.216171    2.366943   -3.894073
    119          1           0       10.011926    0.929830   -3.068143
    120          1           0        8.604375    2.896821   -1.416347
    121          1           0       10.094907    3.666307   -2.123726
    122          1           0       11.255149    2.740835   -0.421232
    123          1           0       11.050097    1.238991   -1.273565
    124          1           0        8.683446    1.843296    0.407980
    125          1           0        9.902862   -0.491475   -0.620399
    126          1           0        8.378622   -0.326961    0.319945
    127          1           0        9.880740   -0.757731    1.096069
    128          1           0       10.778826    2.755149    1.706805
    129          1           0       11.245419    1.042344    1.884029
    130          1           0        8.330444    1.790762    2.714962
    131          1           0        9.562361    2.727005    3.475030
    132          1           0       10.195329   -0.114797    3.570939
    133          1           0        8.653748    0.016408    4.044708
    134          1           0       10.314286    2.107147    5.429925
    135          1           0       11.526407    0.099970    6.122495
    136          1           0       10.062088   -0.845932    6.380367
    137          1           0       10.390779    0.402286    7.423771
    138          1           0        7.911337    0.738907    6.625273
    139          1           0        7.585512    1.945296    5.298221
    140          1           0        8.528096    2.357075    6.753949
 ---------------------------------------------------------------------

 SCF Done:  E(RwB97XD) =  -3007.85653417     A.U. after   19 cycles

 Excitation energies and oscillator strengths:

 Excited State   1:      Singlet-A      1.7184 eV  721.49 nm  f=0.3792  <S**2>=0.000
     245 -> 248        0.19899
     246 -> 247        0.67771
     245 <- 248        0.11651
 This state for optimization and/or second-order correction.
 Total Energy, E(TD-HF/TD-DFT) =  -3007.79338266
 Copying the excited state density for this state as the 1-particle RhoCI density.

 Excited State   2:      Singlet-A      2.1587 eV  574.36 nm  f=0.1435  <S**2>=0.000
     245 -> 247        0.64697
     246 -> 248       -0.26673

 Excited State   3:      Singlet-A      3.3465 eV  370.49 nm  f=0.0000  <S**2>=0.000
     244 -> 247        0.68032

 Excited State   4:      Singlet-A      3.5325 eV  350.98 nm  f=0.0306  <S**2>=0.000
     239 -> 247       -0.10669
     240 -> 247        0.47377
     240 -> 249       -0.30023
     240 -> 250        0.17241
     241 -> 247       -0.20348
     241 -> 249        0.13207
     243 -> 247        0.14418
     246 -> 248       -0.14505

 Excited State   5:      Singlet-A      3.5722 eV  347.09 nm  f=0.2052  <S**2>=0.000
     243 -> 247        0.50106
     244 -> 247       -0.10312
     245 -> 247        0.14427
     246 -> 248        0.45091

 The electronic state is 1-A.
 Alpha  occ. eigenvalues --  -46.94838 -19.30295 -19.30123 -19.25210 -19.24300
 Alpha  occ. eigenvalues --  -19.23863 -19.23862 -14.46926 -14.46453 -14.44030
 Alpha  occ. eigenvalues --  -14.43490 -10.43671 -10.43338 -10.39443 -10.39194
 Alpha  occ. eigenvalues --  -10.36677 -10.36141 -10.35687 -10.35125 -10.34971
 Alpha  occ. eigenvalues --  -10.34633 -10.34384 -10.33301 -10.33260 -10.33211
 Alpha  occ. eigenvalues --  -10.33035 -10.33007 -10.32666 -10.32553 -10.32545
 Alpha  occ. eigenvalues --  -10.32406 -10.32342 -10.32121 -10.32054 -10.31934
 Alpha  occ. eigenvalues --  -10.31653 -10.31191 -10.31094 -10.30884 -10.30866
 Alpha  occ. eigenvalues --  -10.30747 -10.30515 -10.30340 -10.30332 -10.30112
 Alpha  occ. eigenvalues --  -10.30032 -10.29986 -10.29966 -10.29843 -10.29801
 Alpha  occ. eigenvalues --  -10.29748 -10.29514 -10.29407 -10.29363 -10.29039
 Alpha  occ. eigenvalues --  -10.29032 -10.28824 -10.28793 -10.28751 -10.28739
 Alpha  occ. eigenvalues --  -10.28724 -10.28723 -10.28650 -10.28493 -10.28426
 Alpha  occ. eigenvalues --  -10.28185  -3.20808  -1.94414  -1.93924  -1.93788
 Alpha  occ. eigenvalues --   -1.18546  -1.17946  -1.11908  -1.11333  -1.10468
 Alpha  occ. eigenvalues --   -1.07793  -1.07095  -1.06273  -1.05732  -1.04139
 Alpha  occ. eigenvalues --   -0.95482  -0.91862  -0.91280  -0.91216  -0.90841
 Alpha  occ. eigenvalues --   -0.90445  -0.90163  -0.89097  -0.88928  -0.88918
 Alpha  occ. eigenvalues --   -0.87795  -0.86718  -0.86232  -0.85999  -0.85295
 Alpha  occ. eigenvalues --   -0.84246  -0.83442  -0.83167  -0.82567  -0.82275
 Alpha  occ. eigenvalues --   -0.81168  -0.80202  -0.79885  -0.79583  -0.78495
 Alpha  occ. eigenvalues --   -0.77735  -0.77239  -0.77035  -0.76779  -0.76055
 Alpha  occ. eigenvalues --   -0.75587  -0.74921  -0.73743  -0.72974  -0.70994
 Alpha  occ. eigenvalues --   -0.70822  -0.70486  -0.69572  -0.69011  -0.68082
 Alpha  occ. eigenvalues --   -0.67427  -0.67125  -0.67071  -0.66334  -0.65768
 Alpha  occ. eigenvalues --   -0.65557  -0.64918  -0.64357  -0.64248  -0.62301
 Alpha  occ. eigenvalues --   -0.61621  -0.61363  -0.61112  -0.60868  -0.60356
 Alpha  occ. eigenvalues --   -0.59912  -0.59202  -0.58232  -0.57554  -0.57153
 Alpha  occ. eigenvalues --   -0.56869  -0.56669  -0.56374  -0.55471  -0.55435
 Alpha  occ. eigenvalues --   -0.55383  -0.55351  -0.54960  -0.54856  -0.54629
 Alpha  occ. eigenvalues --   -0.54594  -0.54336  -0.54209  -0.54014  -0.53878
 Alpha  occ. eigenvalues --   -0.53637  -0.53429  -0.53336  -0.53075  -0.52810
 Alpha  occ. eigenvalues --   -0.52525  -0.51980  -0.51849  -0.51543  -0.51461
 Alpha  occ. eigenvalues --   -0.51172  -0.51062  -0.50896  -0.50652  -0.50595
 Alpha  occ. eigenvalues --   -0.50309  -0.50107  -0.49922  -0.49894  -0.49663
 Alpha  occ. eigenvalues --   -0.49407  -0.49235  -0.49073  -0.48872  -0.48643
 Alpha  occ. eigenvalues --   -0.48599  -0.48445  -0.47826  -0.47653  -0.47617
 Alpha  occ. eigenvalues --   -0.47452  -0.47159  -0.47089  -0.46928  -0.46695
 Alpha  occ. eigenvalues --   -0.46484  -0.46413  -0.46261  -0.45826  -0.45652
 Alpha  occ. eigenvalues --   -0.45425  -0.45385  -0.45282  -0.45213  -0.45068
 Alpha  occ. eigenvalues --   -0.44886  -0.44689  -0.44515  -0.44444  -0.44318
 Alpha  occ. eigenvalues --   -0.44027  -0.43939  -0.43783  -0.43722  -0.43603
 Alpha  occ. eigenvalues --   -0.43279  -0.42869  -0.42551  -0.42478  -0.42430
 Alpha  occ. eigenvalues --   -0.41699  -0.41627  -0.41252  -0.40917  -0.40882
 Alpha  occ. eigenvalues --   -0.40863  -0.40614  -0.40290  -0.39988  -0.39547
 Alpha  occ. eigenvalues --   -0.39498  -0.38945  -0.38776  -0.38359  -0.38170
 Alpha  occ. eigenvalues --   -0.37898  -0.37388  -0.37176  -0.36753  -0.36243
 Alpha  occ. eigenvalues --   -0.35753  -0.35154  -0.35103  -0.33758  -0.33225
 Alpha  occ. eigenvalues --   -0.33038  -0.32977  -0.32356  -0.31873  -0.25771
 Alpha  occ. eigenvalues --   -0.23436
 Alpha virt. eigenvalues --   -0.07171   0.00064   0.02249   0.04457   0.06148
 Alpha virt. eigenvalues --    0.06572   0.06755   0.08160   0.08573   0.09177
 Alpha virt. eigenvalues --    0.10307   0.11092   0.11516   0.11865   0.12272

 Mulliken charges:
               1
     1  Mg   0.968103
     2  C   -0.089555
     3  C   -0.069197
     4  C   -0.064161
     5  C   -0.105050
     6  N   -0.343077
     7  C   -0.023816
     8  C   -0.044250
     9  C   -0.104496
    10  C   -0.016209
    11  C    0.010114
    12  C    0.051749
    13  C    0.000329
    14  C    0.193701
    15  O   -0.305226
    16  O   -0.358100
    17  N   -0.470601
    18  C    0.196326
    19  C   -0.183511
    20  C   -0.057346
    21  C    0.145541
    22  C    0.093889
    23  C    0.057160
    24  O   -0.248915
    25  C   -0.044248
    26  N   -0.333050
    27  C    0.037936
    28  C   -0.097806
    29  C   -0.063937
    30  C    0.042706
    31  C   -0.008548
    32  C    0.014992
    33  C   -0.036916
    34  N   -0.420349
    35  C    0.165898
    36  C   -0.189475
    37  C   -0.022354
    38  C    0.199657
    39  C    0.063274
    40  C    0.102592
    41  O   -0.207152
    42  C   -0.036800
    43  C    0.266887
    44  O   -0.227974
    45  O   -0.407384
    46  C    0.127314
    47  C    0.262086
    48  C   -0.098037
    49  C   -0.231835
    50  C    0.028927
    51  C    0.018231
    52  C   -0.031370
    53  C   -0.010026
    54  C   -0.220081
    55  C   -0.003146
    56  C    0.023235
    57  C   -0.021002
    58  C    0.007744
    59  C   -0.182568
    60  C   -0.025496
    61  C    0.013221
    62  C   -0.031694
    63  C    0.020574
    64  C   -0.194219
    65  C   -0.026896
    66  C   -0.029004
    67  H   -0.011538
    68  H    0.022411
    69  H   -0.002573
    70  H    0.041656
    71  H    0.043680
    72  H    0.031105
    73  H    0.044673
    74  H    0.061295
    75  H    0.048842
    76  H    0.046726
    77  H    0.063474
    78  H    0.043814
    79  H    0.026862
    80  H    0.043536
    81  H    0.049515
    82  H    0.069990
    83  H    0.051008
    84  H    0.051911
    85  H    0.048807
    86  H    0.036736
    87  H    0.042995
    88  H    0.038091
    89  H    0.032971
    90  H    0.037018
    91  H    0.034824
    92  H    0.031507
    93  H    0.036321
    94  H    0.033335
    95  H    0.055642
    96  H    0.038648
    97  H    0.058482
    98  H    0.061423
    99  H    0.068640
   100  H    0.069296
   101  H    0.075847
   102  H    0.075941
   103  H    0.055540
   104  H    0.020643
   105  H    0.025817
   106  H    0.038402
   107  H    0.053202
   108  H    0.040122
   109  H    0.016562
   110  H    0.032001
   111  H    0.034079
   112  H    0.018002
   113  H   -0.001084
   114  H    0.020668
   115  H    0.035457
   116  H    0.034675
   117  H    0.030004
   118  H    0.020466
   119  H    0.004791
   120  H    0.024806
   121  H    0.027416
   122  H    0.013539
   123  H    0.012283
   124  H    0.015518
   125  H    0.029918
   126  H    0.032608
   127  H    0.027121
   128  H    0.017058
   129  H    0.032140
   130  H    0.020441
   131  H    0.020976
   132  H    0.008007
   133  H    0.003617
   134  H    0.031165
   135  H    0.033313
   136  H    0.021594
   137  H    0.019498
   138  H    0.034711
   139  H    0.036352
   140  H    0.028349
 Sum of Mulliken charges =  -0.00000

 Dipole moment (field-independent basis, Debye):
    X=              4.0551    Y=              1.5407    Z=             -0.1284  Tot=              4.3398
 Quadrupole moment (field-independent basis, Debye-Ang):
   XX=           -369.1624   YY=           -421.7199   ZZ=           -415.8227
   XY=            -18.8358   XZ=              7.5061   YZ=             -4.7695

 Normal termination of Gaussian 16 at Sun May  1 01:04:55 2022.
