 Gaussian 16, Revision A.03,
 Gaussian 16:  ES64L-G16RevA.03 25-Dec-2016

 --------------------
 #p ZINDO=(nstates=5)
 --------------------

 -----------------------------
 step_951_chromophore_27 ZINDO
 -----------------------------
 Symbolic Z-matrix:
 Charge =  0 Multiplicity = 1

                         Standard orientation:
 ---------------------------------------------------------------------
 Center     Atomic      Atomic             Coordinates (Angstroms)
 Number     Number       Type             X           Y           Z
 ---------------------------------------------------------------------
      1         12           0       -4.503011    0.934683   -0.035487
      2          6           0       -3.950592   -2.556401    0.243784
      3          6           0       -1.082678    1.388730   -0.010746
      4          6           0       -5.095389    4.159920    0.076276
      5          6           0       -7.907917    0.220554    0.163150
      6          7           0       -2.717329   -0.430359    0.040756
      7          6           0       -2.755632   -1.827789    0.039239
      8          6           0       -1.315748   -2.389187   -0.000276
      9          6           0       -0.363575   -1.126574    0.219014
     10          6           0       -1.433074    0.033209    0.071916
     11          6           0        0.342063   -0.885748    1.624455
     12          6           0       -1.091758   -3.130516   -1.337614
     13          6           0       -0.126106   -4.400219   -1.211095
     14          6           0        1.260764   -4.492833   -1.966147
     15          8           0        1.446546   -4.395435   -3.199783
     16          8           0        2.357034   -4.628155   -1.183250
     17          7           0       -3.242124    2.522977    0.012677
     18          6           0       -1.904831    2.560142   -0.066265
     19          6           0       -1.467357    3.875589   -0.210428
     20          6           0       -2.602831    4.705062   -0.360694
     21          6           0       -3.728205    3.815974   -0.117021
     22          6           0        0.023375    4.248416   -0.341947
     23          6           0       -2.615080    6.206228   -0.531484
     24          8           0       -3.652839    6.882399   -0.499455
     25          6           0       -1.315308    6.921067   -0.854272
     26          7           0       -6.308947    2.079895    0.161011
     27          6           0       -6.278937    3.435587    0.189494
     28          6           0       -7.719313    3.963591    0.378085
     29          6           0       -8.646046    2.702767    0.216445
     30          6           0       -7.525049    1.593952    0.252160
     31          6           0       -7.797137    4.650166    1.788543
     32          6           0       -9.429170    2.779816   -1.099636
     33          6           0      -10.858459    2.501624   -1.009079
     34          7           0       -5.708664   -0.770850    0.216600
     35          6           0       -7.046529   -0.879856    0.219256
     36          6           0       -7.421076   -2.237831    0.357629
     37          6           0       -6.188776   -2.979608    0.379149
     38          6           0       -5.208380   -2.046435    0.309568
     39          6           0       -8.845519   -2.804167    0.480142
     40          6           0       -5.578758   -4.292064    0.461108
     41          8           0       -6.142132   -5.370588    0.635437
     42          6           0       -4.013264   -4.103090    0.426204
     43          6           0       -3.393830   -4.700191    1.648684
     44          8           0       -3.670050   -4.341311    2.772736
     45          8           0       -2.487838   -5.699368    1.304413
     46          6           0       -1.813911   -6.514842    2.339164
     47          6           0        3.653601   -4.485718   -1.897491
     48          6           0        3.981830   -3.036505   -2.155011
     49          6           0        5.200190   -2.499849   -2.123995
     50          6           0        6.461349   -3.297284   -1.810103
     51          6           0        5.522336   -0.926154   -2.292513
     52          6           0        6.384487   -0.432687   -3.585850
     53          6           0        7.777628    0.068461   -3.226269
     54          6           0        8.047376    1.538545   -3.545896
     55          6           0        7.839645    1.803774   -5.105099
     56          6           0        9.544953    1.909857   -3.167401
     57          6           0        9.582604    2.737831   -1.870034
     58          6           0       10.502445    2.032884   -0.767182
     59          6           0        9.702995    1.460240    0.440285
     60          6           0        9.452282   -0.139214    0.307552
     61          6           0       10.411379    1.729616    1.747063
     62          6           0        9.384850    1.766673    2.991029
     63          6           0        9.540715    0.647514    3.993952
     64          6           0        9.726090    1.190216    5.398728
     65          6           0       10.464810    0.166627    6.362656
     66          6           0        8.295717    1.571907    6.035769
     67          1           0        0.000357    1.410724   -0.149381
     68          1           0       -5.245761    5.222314    0.278734
     69          1           0       -8.980430    0.018225    0.124995
     70          1           0       -1.249416   -2.997300    0.901164
     71          1           0        0.412121   -1.068086   -0.544966
     72          1           0        1.370075   -0.640907    1.356542
     73          1           0        0.438168   -1.766201    2.259164
     74          1           0       -0.058624   -0.034055    2.175048
     75          1           0       -0.641441   -2.477848   -2.085935
     76          1           0       -2.042728   -3.441592   -1.768802
     77          1           0       -0.658145   -5.253504   -1.631542
     78          1           0        0.073195   -4.655608   -0.169983
     79          1           0        0.207357    5.164250    0.219867
     80          1           0        0.127393    4.582480   -1.374046
     81          1           0        0.792772    3.520760   -0.081222
     82          1           0       -0.713764    7.079673    0.041065
     83          1           0       -1.680195    7.869986   -1.246252
     84          1           0       -0.693539    6.532768   -1.660796
     85          1           0       -7.772486    4.825719   -0.286171
     86          1           0       -9.268747    2.491157    1.084808
     87          1           0       -7.678068    5.733789    1.805422
     88          1           0       -6.969895    4.287389    2.399250
     89          1           0       -8.700412    4.467347    2.370549
     90          1           0       -8.991338    2.089989   -1.822814
     91          1           0       -9.292531    3.794688   -1.472971
     92          1           0      -11.133164    2.303713    0.026104
     93          1           0      -11.105282    1.690120   -1.693736
     94          1           0      -11.437402    3.354996   -1.362643
     95          1           0       -8.814041   -3.873369    0.269373
     96          1           0       -9.611267   -2.482267   -0.225019
     97          1           0       -9.195281   -2.589969    1.490072
     98          1           0       -3.591722   -4.601440   -0.447244
     99          1           0       -1.898399   -5.935978    3.258876
    100          1           0       -0.855068   -6.481692    1.821201
    101          1           0       -2.313285   -7.477264    2.447841
    102          1           0        3.720396   -5.098716   -2.795412
    103          1           0        4.194151   -4.979169   -1.090005
    104          1           0        3.265374   -2.248503   -2.388084
    105          1           0        6.177652   -4.169792   -1.220785
    106          1           0        7.177447   -2.695957   -1.249843
    107          1           0        6.912845   -3.620335   -2.748002
    108          1           0        6.030895   -0.603190   -1.384243
    109          1           0        4.589381   -0.377132   -2.419300
    110          1           0        5.837914    0.359089   -4.097181
    111          1           0        6.597692   -1.237807   -4.288145
    112          1           0        8.494998   -0.509935   -3.808753
    113          1           0        7.935443   -0.136868   -2.167639
    114          1           0        7.320024    2.138245   -2.999182
    115          1           0        8.695403    2.304395   -5.558012
    116          1           0        6.942271    2.420111   -5.140640
    117          1           0        7.686508    0.845278   -5.602272
    118          1           0       10.216171    2.366943   -3.894073
    119          1           0       10.011926    0.929830   -3.068143
    120          1           0        8.604375    2.896821   -1.416347
    121          1           0       10.094907    3.666307   -2.123726
    122          1           0       11.255149    2.740835   -0.421232
    123          1           0       11.050097    1.238991   -1.273565
    124          1           0        8.683446    1.843296    0.407980
    125          1           0        9.902862   -0.491475   -0.620399
    126          1           0        8.378622   -0.326961    0.319945
    127          1           0        9.880740   -0.757731    1.096069
    128          1           0       10.778826    2.755149    1.706805
    129          1           0       11.245419    1.042344    1.884029
    130          1           0        8.330444    1.790762    2.714962
    131          1           0        9.562361    2.727005    3.475030
    132          1           0       10.195329   -0.114797    3.570939
    133          1           0        8.653748    0.016408    4.044708
    134          1           0       10.314286    2.107147    5.429925
    135          1           0       11.526407    0.099970    6.122495
    136          1           0       10.062088   -0.845932    6.380367
    137          1           0       10.390779    0.402286    7.423771
    138          1           0        7.911337    0.738907    6.625273
    139          1           0        7.585512    1.945296    5.298221
    140          1           0        8.528096    2.357075    6.753949
 ---------------------------------------------------------------------

 SCF Done:  E(RZINDO/S) =  -474.008019778     A.U. after   19 cycles

 Excitation energies and oscillator strengths:

 Excited State   1:      Singlet-A      1.2827 eV  966.55 nm  f=0.5980  <S**2>=0.000
     175 ->178         0.20114
     176 ->177         0.65898
 This state for optimization and/or second-order correction.
 Total Energy, E(CIS/TDA) =  -473.960879636
 Copying the excited state density for this state as the 1-particle RhoCI density.

 Excited State   2:      Singlet-A      1.9044 eV  651.04 nm  f=0.0811  <S**2>=0.000
     175 ->177         0.56721
     176 ->178        -0.39386

 Excited State   3:      Singlet-A      2.9484 eV  420.51 nm  f=0.0182  <S**2>=0.000
     167 ->179        -0.10270
     168 ->177         0.32584
     168 ->178        -0.16215
     168 ->179        -0.37812
     168 ->181         0.19179
     168 ->182        -0.13122
     168 ->185        -0.20750

 Excited State   4:      Singlet-A      3.0328 eV  408.81 nm  f=0.0448  <S**2>=0.000
     168 ->181        -0.11925
     169 ->177         0.16874
     169 ->179         0.20626
     169 ->181         0.24762
     169 ->185         0.12383
     169 ->187        -0.12001
     170 ->177         0.17757
     170 ->178        -0.10342
     170 ->179         0.23381
     170 ->181         0.25894
     170 ->185         0.12836
     170 ->187        -0.12859
     176 ->178        -0.10500

 Excited State   5:      Singlet-A      3.0726 eV  403.52 nm  f=1.2056  <S**2>=0.000
     172 ->177        -0.11976
     175 ->177         0.36408
     176 ->178         0.54781

 The electronic state is 1-A.
 Alpha  occ. eigenvalues --   -1.86099  -1.82378  -1.79709  -1.73901  -1.71451
 Alpha  occ. eigenvalues --   -1.70501  -1.64367  -1.59828  -1.59427  -1.57637
 Alpha  occ. eigenvalues --   -1.52999  -1.49805  -1.49019  -1.48576  -1.45909
 Alpha  occ. eigenvalues --   -1.45182  -1.41549  -1.39834  -1.38797  -1.38663
 Alpha  occ. eigenvalues --   -1.36157  -1.32603  -1.31610  -1.30747  -1.28868
 Alpha  occ. eigenvalues --   -1.25226  -1.25062  -1.20723  -1.19805  -1.17978
 Alpha  occ. eigenvalues --   -1.17187  -1.15830  -1.14934  -1.14115  -1.13671
 Alpha  occ. eigenvalues --   -1.12810  -1.10346  -1.10048  -1.05503  -1.03679
 Alpha  occ. eigenvalues --   -1.03564  -1.01535  -0.99506  -0.97894  -0.96741
 Alpha  occ. eigenvalues --   -0.96143  -0.95471  -0.94463  -0.93131  -0.92894
 Alpha  occ. eigenvalues --   -0.90743  -0.90495  -0.89468  -0.89083  -0.86651
 Alpha  occ. eigenvalues --   -0.86410  -0.83160  -0.82447  -0.82094  -0.80667
 Alpha  occ. eigenvalues --   -0.79944  -0.78300  -0.77791  -0.76203  -0.75842
 Alpha  occ. eigenvalues --   -0.75420  -0.75187  -0.74860  -0.74227  -0.74165
 Alpha  occ. eigenvalues --   -0.72905  -0.72438  -0.71552  -0.71027  -0.70553
 Alpha  occ. eigenvalues --   -0.70031  -0.69661  -0.69525  -0.68607  -0.68223
 Alpha  occ. eigenvalues --   -0.68013  -0.67278  -0.66440  -0.66230  -0.66179
 Alpha  occ. eigenvalues --   -0.66160  -0.64843  -0.64308  -0.64163  -0.63704
 Alpha  occ. eigenvalues --   -0.63641  -0.63065  -0.62873  -0.62464  -0.61562
 Alpha  occ. eigenvalues --   -0.61470  -0.60647  -0.60096  -0.59992  -0.59925
 Alpha  occ. eigenvalues --   -0.59384  -0.59002  -0.58860  -0.58465  -0.57941
 Alpha  occ. eigenvalues --   -0.57766  -0.57616  -0.57216  -0.56904  -0.56412
 Alpha  occ. eigenvalues --   -0.55607  -0.55569  -0.55136  -0.54801  -0.54506
 Alpha  occ. eigenvalues --   -0.54329  -0.53824  -0.53679  -0.53635  -0.53219
 Alpha  occ. eigenvalues --   -0.52997  -0.52661  -0.52516  -0.51882  -0.51566
 Alpha  occ. eigenvalues --   -0.51260  -0.51143  -0.50989  -0.50886  -0.50589
 Alpha  occ. eigenvalues --   -0.50390  -0.49975  -0.49824  -0.49636  -0.49257
 Alpha  occ. eigenvalues --   -0.49143  -0.48788  -0.48400  -0.48179  -0.47989
 Alpha  occ. eigenvalues --   -0.47863  -0.47735  -0.47362  -0.47116  -0.47007
 Alpha  occ. eigenvalues --   -0.46600  -0.46398  -0.45961  -0.45672  -0.45648
 Alpha  occ. eigenvalues --   -0.45334  -0.45163  -0.44715  -0.44496  -0.44446
 Alpha  occ. eigenvalues --   -0.44031  -0.43347  -0.42886  -0.42722  -0.42269
 Alpha  occ. eigenvalues --   -0.42144  -0.41802  -0.40891  -0.39592  -0.38774
 Alpha  occ. eigenvalues --   -0.38740  -0.37099  -0.35656  -0.35395  -0.35040
 Alpha  occ. eigenvalues --   -0.33329  -0.33259  -0.32677  -0.32370  -0.26457
 Alpha  occ. eigenvalues --   -0.22194
 Alpha virt. eigenvalues --   -0.08759  -0.02272  -0.00752   0.01203   0.01333
 Alpha virt. eigenvalues --    0.02181   0.02672   0.03265   0.04426   0.05059
 Alpha virt. eigenvalues --    0.06205   0.06631   0.07107   0.07413   0.07879

 Mulliken charges:
               1
     1  Mg   0.423743
     2  C   -0.040346
     3  C   -0.082525
     4  C   -0.054965
     5  C   -0.079240
     6  N   -0.290593
     7  C    0.120158
     8  C    0.010879
     9  C   -0.005148
    10  C    0.112779
    11  C   -0.052060
    12  C   -0.009854
    13  C    0.000185
    14  C    0.458565
    15  O   -0.533710
    16  O   -0.269560
    17  N   -0.313695
    18  C    0.110666
    19  C    0.000540
    20  C   -0.051525
    21  C    0.124676
    22  C   -0.053194
    23  C    0.328771
    24  O   -0.529868
    25  C   -0.036277
    26  N   -0.250013
    27  C    0.118281
    28  C    0.005303
    29  C    0.004453
    30  C    0.138813
    31  C   -0.057901
    32  C   -0.017983
    33  C   -0.051779
    34  N   -0.343737
    35  C    0.130207
    36  C    0.033408
    37  C   -0.043535
    38  C    0.136104
    39  C   -0.042901
    40  C    0.337907
    41  O   -0.514850
    42  C    0.050314
    43  C    0.492579
    44  O   -0.505179
    45  O   -0.297289
    46  C    0.069505
    47  C    0.122398
    48  C   -0.068843
    49  C   -0.022411
    50  C   -0.049035
    51  C   -0.035371
    52  C   -0.040051
    53  C   -0.030925
    54  C   -0.016535
    55  C   -0.066066
    56  C   -0.042299
    57  C   -0.043351
    58  C   -0.044765
    59  C   -0.012083
    60  C   -0.070200
    61  C   -0.030767
    62  C   -0.042648
    63  C   -0.027822
    64  C   -0.005279
    65  C   -0.065124
    66  C   -0.062505
    67  H    0.022550
    68  H    0.037295
    69  H    0.027634
    70  H    0.038018
    71  H    0.035911
    72  H    0.012409
    73  H    0.024597
    74  H    0.035363
    75  H    0.035579
    76  H    0.030958
    77  H    0.040856
    78  H    0.033906
    79  H    0.021990
    80  H    0.027001
    81  H    0.031627
    82  H    0.043628
    83  H    0.029042
    84  H    0.035563
    85  H    0.040587
    86  H    0.039534
    87  H    0.022938
    88  H    0.018917
    89  H    0.016617
    90  H    0.022180
    91  H    0.020753
    92  H    0.022540
    93  H    0.019260
    94  H    0.015784
    95  H    0.029874
    96  H    0.027073
    97  H    0.036570
    98  H    0.048382
    99  H    0.055437
   100  H    0.044009
   101  H    0.053747
   102  H    0.064278
   103  H    0.033579
   104  H    0.044161
   105  H    0.020573
   106  H    0.023388
   107  H    0.031726
   108  H    0.030427
   109  H    0.015586
   110  H    0.025296
   111  H    0.022887
   112  H    0.015193
   113  H    0.016919
   114  H    0.024456
   115  H    0.023492
   116  H    0.018973
   117  H    0.022693
   118  H    0.025553
   119  H    0.014100
   120  H    0.030055
   121  H    0.017495
   122  H    0.015886
   123  H    0.020381
   124  H    0.025088
   125  H    0.019203
   126  H    0.016449
   127  H    0.020290
   128  H    0.010151
   129  H    0.031521
   130  H    0.020362
   131  H    0.014265
   132  H    0.020823
   133  H    0.007581
   134  H    0.024088
   135  H    0.014851
   136  H    0.017484
   137  H    0.013402
   138  H    0.024391
   139  H    0.025865
   140  H    0.012532
 Sum of Mulliken charges =  -0.00000

 Dipole moment (field-independent basis, Debye):
    X=              4.5749    Y=              0.5444    Z=             -0.2976  Tot=              4.6167
 N-N= 4.387980069285D+03 E-N= 0.000000000000D+00  KE=-9.449601497331D+03
 Leave Link  601 at Sun May  1 01:29:37 2022, MaxMem=  6710886400 cpu:               0.7 elap:               0.0
 (Enter /sw/apps/gaussian-16.0/g16/l9999.exe)
 1\1\GINC-BP1-COMPUTE137\SP\RZINDO CIS\STO-3G\C55H74Mg1N4O6\OF15641\01-
 May-2022\0\\#p ZINDO=(nstates=5)\\step_951_chromophore_27 ZINDO\\0,1\M
 g,0,-4.992,24.691,27.512\C,0,-3.455,26.725,29.976\C,0,-6.119,22.632,30
 .041\C,0,-6.069,22.668,25.164\C,0,-3.568,26.813,25.143\N,0,-4.86,24.71
 ,29.757\C,0,-4.27,25.712,30.533\C,0,-4.475,25.399,32.033\C,0,-5.077,23
 .921,32.078\C,0,-5.386,23.72,30.537\C,0,-4.159,22.691,32.497\C,0,-5.38
 7,26.477,32.661\C,0,-5.021,26.818,34.181\C,0,-6.025,26.561,35.376\O,0,

 Normal termination of Gaussian 16 at Sun May  1 01:29:37 2022.
