 Gaussian 16, Revision A.03,
 Gaussian 16:  ES64L-G16RevA.03 25-Dec-2016

 ------------------------------
 #p blyp/Def2SVP td=(nstates=5)
 ------------------------------

 --------------------------------------------------
 step_1801_chromophore_5 TDDFT with blyp functional
 --------------------------------------------------
 Symbolic Z-matrix:
 Charge =  0 Multiplicity = 1

                         Standard orientation:
 ---------------------------------------------------------------------
 Center     Atomic      Atomic             Coordinates (Angstroms)
 Number     Number       Type             X           Y           Z
 ---------------------------------------------------------------------
      1         12           0        5.785057    0.696776   -0.330735
      2          6           0        4.395078   -2.544005    0.018173
      3          6           0        2.938262    1.693599   -2.052603
      4          6           0        6.704852    3.894689    0.035465
      5          6           0        8.187272   -0.216481    1.998984
      6          7           0        3.742517   -0.222267   -0.759183
      7          6           0        3.444937   -1.618856   -0.610973
      8          6           0        2.174177   -2.049570   -1.309478
      9          6           0        1.907971   -0.730489   -2.132882
     10          6           0        2.835552    0.358836   -1.567634
     11          6           0        2.039071   -0.921590   -3.723522
     12          6           0        1.198988   -2.368076   -0.187485
     13          6           0        0.448158   -3.746143   -0.177030
     14          6           0       -1.059282   -3.694642   -0.628057
     15          8           0       -2.039496   -4.163622   -0.023170
     16          8           0       -1.209901   -2.885513   -1.780112
     17          7           0        4.958290    2.566272   -0.998979
     18          6           0        3.859626    2.735084   -1.743628
     19          6           0        3.750017    4.134323   -2.035107
     20          6           0        4.934951    4.765806   -1.547679
     21          6           0        5.609773    3.784494   -0.801423
     22          6           0        2.586529    4.694074   -2.883281
     23          6           0        5.222801    6.321283   -1.770247
     24          8           0        4.614240    6.983633   -2.568278
     25          6           0        6.471617    7.048591   -1.193658
     26          7           0        7.347228    1.709824    0.684490
     27          6           0        7.501554    3.042654    0.673659
     28          6           0        8.629939    3.462858    1.634927
     29          6           0        9.169555    2.147155    2.284246
     30          6           0        8.241887    1.095508    1.606899
     31          6           0        9.727841    4.221102    0.824336
     32          6           0        9.103076    2.167126    3.857227
     33          6           0       10.369256    1.614624    4.496311
     34          7           0        6.442861   -1.159203    0.593364
     35          6           0        7.402698   -1.297032    1.570464
     36          6           0        7.221375   -2.638557    2.142543
     37          6           0        6.243813   -3.271143    1.424314
     38          6           0        5.664039   -2.259529    0.578873
     39          6           0        7.977854   -3.163342    3.298215
     40          6           0        5.445970   -4.482794    1.244916
     41          8           0        5.560956   -5.586337    1.782774
     42          6           0        4.305153   -4.125012    0.240737
     43          6           0        4.398250   -4.949186   -0.999956
     44          8           0        5.195688   -4.805140   -1.863052
     45          8           0        3.242986   -5.690214   -1.080148
     46          6           0        2.960485   -6.297710   -2.373400
     47          6           0       -2.622692   -2.683189   -2.241670
     48          6           0       -3.283356   -1.744675   -1.246177
     49          6           0       -4.594815   -1.699245   -0.911224
     50          6           0       -5.663855   -2.495621   -1.670447
     51          6           0       -5.021703   -0.661272    0.047194
     52          6           0       -5.947307    0.403920   -0.543954
     53          6           0       -7.378289    0.216061   -0.103225
     54          6           0       -7.838183    1.473515    0.789927
     55          6           0       -7.204616    1.538760    2.227753
     56          6           0       -9.359783    1.570406    0.816506
     57          6           0      -10.142303    0.429803    1.506252
     58          6           0      -11.136782   -0.281806    0.610109
     59          6           0      -12.389598    0.591948    0.364731
     60          6           0      -12.630017    0.832453   -1.162992
     61          6           0      -13.577635   -0.090015    1.018890
     62          6           0      -14.622498    0.976102    1.311005
     63          6           0      -16.019854    0.640720    0.836980
     64          6           0      -17.088549    1.715526    1.195174
     65          6           0      -17.921833    1.372736    2.486173
     66          6           0      -18.041764    2.187080    0.066136
     67          1           0        2.117804    1.974414   -2.716184
     68          1           0        7.053486    4.928780    0.096391
     69          1           0        8.877034   -0.432606    2.817668
     70          1           0        2.435251   -2.974589   -1.822180
     71          1           0        0.896986   -0.389989   -1.908737
     72          1           0        2.253217   -1.953104   -4.006486
     73          1           0        2.866453   -0.300517   -4.066088
     74          1           0        1.070566   -0.728197   -4.185023
     75          1           0        0.396450   -1.631006   -0.212316
     76          1           0        1.650735   -2.243928    0.796587
     77          1           0        0.447221   -4.010565    0.880289
     78          1           0        1.095068   -4.440157   -0.714415
     79          1           0        2.277039    5.683443   -2.543507
     80          1           0        1.744221    4.003675   -2.920715
     81          1           0        2.956165    4.752534   -3.907601
     82          1           0        7.388764    6.525566   -1.464495
     83          1           0        6.322872    7.062654   -0.113555
     84          1           0        6.548209    8.025691   -1.670705
     85          1           0        8.155411    4.126009    2.358048
     86          1           0       10.178751    1.879271    1.972137
     87          1           0        9.619659    5.296735    0.963776
     88          1           0        9.458709    4.133586   -0.228263
     89          1           0       10.681998    3.901095    1.243166
     90          1           0        8.201803    1.656667    4.196673
     91          1           0        8.957035    3.165123    4.271325
     92          1           0       10.488034    2.106576    5.461371
     93          1           0       11.199281    1.703918    3.795358
     94          1           0       10.171726    0.564635    4.716580
     95          1           0        8.024921   -4.245290    3.177485
     96          1           0        7.369683   -3.023158    4.191559
     97          1           0        8.990649   -2.771229    3.386300
     98          1           0        3.315257   -4.268341    0.675383
     99          1           0        1.894577   -6.512850   -2.296678
    100          1           0        3.385206   -7.300312   -2.397265
    101          1           0        3.179616   -5.728573   -3.277266
    102          1           0       -3.078996   -3.672625   -2.259481
    103          1           0       -2.588156   -2.162107   -3.198875
    104          1           0       -2.702680   -0.996857   -0.704642
    105          1           0       -5.280740   -3.130324   -2.469412
    106          1           0       -6.421862   -1.796622   -2.024016
    107          1           0       -6.081236   -3.150654   -0.904496
    108          1           0       -4.244536    0.076733    0.248201
    109          1           0       -5.535233   -1.041573    0.930069
    110          1           0       -5.999207    0.390022   -1.632898
    111          1           0       -5.545802    1.389709   -0.308199
    112          1           0       -7.516282   -0.714392    0.448434
    113          1           0       -8.104395    0.254926   -0.914779
    114          1           0       -7.711700    2.444531    0.310456
    115          1           0       -6.400204    2.257210    2.073164
    116          1           0       -6.684691    0.638703    2.554598
    117          1           0       -7.864470    1.898287    3.016638
    118          1           0       -9.740811    1.792506   -0.181010
    119          1           0       -9.648966    2.498739    1.310825
    120          1           0      -10.825299    0.715800    2.306221
    121          1           0       -9.469527   -0.296950    1.960774
    122          1           0      -11.371640   -1.281837    0.974693
    123          1           0      -10.580393   -0.434092   -0.315362
    124          1           0      -12.247789    1.531748    0.898998
    125          1           0      -12.795221    1.908572   -1.204246
    126          1           0      -13.590243    0.400676   -1.441703
    127          1           0      -11.834178    0.503374   -1.831731
    128          1           0      -13.255688   -0.486362    1.981979
    129          1           0      -13.919338   -0.964131    0.465394
    130          1           0      -14.420054    1.917891    0.800848
    131          1           0      -14.803380    1.294765    2.338010
    132          1           0      -16.321778   -0.146673    1.527639
    133          1           0      -16.141084    0.316559   -0.196293
    134          1           0      -16.547047    2.606913    1.513069
    135          1           0      -17.123314    1.145610    3.191350
    136          1           0      -18.579128    0.508853    2.381906
    137          1           0      -18.529368    2.267363    2.615781
    138          1           0      -19.016490    2.538558    0.403444
    139          1           0      -18.380655    1.385937   -0.591220
    140          1           0      -17.707003    3.003958   -0.572202
 ---------------------------------------------------------------------

 SCF Done:  E(RB-LYP) =  -3007.34250895     A.U. after   21 cycles

 Excitation energies and oscillator strengths:

 Excited State   1:      Singlet-A      1.8385 eV  674.39 nm  f=0.3065  <S**2>=0.000
     245 -> 248       -0.19543
     246 -> 247        0.68815
     246 <- 247       -0.14814
 This state for optimization and/or second-order correction.
 Total Energy, E(TD-HF/TD-DFT) =  -3007.27494633
 Copying the excited state density for this state as the 1-particle RhoCI density.

 Excited State   2:      Singlet-A      1.9494 eV  636.01 nm  f=0.0023  <S**2>=0.000
     244 -> 247        0.68827
     245 -> 247        0.14136

 Excited State   3:      Singlet-A      1.9856 eV  624.41 nm  f=0.0418  <S**2>=0.000
     243 -> 247       -0.34825
     244 -> 247       -0.15917
     245 -> 247        0.55675
     246 -> 248        0.18292

 Excited State   4:      Singlet-A      2.1371 eV  580.14 nm  f=0.0235  <S**2>=0.000
     243 -> 247        0.60637
     245 -> 247        0.30050
     246 -> 248        0.17578

 Excited State   5:      Singlet-A      2.2036 eV  562.64 nm  f=0.0011  <S**2>=0.000
     242 -> 247        0.70427

 The electronic state is 1-A.
 Alpha  occ. eigenvalues --  -46.28350 -18.82905 -18.81891 -18.77629 -18.77458
 Alpha  occ. eigenvalues --  -18.76114 -18.76101 -14.03795 -14.03099 -14.01152
 Alpha  occ. eigenvalues --  -14.00465 -10.04878 -10.04281 -10.00542 -10.00197
 Alpha  occ. eigenvalues --   -9.98621  -9.98287  -9.97771  -9.96930  -9.96653
 Alpha  occ. eigenvalues --   -9.95781  -9.95727  -9.95488  -9.95161  -9.94978
 Alpha  occ. eigenvalues --   -9.94956  -9.94766  -9.94538  -9.94404  -9.94393
 Alpha  occ. eigenvalues --   -9.94254  -9.93951  -9.93645  -9.93419  -9.93280
 Alpha  occ. eigenvalues --   -9.93259  -9.92936  -9.92933  -9.92794  -9.92673
 Alpha  occ. eigenvalues --   -9.92671  -9.92452  -9.92390  -9.92302  -9.92266
 Alpha  occ. eigenvalues --   -9.92225  -9.92156  -9.91898  -9.91877  -9.91817
 Alpha  occ. eigenvalues --   -9.91530  -9.91479  -9.91404  -9.91380  -9.91286
 Alpha  occ. eigenvalues --   -9.91245  -9.91143  -9.90947  -9.90917  -9.90886
 Alpha  occ. eigenvalues --   -9.90769  -9.90716  -9.90581  -9.90558  -9.90438
 Alpha  occ. eigenvalues --   -9.89999  -2.92682  -1.73117  -1.72552  -1.72402
 Alpha  occ. eigenvalues --   -0.99301  -0.96043  -0.92959  -0.92013  -0.91045
 Alpha  occ. eigenvalues --   -0.88748  -0.86283  -0.85832  -0.85156  -0.84629
 Alpha  occ. eigenvalues --   -0.74984  -0.74182  -0.73516  -0.73100  -0.72869
 Alpha  occ. eigenvalues --   -0.71936  -0.71922  -0.70755  -0.70632  -0.70205
 Alpha  occ. eigenvalues --   -0.68940  -0.68625  -0.68438  -0.68112  -0.67632
 Alpha  occ. eigenvalues --   -0.66624  -0.66286  -0.65463  -0.64669  -0.64313
 Alpha  occ. eigenvalues --   -0.63769  -0.62468  -0.62384  -0.61638  -0.61205
 Alpha  occ. eigenvalues --   -0.60764  -0.60060  -0.59799  -0.59604  -0.59304
 Alpha  occ. eigenvalues --   -0.57914  -0.57744  -0.56935  -0.55735  -0.54623
 Alpha  occ. eigenvalues --   -0.54280  -0.53982  -0.52750  -0.52377  -0.52052
 Alpha  occ. eigenvalues --   -0.51367  -0.51198  -0.51036  -0.50728  -0.49948
 Alpha  occ. eigenvalues --   -0.49107  -0.48926  -0.48544  -0.47572  -0.46466
 Alpha  occ. eigenvalues --   -0.46186  -0.45831  -0.45584  -0.45463  -0.44860
 Alpha  occ. eigenvalues --   -0.44412  -0.44215  -0.43129  -0.42920  -0.42364
 Alpha  occ. eigenvalues --   -0.42232  -0.42173  -0.41867  -0.41303  -0.41216
 Alpha  occ. eigenvalues --   -0.41136  -0.40877  -0.40526  -0.40482  -0.40271
 Alpha  occ. eigenvalues --   -0.39758  -0.39633  -0.39363  -0.39286  -0.39138
 Alpha  occ. eigenvalues --   -0.39023  -0.38742  -0.38666  -0.38490  -0.38458
 Alpha  occ. eigenvalues --   -0.38265  -0.37692  -0.37613  -0.37475  -0.37355
 Alpha  occ. eigenvalues --   -0.37322  -0.36929  -0.36902  -0.36794  -0.36647
 Alpha  occ. eigenvalues --   -0.36336  -0.36255  -0.35954  -0.35912  -0.35615
 Alpha  occ. eigenvalues --   -0.35506  -0.35364  -0.34962  -0.34734  -0.34696
 Alpha  occ. eigenvalues --   -0.34625  -0.34436  -0.34266  -0.34171  -0.34108
 Alpha  occ. eigenvalues --   -0.33973  -0.33904  -0.33732  -0.33635  -0.33531
 Alpha  occ. eigenvalues --   -0.33423  -0.33178  -0.32806  -0.32391  -0.32286
 Alpha  occ. eigenvalues --   -0.32166  -0.32051  -0.31922  -0.31770  -0.31456
 Alpha  occ. eigenvalues --   -0.31404  -0.31283  -0.30984  -0.30969  -0.30852
 Alpha  occ. eigenvalues --   -0.30765  -0.30602  -0.30469  -0.30328  -0.30106
 Alpha  occ. eigenvalues --   -0.29971  -0.29721  -0.29540  -0.29348  -0.29118
 Alpha  occ. eigenvalues --   -0.28725  -0.28682  -0.28442  -0.27870  -0.27668
 Alpha  occ. eigenvalues --   -0.27528  -0.27005  -0.26789  -0.26516  -0.26101
 Alpha  occ. eigenvalues --   -0.26005  -0.25980  -0.25937  -0.25520  -0.25205
 Alpha  occ. eigenvalues --   -0.24983  -0.24854  -0.24189  -0.24080  -0.23915
 Alpha  occ. eigenvalues --   -0.23475  -0.23167  -0.22475  -0.22021  -0.20994
 Alpha  occ. eigenvalues --   -0.20088  -0.19711  -0.19187  -0.18739  -0.17405
 Alpha  occ. eigenvalues --   -0.15984
 Alpha virt. eigenvalues --   -0.11622  -0.06985  -0.06351  -0.04788  -0.03922
 Alpha virt. eigenvalues --   -0.03289  -0.02840  -0.01533  -0.01389   0.00081
 Alpha virt. eigenvalues --    0.00832   0.01636   0.02253   0.02402   0.02580

 Mulliken charges:
               1
     1  Mg   0.670611
     2  C    0.000359
     3  C   -0.060924
     4  C   -0.032547
     5  C   -0.045142
     6  N   -0.217465
     7  C   -0.086771
     8  C    0.028578
     9  C    0.056826
    10  C    0.006823
    11  C    0.120429
    12  C    0.080843
    13  C    0.108137
    14  C    0.115713
    15  O   -0.192110
    16  O   -0.316139
    17  N   -0.265825
    18  C    0.127985
    19  C   -0.156506
    20  C    0.027339
    21  C    0.119032
    22  C    0.180209
    23  C   -0.066897
    24  O   -0.143793
    25  C    0.120941
    26  N   -0.262482
    27  C    0.006300
    28  C    0.003246
    29  C    0.064651
    30  C    0.006144
    31  C    0.124490
    32  C    0.069054
    33  C    0.073140
    34  N   -0.235194
    35  C    0.118801
    36  C   -0.205623
    37  C    0.117236
    38  C    0.034783
    39  C    0.179398
    40  C   -0.022334
    41  O   -0.139079
    42  C    0.040567
    43  C    0.122457
    44  O   -0.133712
    45  O   -0.277765
    46  C    0.211083
    47  C    0.349279
    48  C   -0.130750
    49  C   -0.134982
    50  C    0.146782
    51  C    0.154310
    52  C    0.061663
    53  C    0.083801
    54  C   -0.062061
    55  C    0.105344
    56  C    0.071378
    57  C    0.072132
    58  C    0.115695
    59  C   -0.131649
    60  C    0.128482
    61  C    0.171298
    62  C    0.040595
    63  C    0.113924
    64  C   -0.089590
    65  C    0.081633
    66  C    0.092848
    67  H   -0.062005
    68  H   -0.113796
    69  H   -0.079460
    70  H   -0.013338
    71  H   -0.027552
    72  H   -0.009954
    73  H    0.005381
    74  H   -0.001581
    75  H   -0.021456
    76  H   -0.002801
    77  H   -0.001436
    78  H    0.017895
    79  H    0.009962
    80  H   -0.020963
    81  H    0.005111
    82  H    0.012960
    83  H    0.017457
    84  H   -0.004170
    85  H   -0.014887
    86  H   -0.019852
    87  H   -0.015596
    88  H    0.003598
    89  H    0.001023
    90  H   -0.019801
    91  H   -0.022891
    92  H   -0.009862
    93  H    0.000885
    94  H   -0.003262
    95  H    0.001697
    96  H    0.003659
    97  H   -0.000310
    98  H   -0.008803
    99  H    0.006414
   100  H    0.014986
   101  H    0.029138
   102  H    0.014994
   103  H    0.006074
   104  H   -0.042278
   105  H   -0.015119
   106  H    0.005338
   107  H   -0.002687
   108  H   -0.035976
   109  H   -0.012112
   110  H   -0.030986
   111  H   -0.027522
   112  H   -0.017318
   113  H   -0.031873
   114  H   -0.037845
   115  H   -0.018702
   116  H   -0.014013
   117  H   -0.006011
   118  H   -0.040365
   119  H   -0.047664
   120  H   -0.044198
   121  H   -0.039677
   122  H   -0.042443
   123  H   -0.056769
   124  H   -0.024224
   125  H   -0.018816
   126  H   -0.020417
   127  H   -0.002694
   128  H   -0.044476
   129  H   -0.027610
   130  H   -0.030456
   131  H   -0.030245
   132  H   -0.053484
   133  H   -0.031252
   134  H   -0.043609
   135  H   -0.013367
   136  H   -0.009682
   137  H   -0.003229
   138  H   -0.038509
   139  H   -0.025953
   140  H   -0.016217
 Sum of Mulliken charges =  -0.00000

 Dipole moment (field-independent basis, Debye):
    X=              0.0292    Y=              2.4800    Z=             -0.3147  Tot=              2.5000
 Quadrupole moment (field-independent basis, Debye-Ang):
   XX=           -382.8725   YY=           -444.4905   ZZ=           -397.6019
   XY=             24.6089   XZ=             24.2834   YZ=             31.9669

 Normal termination of Gaussian 16 at Fri Apr 29 02:51:18 2022.
