 Gaussian 16, Revision A.03,
 Gaussian 16:  ES64L-G16RevA.03 25-Dec-2016

 -----------------------------------
 #p cam-b3lyp/Def2SVP td=(nstates=5)
 -----------------------------------

 -------------------------------------------------------
 step_1801_chromophore_5 TDDFT with cam-b3lyp functional
 -------------------------------------------------------
 Symbolic Z-matrix:
 Charge =  0 Multiplicity = 1

                         Standard orientation:
 ---------------------------------------------------------------------
 Center     Atomic      Atomic             Coordinates (Angstroms)
 Number     Number       Type             X           Y           Z
 ---------------------------------------------------------------------
      1         12           0        5.785057    0.696776   -0.330735
      2          6           0        4.395078   -2.544005    0.018173
      3          6           0        2.938262    1.693599   -2.052603
      4          6           0        6.704852    3.894689    0.035465
      5          6           0        8.187272   -0.216481    1.998984
      6          7           0        3.742517   -0.222267   -0.759183
      7          6           0        3.444937   -1.618856   -0.610973
      8          6           0        2.174177   -2.049570   -1.309478
      9          6           0        1.907971   -0.730489   -2.132882
     10          6           0        2.835552    0.358836   -1.567634
     11          6           0        2.039071   -0.921590   -3.723522
     12          6           0        1.198988   -2.368076   -0.187485
     13          6           0        0.448158   -3.746143   -0.177030
     14          6           0       -1.059282   -3.694642   -0.628057
     15          8           0       -2.039496   -4.163622   -0.023170
     16          8           0       -1.209901   -2.885513   -1.780112
     17          7           0        4.958290    2.566272   -0.998979
     18          6           0        3.859626    2.735084   -1.743628
     19          6           0        3.750017    4.134323   -2.035107
     20          6           0        4.934951    4.765806   -1.547679
     21          6           0        5.609773    3.784494   -0.801423
     22          6           0        2.586529    4.694074   -2.883281
     23          6           0        5.222801    6.321283   -1.770247
     24          8           0        4.614240    6.983633   -2.568278
     25          6           0        6.471617    7.048591   -1.193658
     26          7           0        7.347228    1.709824    0.684490
     27          6           0        7.501554    3.042654    0.673659
     28          6           0        8.629939    3.462858    1.634927
     29          6           0        9.169555    2.147155    2.284246
     30          6           0        8.241887    1.095508    1.606899
     31          6           0        9.727841    4.221102    0.824336
     32          6           0        9.103076    2.167126    3.857227
     33          6           0       10.369256    1.614624    4.496311
     34          7           0        6.442861   -1.159203    0.593364
     35          6           0        7.402698   -1.297032    1.570464
     36          6           0        7.221375   -2.638557    2.142543
     37          6           0        6.243813   -3.271143    1.424314
     38          6           0        5.664039   -2.259529    0.578873
     39          6           0        7.977854   -3.163342    3.298215
     40          6           0        5.445970   -4.482794    1.244916
     41          8           0        5.560956   -5.586337    1.782774
     42          6           0        4.305153   -4.125012    0.240737
     43          6           0        4.398250   -4.949186   -0.999956
     44          8           0        5.195688   -4.805140   -1.863052
     45          8           0        3.242986   -5.690214   -1.080148
     46          6           0        2.960485   -6.297710   -2.373400
     47          6           0       -2.622692   -2.683189   -2.241670
     48          6           0       -3.283356   -1.744675   -1.246177
     49          6           0       -4.594815   -1.699245   -0.911224
     50          6           0       -5.663855   -2.495621   -1.670447
     51          6           0       -5.021703   -0.661272    0.047194
     52          6           0       -5.947307    0.403920   -0.543954
     53          6           0       -7.378289    0.216061   -0.103225
     54          6           0       -7.838183    1.473515    0.789927
     55          6           0       -7.204616    1.538760    2.227753
     56          6           0       -9.359783    1.570406    0.816506
     57          6           0      -10.142303    0.429803    1.506252
     58          6           0      -11.136782   -0.281806    0.610109
     59          6           0      -12.389598    0.591948    0.364731
     60          6           0      -12.630017    0.832453   -1.162992
     61          6           0      -13.577635   -0.090015    1.018890
     62          6           0      -14.622498    0.976102    1.311005
     63          6           0      -16.019854    0.640720    0.836980
     64          6           0      -17.088549    1.715526    1.195174
     65          6           0      -17.921833    1.372736    2.486173
     66          6           0      -18.041764    2.187080    0.066136
     67          1           0        2.117804    1.974414   -2.716184
     68          1           0        7.053486    4.928780    0.096391
     69          1           0        8.877034   -0.432606    2.817668
     70          1           0        2.435251   -2.974589   -1.822180
     71          1           0        0.896986   -0.389989   -1.908737
     72          1           0        2.253217   -1.953104   -4.006486
     73          1           0        2.866453   -0.300517   -4.066088
     74          1           0        1.070566   -0.728197   -4.185023
     75          1           0        0.396450   -1.631006   -0.212316
     76          1           0        1.650735   -2.243928    0.796587
     77          1           0        0.447221   -4.010565    0.880289
     78          1           0        1.095068   -4.440157   -0.714415
     79          1           0        2.277039    5.683443   -2.543507
     80          1           0        1.744221    4.003675   -2.920715
     81          1           0        2.956165    4.752534   -3.907601
     82          1           0        7.388764    6.525566   -1.464495
     83          1           0        6.322872    7.062654   -0.113555
     84          1           0        6.548209    8.025691   -1.670705
     85          1           0        8.155411    4.126009    2.358048
     86          1           0       10.178751    1.879271    1.972137
     87          1           0        9.619659    5.296735    0.963776
     88          1           0        9.458709    4.133586   -0.228263
     89          1           0       10.681998    3.901095    1.243166
     90          1           0        8.201803    1.656667    4.196673
     91          1           0        8.957035    3.165123    4.271325
     92          1           0       10.488034    2.106576    5.461371
     93          1           0       11.199281    1.703918    3.795358
     94          1           0       10.171726    0.564635    4.716580
     95          1           0        8.024921   -4.245290    3.177485
     96          1           0        7.369683   -3.023158    4.191559
     97          1           0        8.990649   -2.771229    3.386300
     98          1           0        3.315257   -4.268341    0.675383
     99          1           0        1.894577   -6.512850   -2.296678
    100          1           0        3.385206   -7.300312   -2.397265
    101          1           0        3.179616   -5.728573   -3.277266
    102          1           0       -3.078996   -3.672625   -2.259481
    103          1           0       -2.588156   -2.162107   -3.198875
    104          1           0       -2.702680   -0.996857   -0.704642
    105          1           0       -5.280740   -3.130324   -2.469412
    106          1           0       -6.421862   -1.796622   -2.024016
    107          1           0       -6.081236   -3.150654   -0.904496
    108          1           0       -4.244536    0.076733    0.248201
    109          1           0       -5.535233   -1.041573    0.930069
    110          1           0       -5.999207    0.390022   -1.632898
    111          1           0       -5.545802    1.389709   -0.308199
    112          1           0       -7.516282   -0.714392    0.448434
    113          1           0       -8.104395    0.254926   -0.914779
    114          1           0       -7.711700    2.444531    0.310456
    115          1           0       -6.400204    2.257210    2.073164
    116          1           0       -6.684691    0.638703    2.554598
    117          1           0       -7.864470    1.898287    3.016638
    118          1           0       -9.740811    1.792506   -0.181010
    119          1           0       -9.648966    2.498739    1.310825
    120          1           0      -10.825299    0.715800    2.306221
    121          1           0       -9.469527   -0.296950    1.960774
    122          1           0      -11.371640   -1.281837    0.974693
    123          1           0      -10.580393   -0.434092   -0.315362
    124          1           0      -12.247789    1.531748    0.898998
    125          1           0      -12.795221    1.908572   -1.204246
    126          1           0      -13.590243    0.400676   -1.441703
    127          1           0      -11.834178    0.503374   -1.831731
    128          1           0      -13.255688   -0.486362    1.981979
    129          1           0      -13.919338   -0.964131    0.465394
    130          1           0      -14.420054    1.917891    0.800848
    131          1           0      -14.803380    1.294765    2.338010
    132          1           0      -16.321778   -0.146673    1.527639
    133          1           0      -16.141084    0.316559   -0.196293
    134          1           0      -16.547047    2.606913    1.513069
    135          1           0      -17.123314    1.145610    3.191350
    136          1           0      -18.579128    0.508853    2.381906
    137          1           0      -18.529368    2.267363    2.615781
    138          1           0      -19.016490    2.538558    0.403444
    139          1           0      -18.380655    1.385937   -0.591220
    140          1           0      -17.707003    3.003958   -0.572202
 ---------------------------------------------------------------------

 SCF Done:  E(RCAM-B3LYP) =  -3007.13201823     A.U. after   19 cycles

 Excitation energies and oscillator strengths:

 Excited State   1:      Singlet-A      1.7236 eV  719.34 nm  f=0.3832  <S**2>=0.000
     245 -> 248       -0.18517
     246 -> 247        0.68497
     245 <- 248       -0.10930
 This state for optimization and/or second-order correction.
 Total Energy, E(TD-HF/TD-DFT) =  -3007.06867801
 Copying the excited state density for this state as the 1-particle RhoCI density.

 Excited State   2:      Singlet-A      2.2402 eV  553.45 nm  f=0.0953  <S**2>=0.000
     245 -> 247        0.63589
     246 -> 248        0.29593

 Excited State   3:      Singlet-A      3.2457 eV  382.00 nm  f=0.0034  <S**2>=0.000
     243 -> 247        0.66664
     244 -> 247       -0.11746
     246 -> 248       -0.14973

 Excited State   4:      Singlet-A      3.4875 eV  355.51 nm  f=0.2253  <S**2>=0.000
     239 -> 249       -0.11600
     240 -> 247       -0.16255
     240 -> 249       -0.11928
     242 -> 247        0.44438
     243 -> 247       -0.10933
     245 -> 247        0.16167
     246 -> 248       -0.41743

 Excited State   5:      Singlet-A      3.6499 eV  339.69 nm  f=0.6119  <S**2>=0.000
     239 -> 247       -0.16802
     239 -> 249       -0.16295
     240 -> 247       -0.21901
     240 -> 249       -0.16738
     242 -> 247        0.27251
     245 -> 247       -0.24325
     246 -> 248        0.43739

 The electronic state is 1-A.
 Alpha  occ. eigenvalues --  -46.90010 -19.25891 -19.24727 -19.20824 -19.20472
 Alpha  occ. eigenvalues --  -19.19381 -19.19351 -14.42821 -14.41931 -14.39581
 Alpha  occ. eigenvalues --  -14.38918 -10.40325 -10.39701 -10.35796 -10.35595
 Alpha  occ. eigenvalues --  -10.32719 -10.32370 -10.32303 -10.31494 -10.31030
 Alpha  occ. eigenvalues --  -10.30246 -10.30040 -10.29857 -10.29536 -10.29427
 Alpha  occ. eigenvalues --  -10.29206 -10.28860 -10.28817 -10.28555 -10.28342
 Alpha  occ. eigenvalues --  -10.28319 -10.28115 -10.27970 -10.27914 -10.27505
 Alpha  occ. eigenvalues --  -10.27177 -10.27177 -10.26781 -10.26675 -10.26643
 Alpha  occ. eigenvalues --  -10.26547 -10.26410 -10.26336 -10.26071 -10.26045
 Alpha  occ. eigenvalues --  -10.25874 -10.25820 -10.25797 -10.25776 -10.25654
 Alpha  occ. eigenvalues --  -10.25340 -10.25309 -10.25196 -10.25174 -10.25099
 Alpha  occ. eigenvalues --  -10.24915 -10.24742 -10.24588 -10.24545 -10.24532
 Alpha  occ. eigenvalues --  -10.24385 -10.24373 -10.24223 -10.24214 -10.24075
 Alpha  occ. eigenvalues --  -10.23643  -3.18231  -1.93148  -1.92670  -1.92526
 Alpha  occ. eigenvalues --   -1.17981  -1.14419  -1.11468  -1.10062  -1.09470
 Alpha  occ. eigenvalues --   -1.06518  -1.03978  -1.03473  -1.02823  -1.02181
 Alpha  occ. eigenvalues --   -0.92100  -0.91089  -0.90377  -0.89880  -0.89621
 Alpha  occ. eigenvalues --   -0.88643  -0.88556  -0.87349  -0.87192  -0.86716
 Alpha  occ. eigenvalues --   -0.85318  -0.85205  -0.84714  -0.84288  -0.83827
 Alpha  occ. eigenvalues --   -0.82678  -0.82264  -0.81364  -0.80756  -0.80169
 Alpha  occ. eigenvalues --   -0.79482  -0.78100  -0.77927  -0.77245  -0.76634
 Alpha  occ. eigenvalues --   -0.76210  -0.75419  -0.75142  -0.74892  -0.74570
 Alpha  occ. eigenvalues --   -0.72925  -0.72730  -0.71843  -0.70555  -0.69219
 Alpha  occ. eigenvalues --   -0.68895  -0.68627  -0.67191  -0.66697  -0.66203
 Alpha  occ. eigenvalues --   -0.65647  -0.65490  -0.65100  -0.64656  -0.64024
 Alpha  occ. eigenvalues --   -0.62887  -0.62581  -0.62463  -0.61305  -0.60154
 Alpha  occ. eigenvalues --   -0.59649  -0.59443  -0.59140  -0.58872  -0.58516
 Alpha  occ. eigenvalues --   -0.57810  -0.57636  -0.56448  -0.56161  -0.55659
 Alpha  occ. eigenvalues --   -0.55432  -0.55132  -0.54729  -0.54375  -0.54184
 Alpha  occ. eigenvalues --   -0.53817  -0.53671  -0.53256  -0.53171  -0.52999
 Alpha  occ. eigenvalues --   -0.52343  -0.52320  -0.52169  -0.52060  -0.51671
 Alpha  occ. eigenvalues --   -0.51601  -0.51354  -0.51291  -0.51065  -0.50849
 Alpha  occ. eigenvalues --   -0.50629  -0.50052  -0.49889  -0.49840  -0.49735
 Alpha  occ. eigenvalues --   -0.49592  -0.49398  -0.49062  -0.49009  -0.48960
 Alpha  occ. eigenvalues --   -0.48843  -0.48700  -0.48343  -0.48217  -0.47831
 Alpha  occ. eigenvalues --   -0.47574  -0.47213  -0.46916  -0.46854  -0.46811
 Alpha  occ. eigenvalues --   -0.46407  -0.46219  -0.46191  -0.46121  -0.45879
 Alpha  occ. eigenvalues --   -0.45814  -0.45596  -0.45455  -0.45406  -0.45301
 Alpha  occ. eigenvalues --   -0.45237  -0.44911  -0.44481  -0.44293  -0.43964
 Alpha  occ. eigenvalues --   -0.43842  -0.43824  -0.43529  -0.43318  -0.43003
 Alpha  occ. eigenvalues --   -0.42994  -0.42902  -0.42656  -0.42308  -0.42229
 Alpha  occ. eigenvalues --   -0.42046  -0.41897  -0.41801  -0.41737  -0.41407
 Alpha  occ. eigenvalues --   -0.41250  -0.41112  -0.40747  -0.40586  -0.40210
 Alpha  occ. eigenvalues --   -0.39869  -0.39723  -0.39365  -0.38892  -0.38674
 Alpha  occ. eigenvalues --   -0.38434  -0.37841  -0.37793  -0.37358  -0.37310
 Alpha  occ. eigenvalues --   -0.37223  -0.36771  -0.36707  -0.36674  -0.36292
 Alpha  occ. eigenvalues --   -0.35712  -0.35499  -0.35423  -0.34690  -0.34559
 Alpha  occ. eigenvalues --   -0.34377  -0.34261  -0.33460  -0.31687  -0.31204
 Alpha  occ. eigenvalues --   -0.30816  -0.30205  -0.29484  -0.29343  -0.24265
 Alpha  occ. eigenvalues --   -0.21284
 Alpha virt. eigenvalues --   -0.08744  -0.01900   0.00220   0.02139   0.02459
 Alpha virt. eigenvalues --    0.04014   0.04481   0.05407   0.06111   0.06458
 Alpha virt. eigenvalues --    0.07797   0.08327   0.08534   0.08647   0.08767

 Mulliken charges:
               1
     1  Mg   0.799524
     2  C   -0.022999
     3  C   -0.078935
     4  C   -0.055905
     5  C   -0.062051
     6  N   -0.281259
     7  C   -0.047238
     8  C   -0.021026
     9  C   -0.001813
    10  C    0.031993
    11  C    0.064285
    12  C    0.033430
    13  C    0.043216
    14  C    0.196195
    15  O   -0.232425
    16  O   -0.381969
    17  N   -0.354174
    18  C    0.138005
    19  C   -0.163096
    20  C   -0.040182
    21  C    0.149163
    22  C    0.128225
    23  C    0.009963
    24  O   -0.181482
    25  C    0.042213
    26  N   -0.337270
    27  C    0.030650
    28  C   -0.049913
    29  C    0.006629
    30  C    0.033729
    31  C    0.067741
    32  C    0.011581
    33  C    0.011283
    34  N   -0.321014
    35  C    0.128038
    36  C   -0.203589
    37  C    0.040969
    38  C    0.073148
    39  C    0.122911
    40  C    0.072609
    41  O   -0.177596
    42  C   -0.030710
    43  C    0.209084
    44  O   -0.168621
    45  O   -0.342653
    46  C    0.169763
    47  C    0.315191
    48  C   -0.152693
    49  C   -0.152243
    50  C    0.088247
    51  C    0.091213
    52  C    0.004211
    53  C    0.028937
    54  C   -0.110157
    55  C    0.043509
    56  C    0.018556
    57  C    0.014660
    58  C    0.067266
    59  C   -0.189334
    60  C    0.070982
    61  C    0.110356
    62  C   -0.008239
    63  C    0.057377
    64  C   -0.151712
    65  C    0.029869
    66  C    0.033852
    67  H   -0.026300
    68  H   -0.078324
    69  H   -0.045905
    70  H    0.016711
    71  H    0.007910
    72  H    0.014534
    73  H    0.029837
    74  H    0.022233
    75  H    0.008392
    76  H    0.029404
    77  H    0.032503
    78  H    0.043696
    79  H    0.037542
    80  H    0.004156
    81  H    0.032707
    82  H    0.037747
    83  H    0.041724
    84  H    0.031210
    85  H    0.019343
    86  H    0.014285
    87  H    0.008009
    88  H    0.028698
    89  H    0.025393
    90  H    0.011291
    91  H    0.005821
    92  H    0.015707
    93  H    0.022366
    94  H    0.017901
    95  H    0.029294
    96  H    0.030720
    97  H    0.023186
    98  H    0.033686
    99  H    0.028393
   100  H    0.038834
   101  H    0.052268
   102  H    0.044212
   103  H    0.035008
   104  H   -0.009473
   105  H    0.009183
   106  H    0.026424
   107  H    0.022232
   108  H   -0.003518
   109  H    0.015383
   110  H   -0.000988
   111  H    0.001416
   112  H    0.007647
   113  H   -0.003500
   114  H   -0.005197
   115  H    0.004503
   116  H    0.008236
   117  H    0.019068
   118  H   -0.012123
   119  H   -0.016685
   120  H   -0.016171
   121  H   -0.010325
   122  H   -0.011116
   123  H   -0.030289
   124  H    0.006385
   125  H    0.004588
   126  H    0.002902
   127  H    0.020824
   128  H   -0.013074
   129  H    0.002616
   130  H   -0.004251
   131  H   -0.003488
   132  H   -0.022970
   133  H   -0.003688
   134  H   -0.011031
   135  H    0.007757
   136  H    0.013333
   137  H    0.019004
   138  H   -0.012613
   139  H   -0.001948
   140  H    0.008477
 Sum of Mulliken charges =  -0.00000

 Dipole moment (field-independent basis, Debye):
    X=             -0.0911    Y=              2.9310    Z=             -0.4746  Tot=              2.9706
 Quadrupole moment (field-independent basis, Debye-Ang):
   XX=           -379.8729   YY=           -441.8293   ZZ=           -396.8060
   XY=             27.5944   XZ=             25.2388   YZ=             32.7288

 Normal termination of Gaussian 16 at Fri Apr 29 01:53:02 2022.
