 Gaussian 16, Revision A.03,
 Gaussian 16:  ES64L-G16RevA.03 25-Dec-2016

 ---------------------------------
 #p PBE1PBE/Def2SVP td=(nstates=5)
 ---------------------------------

 -----------------------------------------------------
 step_1801_chromophore_5 TDDFT with PBE1PBE functional
 -----------------------------------------------------
 Symbolic Z-matrix:
 Charge =  0 Multiplicity = 1

                         Standard orientation:
 ---------------------------------------------------------------------
 Center     Atomic      Atomic             Coordinates (Angstroms)
 Number     Number       Type             X           Y           Z
 ---------------------------------------------------------------------
      1         12           0        5.785057    0.696776   -0.330735
      2          6           0        4.395078   -2.544005    0.018173
      3          6           0        2.938262    1.693599   -2.052603
      4          6           0        6.704852    3.894689    0.035465
      5          6           0        8.187272   -0.216481    1.998984
      6          7           0        3.742517   -0.222267   -0.759183
      7          6           0        3.444937   -1.618856   -0.610973
      8          6           0        2.174177   -2.049570   -1.309478
      9          6           0        1.907971   -0.730489   -2.132882
     10          6           0        2.835552    0.358836   -1.567634
     11          6           0        2.039071   -0.921590   -3.723522
     12          6           0        1.198988   -2.368076   -0.187485
     13          6           0        0.448158   -3.746143   -0.177030
     14          6           0       -1.059282   -3.694642   -0.628057
     15          8           0       -2.039496   -4.163622   -0.023170
     16          8           0       -1.209901   -2.885513   -1.780112
     17          7           0        4.958290    2.566272   -0.998979
     18          6           0        3.859626    2.735084   -1.743628
     19          6           0        3.750017    4.134323   -2.035107
     20          6           0        4.934951    4.765806   -1.547679
     21          6           0        5.609773    3.784494   -0.801423
     22          6           0        2.586529    4.694074   -2.883281
     23          6           0        5.222801    6.321283   -1.770247
     24          8           0        4.614240    6.983633   -2.568278
     25          6           0        6.471617    7.048591   -1.193658
     26          7           0        7.347228    1.709824    0.684490
     27          6           0        7.501554    3.042654    0.673659
     28          6           0        8.629939    3.462858    1.634927
     29          6           0        9.169555    2.147155    2.284246
     30          6           0        8.241887    1.095508    1.606899
     31          6           0        9.727841    4.221102    0.824336
     32          6           0        9.103076    2.167126    3.857227
     33          6           0       10.369256    1.614624    4.496311
     34          7           0        6.442861   -1.159203    0.593364
     35          6           0        7.402698   -1.297032    1.570464
     36          6           0        7.221375   -2.638557    2.142543
     37          6           0        6.243813   -3.271143    1.424314
     38          6           0        5.664039   -2.259529    0.578873
     39          6           0        7.977854   -3.163342    3.298215
     40          6           0        5.445970   -4.482794    1.244916
     41          8           0        5.560956   -5.586337    1.782774
     42          6           0        4.305153   -4.125012    0.240737
     43          6           0        4.398250   -4.949186   -0.999956
     44          8           0        5.195688   -4.805140   -1.863052
     45          8           0        3.242986   -5.690214   -1.080148
     46          6           0        2.960485   -6.297710   -2.373400
     47          6           0       -2.622692   -2.683189   -2.241670
     48          6           0       -3.283356   -1.744675   -1.246177
     49          6           0       -4.594815   -1.699245   -0.911224
     50          6           0       -5.663855   -2.495621   -1.670447
     51          6           0       -5.021703   -0.661272    0.047194
     52          6           0       -5.947307    0.403920   -0.543954
     53          6           0       -7.378289    0.216061   -0.103225
     54          6           0       -7.838183    1.473515    0.789927
     55          6           0       -7.204616    1.538760    2.227753
     56          6           0       -9.359783    1.570406    0.816506
     57          6           0      -10.142303    0.429803    1.506252
     58          6           0      -11.136782   -0.281806    0.610109
     59          6           0      -12.389598    0.591948    0.364731
     60          6           0      -12.630017    0.832453   -1.162992
     61          6           0      -13.577635   -0.090015    1.018890
     62          6           0      -14.622498    0.976102    1.311005
     63          6           0      -16.019854    0.640720    0.836980
     64          6           0      -17.088549    1.715526    1.195174
     65          6           0      -17.921833    1.372736    2.486173
     66          6           0      -18.041764    2.187080    0.066136
     67          1           0        2.117804    1.974414   -2.716184
     68          1           0        7.053486    4.928780    0.096391
     69          1           0        8.877034   -0.432606    2.817668
     70          1           0        2.435251   -2.974589   -1.822180
     71          1           0        0.896986   -0.389989   -1.908737
     72          1           0        2.253217   -1.953104   -4.006486
     73          1           0        2.866453   -0.300517   -4.066088
     74          1           0        1.070566   -0.728197   -4.185023
     75          1           0        0.396450   -1.631006   -0.212316
     76          1           0        1.650735   -2.243928    0.796587
     77          1           0        0.447221   -4.010565    0.880289
     78          1           0        1.095068   -4.440157   -0.714415
     79          1           0        2.277039    5.683443   -2.543507
     80          1           0        1.744221    4.003675   -2.920715
     81          1           0        2.956165    4.752534   -3.907601
     82          1           0        7.388764    6.525566   -1.464495
     83          1           0        6.322872    7.062654   -0.113555
     84          1           0        6.548209    8.025691   -1.670705
     85          1           0        8.155411    4.126009    2.358048
     86          1           0       10.178751    1.879271    1.972137
     87          1           0        9.619659    5.296735    0.963776
     88          1           0        9.458709    4.133586   -0.228263
     89          1           0       10.681998    3.901095    1.243166
     90          1           0        8.201803    1.656667    4.196673
     91          1           0        8.957035    3.165123    4.271325
     92          1           0       10.488034    2.106576    5.461371
     93          1           0       11.199281    1.703918    3.795358
     94          1           0       10.171726    0.564635    4.716580
     95          1           0        8.024921   -4.245290    3.177485
     96          1           0        7.369683   -3.023158    4.191559
     97          1           0        8.990649   -2.771229    3.386300
     98          1           0        3.315257   -4.268341    0.675383
     99          1           0        1.894577   -6.512850   -2.296678
    100          1           0        3.385206   -7.300312   -2.397265
    101          1           0        3.179616   -5.728573   -3.277266
    102          1           0       -3.078996   -3.672625   -2.259481
    103          1           0       -2.588156   -2.162107   -3.198875
    104          1           0       -2.702680   -0.996857   -0.704642
    105          1           0       -5.280740   -3.130324   -2.469412
    106          1           0       -6.421862   -1.796622   -2.024016
    107          1           0       -6.081236   -3.150654   -0.904496
    108          1           0       -4.244536    0.076733    0.248201
    109          1           0       -5.535233   -1.041573    0.930069
    110          1           0       -5.999207    0.390022   -1.632898
    111          1           0       -5.545802    1.389709   -0.308199
    112          1           0       -7.516282   -0.714392    0.448434
    113          1           0       -8.104395    0.254926   -0.914779
    114          1           0       -7.711700    2.444531    0.310456
    115          1           0       -6.400204    2.257210    2.073164
    116          1           0       -6.684691    0.638703    2.554598
    117          1           0       -7.864470    1.898287    3.016638
    118          1           0       -9.740811    1.792506   -0.181010
    119          1           0       -9.648966    2.498739    1.310825
    120          1           0      -10.825299    0.715800    2.306221
    121          1           0       -9.469527   -0.296950    1.960774
    122          1           0      -11.371640   -1.281837    0.974693
    123          1           0      -10.580393   -0.434092   -0.315362
    124          1           0      -12.247789    1.531748    0.898998
    125          1           0      -12.795221    1.908572   -1.204246
    126          1           0      -13.590243    0.400676   -1.441703
    127          1           0      -11.834178    0.503374   -1.831731
    128          1           0      -13.255688   -0.486362    1.981979
    129          1           0      -13.919338   -0.964131    0.465394
    130          1           0      -14.420054    1.917891    0.800848
    131          1           0      -14.803380    1.294765    2.338010
    132          1           0      -16.321778   -0.146673    1.527639
    133          1           0      -16.141084    0.316559   -0.196293
    134          1           0      -16.547047    2.606913    1.513069
    135          1           0      -17.123314    1.145610    3.191350
    136          1           0      -18.579128    0.508853    2.381906
    137          1           0      -18.529368    2.267363    2.615781
    138          1           0      -19.016490    2.538558    0.403444
    139          1           0      -18.380655    1.385937   -0.591220
    140          1           0      -17.707003    3.003958   -0.572202
 ---------------------------------------------------------------------

 SCF Done:  E(RPBE1PBE) =  -3005.32061143     A.U. after   16 cycles

 Excitation energies and oscillator strengths:

 Excited State   1:      Singlet-A      1.8842 eV  658.02 nm  f=0.3718  <S**2>=0.000
     245 -> 248       -0.17925
     246 -> 247        0.69169
     246 <- 247       -0.10643
 This state for optimization and/or second-order correction.
 Total Energy, E(TD-HF/TD-DFT) =  -3005.25136817
 Copying the excited state density for this state as the 1-particle RhoCI density.

 Excited State   2:      Singlet-A      2.2504 eV  550.93 nm  f=0.0925  <S**2>=0.000
     245 -> 247        0.64679
     246 -> 248        0.27029

 Excited State   3:      Singlet-A      2.9418 eV  421.46 nm  f=0.0011  <S**2>=0.000
     243 -> 247        0.69118

 Excited State   4:      Singlet-A      3.1032 eV  399.53 nm  f=0.0010  <S**2>=0.000
     240 -> 247       -0.19495
     241 -> 247       -0.42453
     242 -> 247        0.47217
     246 -> 248       -0.14330

 Excited State   5:      Singlet-A      3.1205 eV  397.32 nm  f=0.0016  <S**2>=0.000
     240 -> 247        0.16514
     241 -> 247        0.42038
     242 -> 247        0.49386
     246 -> 248        0.11646

 The electronic state is 1-A.
 Alpha  occ. eigenvalues --  -46.93378 -19.26556 -19.25460 -19.20984 -19.20780
 Alpha  occ. eigenvalues --  -19.19606 -19.19535 -14.42293 -14.41490 -14.39236
 Alpha  occ. eigenvalues --  -14.38544 -10.37425 -10.36669 -10.32951 -10.32770
 Alpha  occ. eigenvalues --  -10.30244 -10.30126 -10.29532 -10.29140 -10.28866
 Alpha  occ. eigenvalues --  -10.27848 -10.27681 -10.27557 -10.27284 -10.27106
 Alpha  occ. eigenvalues --  -10.26989 -10.26624 -10.26506 -10.26379 -10.26230
 Alpha  occ. eigenvalues --  -10.25866 -10.25726 -10.25723 -10.25698 -10.25099
 Alpha  occ. eigenvalues --  -10.24855 -10.24815 -10.24444 -10.24305 -10.24203
 Alpha  occ. eigenvalues --  -10.24146 -10.23892 -10.23810 -10.23633 -10.23421
 Alpha  occ. eigenvalues --  -10.23416 -10.23337 -10.23335 -10.23257 -10.23169
 Alpha  occ. eigenvalues --  -10.23096 -10.22922 -10.22808 -10.22778 -10.22738
 Alpha  occ. eigenvalues --  -10.22485 -10.22141 -10.22096 -10.22057 -10.21993
 Alpha  occ. eigenvalues --  -10.21947 -10.21770 -10.21751 -10.21604 -10.21601
 Alpha  occ. eigenvalues --  -10.21202  -3.15188  -1.88043  -1.87545  -1.87404
 Alpha  occ. eigenvalues --   -1.12737  -1.09214  -1.06190  -1.04890  -1.04234
 Alpha  occ. eigenvalues --   -1.01402  -0.98621  -0.98143  -0.97386  -0.96802
 Alpha  occ. eigenvalues --   -0.86439  -0.85215  -0.84476  -0.84157  -0.83931
 Alpha  occ. eigenvalues --   -0.82862  -0.82742  -0.81569  -0.81458  -0.81043
 Alpha  occ. eigenvalues --   -0.79545  -0.79440  -0.78958  -0.78566  -0.78074
 Alpha  occ. eigenvalues --   -0.76879  -0.76536  -0.75700  -0.74869  -0.74388
 Alpha  occ. eigenvalues --   -0.73678  -0.72421  -0.72278  -0.71513  -0.70760
 Alpha  occ. eigenvalues --   -0.70519  -0.69515  -0.69250  -0.69218  -0.68728
 Alpha  occ. eigenvalues --   -0.67356  -0.67056  -0.66272  -0.64902  -0.63690
 Alpha  occ. eigenvalues --   -0.63267  -0.62841  -0.61579  -0.60939  -0.60585
 Alpha  occ. eigenvalues --   -0.59930  -0.59832  -0.59658  -0.59245  -0.58145
 Alpha  occ. eigenvalues --   -0.57452  -0.57136  -0.56663  -0.55541  -0.54651
 Alpha  occ. eigenvalues --   -0.54029  -0.53982  -0.53651  -0.53447  -0.53082
 Alpha  occ. eigenvalues --   -0.52256  -0.52173  -0.50977  -0.50672  -0.50219
 Alpha  occ. eigenvalues --   -0.50005  -0.49582  -0.49106  -0.48947  -0.48800
 Alpha  occ. eigenvalues --   -0.48327  -0.48221  -0.47859  -0.47761  -0.47517
 Alpha  occ. eigenvalues --   -0.46956  -0.46799  -0.46670  -0.46473  -0.46232
 Alpha  occ. eigenvalues --   -0.46090  -0.45923  -0.45823  -0.45660  -0.45412
 Alpha  occ. eigenvalues --   -0.45242  -0.44644  -0.44454  -0.44407  -0.44300
 Alpha  occ. eigenvalues --   -0.44141  -0.43982  -0.43659  -0.43562  -0.43543
 Alpha  occ. eigenvalues --   -0.43451  -0.43299  -0.42987  -0.42925  -0.42539
 Alpha  occ. eigenvalues --   -0.42225  -0.41846  -0.41564  -0.41497  -0.41431
 Alpha  occ. eigenvalues --   -0.41034  -0.40887  -0.40859  -0.40773  -0.40562
 Alpha  occ. eigenvalues --   -0.40497  -0.40236  -0.40173  -0.40020  -0.39998
 Alpha  occ. eigenvalues --   -0.39945  -0.39671  -0.39236  -0.39035  -0.38727
 Alpha  occ. eigenvalues --   -0.38577  -0.38560  -0.38241  -0.38120  -0.37864
 Alpha  occ. eigenvalues --   -0.37764  -0.37699  -0.37498  -0.37233  -0.37039
 Alpha  occ. eigenvalues --   -0.36943  -0.36692  -0.36578  -0.36501  -0.36257
 Alpha  occ. eigenvalues --   -0.36084  -0.35952  -0.35617  -0.35359  -0.35156
 Alpha  occ. eigenvalues --   -0.34773  -0.34500  -0.34173  -0.33839  -0.33627
 Alpha  occ. eigenvalues --   -0.33223  -0.32715  -0.32664  -0.32399  -0.32242
 Alpha  occ. eigenvalues --   -0.32143  -0.31760  -0.31584  -0.31503  -0.31206
 Alpha  occ. eigenvalues --   -0.30582  -0.30320  -0.30244  -0.29644  -0.29614
 Alpha  occ. eigenvalues --   -0.29312  -0.29203  -0.29048  -0.27183  -0.26342
 Alpha  occ. eigenvalues --   -0.25789  -0.25582  -0.25024  -0.24678  -0.21165
 Alpha  occ. eigenvalues --   -0.18931
 Alpha virt. eigenvalues --   -0.11216  -0.05382  -0.04048  -0.02108  -0.00892
 Alpha virt. eigenvalues --   -0.00408  -0.00115   0.01203   0.01656   0.02937
 Alpha virt. eigenvalues --    0.03635   0.04565   0.05108   0.05307   0.05451

 Mulliken charges:
               1
     1  Mg   0.937561
     2  C   -0.022399
     3  C   -0.083330
     4  C   -0.054347
     5  C   -0.073067
     6  N   -0.377782
     7  C    0.009224
     8  C   -0.102527
     9  C   -0.078661
    10  C    0.080189
    11  C    0.006495
    12  C   -0.003973
    13  C   -0.039613
    14  C    0.256195
    15  O   -0.262362
    16  O   -0.407325
    17  N   -0.468993
    18  C    0.170892
    19  C   -0.193744
    20  C   -0.081251
    21  C    0.171261
    22  C    0.068534
    23  C    0.065628
    24  O   -0.214626
    25  C   -0.038232
    26  N   -0.440955
    27  C    0.067733
    28  C   -0.125236
    29  C   -0.070960
    30  C    0.078571
    31  C    0.009825
    32  C   -0.045092
    33  C   -0.063528
    34  N   -0.444405
    35  C    0.165343
    36  C   -0.236872
    37  C   -0.001738
    38  C    0.129170
    39  C    0.069443
    40  C    0.163776
    41  O   -0.223119
    42  C   -0.141875
    43  C    0.302787
    44  O   -0.205236
    45  O   -0.376376
    46  C    0.113801
    47  C    0.269158
    48  C   -0.163795
    49  C   -0.191830
    50  C    0.026020
    51  C    0.022731
    52  C   -0.052476
    53  C   -0.028639
    54  C   -0.194630
    55  C   -0.013585
    56  C   -0.036009
    57  C   -0.051800
    58  C    0.012530
    59  C   -0.278273
    60  C    0.013978
    61  C    0.054438
    62  C   -0.071761
    63  C    0.000016
    64  C   -0.241613
    65  C   -0.036106
    66  C   -0.023434
    67  H    0.006227
    68  H   -0.038757
    69  H   -0.008160
    70  H    0.058620
    71  H    0.044465
    72  H    0.041603
    73  H    0.057440
    74  H    0.048714
    75  H    0.042858
    76  H    0.061593
    77  H    0.065221
    78  H    0.080935
    79  H    0.064312
    80  H    0.030917
    81  H    0.060866
    82  H    0.064184
    83  H    0.067500
    84  H    0.059140
    85  H    0.055193
    86  H    0.050349
    87  H    0.035957
    88  H    0.057073
    89  H    0.052693
    90  H    0.043947
    91  H    0.038533
    92  H    0.044205
    93  H    0.049372
    94  H    0.045149
    95  H    0.057905
    96  H    0.059976
    97  H    0.049027
    98  H    0.075176
    99  H    0.049423
   100  H    0.061606
   101  H    0.072715
   102  H    0.069745
   103  H    0.062075
   104  H    0.021019
   105  H    0.035991
   106  H    0.054050
   107  H    0.050572
   108  H    0.028152
   109  H    0.048331
   110  H    0.031999
   111  H    0.033030
   112  H    0.038290
   113  H    0.029160
   114  H    0.032747
   115  H    0.032015
   116  H    0.035555
   117  H    0.045811
   118  H    0.021608
   119  H    0.016717
   120  H    0.018376
   121  H    0.022662
   122  H    0.020849
   123  H    0.005770
   124  H    0.043580
   125  H    0.031758
   126  H    0.031294
   127  H    0.045948
   128  H    0.021508
   129  H    0.033549
   130  H    0.029533
   131  H    0.029293
   132  H    0.014062
   133  H    0.027309
   134  H    0.027796
   135  H    0.036361
   136  H    0.041467
   137  H    0.046573
   138  H    0.014310
   139  H    0.025616
   140  H    0.035819
 Sum of Mulliken charges =  -0.00000

 Dipole moment (field-independent basis, Debye):
    X=             -0.0625    Y=              2.8791    Z=             -0.3477  Tot=              2.9007
 Quadrupole moment (field-independent basis, Debye-Ang):
   XX=           -374.2603   YY=           -439.4993   ZZ=           -393.3229
   XY=             27.3848   XZ=             27.0140   YZ=             32.8621

 Normal termination of Gaussian 16 at Fri Apr 29 02:10:15 2022.
