 Gaussian 16, Revision A.03,
 Gaussian 16:  ES64L-G16RevA.03 25-Dec-2016

 --------------------------------
 #p wB97XD/Def2SVP td=(nstates=5)
 --------------------------------

 ----------------------------------------------------
 step_1801_chromophore_5 TDDFT with wB97XD functional
 ----------------------------------------------------
 Symbolic Z-matrix:
 Charge =  0 Multiplicity = 1

                         Standard orientation:
 ---------------------------------------------------------------------
 Center     Atomic      Atomic             Coordinates (Angstroms)
 Number     Number       Type             X           Y           Z
 ---------------------------------------------------------------------
      1         12           0        5.785057    0.696776   -0.330735
      2          6           0        4.395078   -2.544005    0.018173
      3          6           0        2.938262    1.693599   -2.052603
      4          6           0        6.704852    3.894689    0.035465
      5          6           0        8.187272   -0.216481    1.998984
      6          7           0        3.742517   -0.222267   -0.759183
      7          6           0        3.444937   -1.618856   -0.610973
      8          6           0        2.174177   -2.049570   -1.309478
      9          6           0        1.907971   -0.730489   -2.132882
     10          6           0        2.835552    0.358836   -1.567634
     11          6           0        2.039071   -0.921590   -3.723522
     12          6           0        1.198988   -2.368076   -0.187485
     13          6           0        0.448158   -3.746143   -0.177030
     14          6           0       -1.059282   -3.694642   -0.628057
     15          8           0       -2.039496   -4.163622   -0.023170
     16          8           0       -1.209901   -2.885513   -1.780112
     17          7           0        4.958290    2.566272   -0.998979
     18          6           0        3.859626    2.735084   -1.743628
     19          6           0        3.750017    4.134323   -2.035107
     20          6           0        4.934951    4.765806   -1.547679
     21          6           0        5.609773    3.784494   -0.801423
     22          6           0        2.586529    4.694074   -2.883281
     23          6           0        5.222801    6.321283   -1.770247
     24          8           0        4.614240    6.983633   -2.568278
     25          6           0        6.471617    7.048591   -1.193658
     26          7           0        7.347228    1.709824    0.684490
     27          6           0        7.501554    3.042654    0.673659
     28          6           0        8.629939    3.462858    1.634927
     29          6           0        9.169555    2.147155    2.284246
     30          6           0        8.241887    1.095508    1.606899
     31          6           0        9.727841    4.221102    0.824336
     32          6           0        9.103076    2.167126    3.857227
     33          6           0       10.369256    1.614624    4.496311
     34          7           0        6.442861   -1.159203    0.593364
     35          6           0        7.402698   -1.297032    1.570464
     36          6           0        7.221375   -2.638557    2.142543
     37          6           0        6.243813   -3.271143    1.424314
     38          6           0        5.664039   -2.259529    0.578873
     39          6           0        7.977854   -3.163342    3.298215
     40          6           0        5.445970   -4.482794    1.244916
     41          8           0        5.560956   -5.586337    1.782774
     42          6           0        4.305153   -4.125012    0.240737
     43          6           0        4.398250   -4.949186   -0.999956
     44          8           0        5.195688   -4.805140   -1.863052
     45          8           0        3.242986   -5.690214   -1.080148
     46          6           0        2.960485   -6.297710   -2.373400
     47          6           0       -2.622692   -2.683189   -2.241670
     48          6           0       -3.283356   -1.744675   -1.246177
     49          6           0       -4.594815   -1.699245   -0.911224
     50          6           0       -5.663855   -2.495621   -1.670447
     51          6           0       -5.021703   -0.661272    0.047194
     52          6           0       -5.947307    0.403920   -0.543954
     53          6           0       -7.378289    0.216061   -0.103225
     54          6           0       -7.838183    1.473515    0.789927
     55          6           0       -7.204616    1.538760    2.227753
     56          6           0       -9.359783    1.570406    0.816506
     57          6           0      -10.142303    0.429803    1.506252
     58          6           0      -11.136782   -0.281806    0.610109
     59          6           0      -12.389598    0.591948    0.364731
     60          6           0      -12.630017    0.832453   -1.162992
     61          6           0      -13.577635   -0.090015    1.018890
     62          6           0      -14.622498    0.976102    1.311005
     63          6           0      -16.019854    0.640720    0.836980
     64          6           0      -17.088549    1.715526    1.195174
     65          6           0      -17.921833    1.372736    2.486173
     66          6           0      -18.041764    2.187080    0.066136
     67          1           0        2.117804    1.974414   -2.716184
     68          1           0        7.053486    4.928780    0.096391
     69          1           0        8.877034   -0.432606    2.817668
     70          1           0        2.435251   -2.974589   -1.822180
     71          1           0        0.896986   -0.389989   -1.908737
     72          1           0        2.253217   -1.953104   -4.006486
     73          1           0        2.866453   -0.300517   -4.066088
     74          1           0        1.070566   -0.728197   -4.185023
     75          1           0        0.396450   -1.631006   -0.212316
     76          1           0        1.650735   -2.243928    0.796587
     77          1           0        0.447221   -4.010565    0.880289
     78          1           0        1.095068   -4.440157   -0.714415
     79          1           0        2.277039    5.683443   -2.543507
     80          1           0        1.744221    4.003675   -2.920715
     81          1           0        2.956165    4.752534   -3.907601
     82          1           0        7.388764    6.525566   -1.464495
     83          1           0        6.322872    7.062654   -0.113555
     84          1           0        6.548209    8.025691   -1.670705
     85          1           0        8.155411    4.126009    2.358048
     86          1           0       10.178751    1.879271    1.972137
     87          1           0        9.619659    5.296735    0.963776
     88          1           0        9.458709    4.133586   -0.228263
     89          1           0       10.681998    3.901095    1.243166
     90          1           0        8.201803    1.656667    4.196673
     91          1           0        8.957035    3.165123    4.271325
     92          1           0       10.488034    2.106576    5.461371
     93          1           0       11.199281    1.703918    3.795358
     94          1           0       10.171726    0.564635    4.716580
     95          1           0        8.024921   -4.245290    3.177485
     96          1           0        7.369683   -3.023158    4.191559
     97          1           0        8.990649   -2.771229    3.386300
     98          1           0        3.315257   -4.268341    0.675383
     99          1           0        1.894577   -6.512850   -2.296678
    100          1           0        3.385206   -7.300312   -2.397265
    101          1           0        3.179616   -5.728573   -3.277266
    102          1           0       -3.078996   -3.672625   -2.259481
    103          1           0       -2.588156   -2.162107   -3.198875
    104          1           0       -2.702680   -0.996857   -0.704642
    105          1           0       -5.280740   -3.130324   -2.469412
    106          1           0       -6.421862   -1.796622   -2.024016
    107          1           0       -6.081236   -3.150654   -0.904496
    108          1           0       -4.244536    0.076733    0.248201
    109          1           0       -5.535233   -1.041573    0.930069
    110          1           0       -5.999207    0.390022   -1.632898
    111          1           0       -5.545802    1.389709   -0.308199
    112          1           0       -7.516282   -0.714392    0.448434
    113          1           0       -8.104395    0.254926   -0.914779
    114          1           0       -7.711700    2.444531    0.310456
    115          1           0       -6.400204    2.257210    2.073164
    116          1           0       -6.684691    0.638703    2.554598
    117          1           0       -7.864470    1.898287    3.016638
    118          1           0       -9.740811    1.792506   -0.181010
    119          1           0       -9.648966    2.498739    1.310825
    120          1           0      -10.825299    0.715800    2.306221
    121          1           0       -9.469527   -0.296950    1.960774
    122          1           0      -11.371640   -1.281837    0.974693
    123          1           0      -10.580393   -0.434092   -0.315362
    124          1           0      -12.247789    1.531748    0.898998
    125          1           0      -12.795221    1.908572   -1.204246
    126          1           0      -13.590243    0.400676   -1.441703
    127          1           0      -11.834178    0.503374   -1.831731
    128          1           0      -13.255688   -0.486362    1.981979
    129          1           0      -13.919338   -0.964131    0.465394
    130          1           0      -14.420054    1.917891    0.800848
    131          1           0      -14.803380    1.294765    2.338010
    132          1           0      -16.321778   -0.146673    1.527639
    133          1           0      -16.141084    0.316559   -0.196293
    134          1           0      -16.547047    2.606913    1.513069
    135          1           0      -17.123314    1.145610    3.191350
    136          1           0      -18.579128    0.508853    2.381906
    137          1           0      -18.529368    2.267363    2.615781
    138          1           0      -19.016490    2.538558    0.403444
    139          1           0      -18.380655    1.385937   -0.591220
    140          1           0      -17.707003    3.003958   -0.572202
 ---------------------------------------------------------------------

 SCF Done:  E(RwB97XD) =  -3007.83313578     A.U. after   20 cycles

 Excitation energies and oscillator strengths:

 Excited State   1:      Singlet-A      1.6655 eV  744.41 nm  f=0.3815  <S**2>=0.000
     245 -> 248       -0.19075
     246 -> 247        0.68269
     245 <- 248       -0.11859
 This state for optimization and/or second-order correction.
 Total Energy, E(TD-HF/TD-DFT) =  -3007.77192865
 Copying the excited state density for this state as the 1-particle RhoCI density.

 Excited State   2:      Singlet-A      2.1865 eV  567.04 nm  f=0.0927  <S**2>=0.000
     245 -> 247        0.63375
     246 -> 248        0.29844

 Excited State   3:      Singlet-A      3.2638 eV  379.88 nm  f=0.0073  <S**2>=0.000
     243 -> 247        0.66442
     246 -> 248       -0.17094

 Excited State   4:      Singlet-A      3.5057 eV  353.67 nm  f=0.2814  <S**2>=0.000
     240 -> 247        0.14476
     240 -> 249        0.13266
     242 -> 247       -0.41688
     242 -> 249       -0.11729
     243 -> 247        0.14279
     245 -> 247       -0.17989
     246 -> 248        0.44129

 Excited State   5:      Singlet-A      3.6791 eV  337.00 nm  f=0.5517  <S**2>=0.000
     239 -> 247       -0.12624
     239 -> 249       -0.14379
     240 -> 247       -0.26545
     240 -> 249       -0.23160
     242 -> 247        0.27564
     245 -> 247       -0.22786
     246 -> 248        0.39724

 The electronic state is 1-A.
 Alpha  occ. eigenvalues --  -46.96340 -19.31135 -19.29994 -19.25747 -19.25439
 Alpha  occ. eigenvalues --  -19.24408 -19.24391 -14.47445 -14.46548 -14.44158
 Alpha  occ. eigenvalues --  -14.43536 -10.44188 -10.43533 -10.39796 -10.39621
 Alpha  occ. eigenvalues --  -10.36620 -10.36432 -10.36058 -10.35536 -10.35051
 Alpha  occ. eigenvalues --  -10.34258 -10.34103 -10.33849 -10.33611 -10.33590
 Alpha  occ. eigenvalues --  -10.33190 -10.32922 -10.32883 -10.32624 -10.32408
 Alpha  occ. eigenvalues --  -10.32296 -10.32265 -10.32048 -10.31961 -10.31610
 Alpha  occ. eigenvalues --  -10.31300 -10.31166 -10.30783 -10.30574 -10.30553
 Alpha  occ. eigenvalues --  -10.30542 -10.30292 -10.30230 -10.30073 -10.29876
 Alpha  occ. eigenvalues --  -10.29839 -10.29740 -10.29697 -10.29627 -10.29610
 Alpha  occ. eigenvalues --  -10.29339 -10.29287 -10.29148 -10.29100 -10.29081
 Alpha  occ. eigenvalues --  -10.28837 -10.28576 -10.28473 -10.28440 -10.28422
 Alpha  occ. eigenvalues --  -10.28314 -10.28200 -10.28121 -10.28027 -10.27982
 Alpha  occ. eigenvalues --  -10.27556  -3.22047  -1.95645  -1.95147  -1.95001
 Alpha  occ. eigenvalues --   -1.20151  -1.16599  -1.13696  -1.12270  -1.11708
 Alpha  occ. eigenvalues --   -1.08747  -1.05995  -1.05520  -1.04825  -1.04216
 Alpha  occ. eigenvalues --   -0.94061  -0.92878  -0.92135  -0.91762  -0.91530
 Alpha  occ. eigenvalues --   -0.90458  -0.90409  -0.89146  -0.89100  -0.88663
 Alpha  occ. eigenvalues --   -0.87268  -0.87118  -0.86603  -0.86173  -0.85714
 Alpha  occ. eigenvalues --   -0.84526  -0.84173  -0.83332  -0.82668  -0.82048
 Alpha  occ. eigenvalues --   -0.81331  -0.80029  -0.79875  -0.79195  -0.78458
 Alpha  occ. eigenvalues --   -0.78148  -0.77210  -0.76936  -0.76845  -0.76396
 Alpha  occ. eigenvalues --   -0.74897  -0.74662  -0.73822  -0.72501  -0.71195
 Alpha  occ. eigenvalues --   -0.70837  -0.70483  -0.69167  -0.68571  -0.68123
 Alpha  occ. eigenvalues --   -0.67488  -0.67481  -0.67123  -0.66668  -0.65827
 Alpha  occ. eigenvalues --   -0.64875  -0.64594  -0.64295  -0.63152  -0.62135
 Alpha  occ. eigenvalues --   -0.61534  -0.61447  -0.61112  -0.60842  -0.60511
 Alpha  occ. eigenvalues --   -0.59717  -0.59619  -0.58430  -0.58077  -0.57629
 Alpha  occ. eigenvalues --   -0.57392  -0.57025  -0.56582  -0.56334  -0.56136
 Alpha  occ. eigenvalues --   -0.55716  -0.55609  -0.55190  -0.55071  -0.54919
 Alpha  occ. eigenvalues --   -0.54269  -0.54201  -0.54113  -0.54010  -0.53611
 Alpha  occ. eigenvalues --   -0.53484  -0.53252  -0.53206  -0.52972  -0.52732
 Alpha  occ. eigenvalues --   -0.52546  -0.51985  -0.51835  -0.51739  -0.51627
 Alpha  occ. eigenvalues --   -0.51513  -0.51321  -0.51021  -0.50887  -0.50864
 Alpha  occ. eigenvalues --   -0.50729  -0.50600  -0.50248  -0.50159  -0.49759
 Alpha  occ. eigenvalues --   -0.49496  -0.49093  -0.48854  -0.48772  -0.48755
 Alpha  occ. eigenvalues --   -0.48255  -0.48186  -0.48073  -0.48019  -0.47748
 Alpha  occ. eigenvalues --   -0.47719  -0.47442  -0.47388  -0.47255  -0.47192
 Alpha  occ. eigenvalues --   -0.47141  -0.46893  -0.46411  -0.46268  -0.45805
 Alpha  occ. eigenvalues --   -0.45781  -0.45774  -0.45417  -0.45249  -0.45002
 Alpha  occ. eigenvalues --   -0.44956  -0.44859  -0.44582  -0.44229  -0.44114
 Alpha  occ. eigenvalues --   -0.44013  -0.43768  -0.43695  -0.43627  -0.43315
 Alpha  occ. eigenvalues --   -0.43147  -0.42999  -0.42612  -0.42448  -0.42129
 Alpha  occ. eigenvalues --   -0.41756  -0.41563  -0.41205  -0.40798  -0.40583
 Alpha  occ. eigenvalues --   -0.40281  -0.39820  -0.39683  -0.39491  -0.39185
 Alpha  occ. eigenvalues --   -0.39145  -0.38695  -0.38587  -0.38528  -0.38228
 Alpha  occ. eigenvalues --   -0.37558  -0.37379  -0.37331  -0.36577  -0.36508
 Alpha  occ. eigenvalues --   -0.36257  -0.36155  -0.35726  -0.33843  -0.33271
 Alpha  occ. eigenvalues --   -0.32770  -0.32348  -0.31692  -0.31370  -0.26199
 Alpha  occ. eigenvalues --   -0.23087
 Alpha virt. eigenvalues --   -0.07089  -0.00007   0.02283   0.04431   0.05350
 Alpha virt. eigenvalues --    0.06247   0.06629   0.07841   0.08341   0.09252
 Alpha virt. eigenvalues --    0.10307   0.11335   0.11796   0.12020   0.12220

 Mulliken charges:
               1
     1  Mg   0.931709
     2  C   -0.032870
     3  C   -0.094686
     4  C   -0.067203
     5  C   -0.075924
     6  N   -0.346513
     7  C   -0.010004
     8  C   -0.071013
     9  C   -0.054122
    10  C    0.061187
    11  C    0.018175
    12  C    0.003403
    13  C   -0.014889
    14  C    0.248103
    15  O   -0.260587
    16  O   -0.409113
    17  N   -0.436833
    18  C    0.159948
    19  C   -0.183528
    20  C   -0.079386
    21  C    0.171895
    22  C    0.081569
    23  C    0.058606
    24  O   -0.210730
    25  C   -0.022026
    26  N   -0.410092
    27  C    0.060225
    28  C   -0.102779
    29  C   -0.042536
    30  C    0.062150
    31  C    0.022153
    32  C   -0.033721
    33  C   -0.045705
    34  N   -0.406757
    35  C    0.148720
    36  C   -0.225316
    37  C    0.000195
    38  C    0.108800
    39  C    0.077538
    40  C    0.146388
    41  O   -0.213699
    42  C   -0.095302
    43  C    0.275925
    44  O   -0.199531
    45  O   -0.372776
    46  C    0.127006
    47  C    0.286839
    48  C   -0.171372
    49  C   -0.179935
    50  C    0.040008
    51  C    0.044310
    52  C   -0.038923
    53  C   -0.012922
    54  C   -0.162516
    55  C   -0.006134
    56  C   -0.020943
    57  C   -0.031773
    58  C    0.031377
    59  C   -0.243666
    60  C    0.024135
    61  C    0.064213
    62  C   -0.049528
    63  C    0.015206
    64  C   -0.214290
    65  C   -0.018736
    66  C   -0.012951
    67  H   -0.000450
    68  H   -0.056742
    69  H   -0.022186
    70  H    0.040277
    71  H    0.034889
    72  H    0.036531
    73  H    0.050203
    74  H    0.044012
    75  H    0.031205
    76  H    0.053179
    77  H    0.060632
    78  H    0.064456
    79  H    0.061076
    80  H    0.025665
    81  H    0.056657
    82  H    0.058105
    83  H    0.062679
    84  H    0.058089
    85  H    0.045594
    86  H    0.037673
    87  H    0.029978
    88  H    0.049352
    89  H    0.047484
    90  H    0.036024
    91  H    0.030256
    92  H    0.039491
    93  H    0.042609
    94  H    0.038541
    95  H    0.053506
    96  H    0.054793
    97  H    0.044369
    98  H    0.063196
    99  H    0.046205
   100  H    0.058049
   101  H    0.069783
   102  H    0.063809
   103  H    0.058585
   104  H    0.015259
   105  H    0.031076
   106  H    0.046315
   107  H    0.044971
   108  H    0.020760
   109  H    0.038645
   110  H    0.023055
   111  H    0.024941
   112  H    0.026764
   113  H    0.019203
   114  H    0.021962
   115  H    0.025686
   116  H    0.029032
   117  H    0.041234
   118  H    0.009715
   119  H    0.008407
   120  H    0.006912
   121  H    0.013835
   122  H    0.013957
   123  H   -0.009878
   124  H    0.027619
   125  H    0.025778
   126  H    0.024117
   127  H    0.041376
   128  H    0.012586
   129  H    0.026215
   130  H    0.016347
   131  H    0.019871
   132  H    0.001768
   133  H    0.019865
   134  H    0.015306
   135  H    0.028324
   136  H    0.035276
   137  H    0.039794
   138  H    0.008112
   139  H    0.018947
   140  H    0.030821
 Sum of Mulliken charges =  -0.00000

 Dipole moment (field-independent basis, Debye):
    X=             -0.1282    Y=              3.0609    Z=             -0.5332  Tot=              3.1096
 Quadrupole moment (field-independent basis, Debye-Ang):
   XX=           -374.9841   YY=           -438.0370   ZZ=           -393.0544
   XY=             28.4823   XZ=             26.0059   YZ=             32.7390

 Normal termination of Gaussian 16 at Fri Apr 29 02:39:09 2022.
