 Gaussian 16, Revision A.03,
 Gaussian 16:  ES64L-G16RevA.03 25-Dec-2016

 --------------------
 #p ZINDO=(nstates=5)
 --------------------

 -----------------------------
 step_1801_chromophore_5 ZINDO
 -----------------------------
 Symbolic Z-matrix:
 Charge =  0 Multiplicity = 1

                         Standard orientation:
 ---------------------------------------------------------------------
 Center     Atomic      Atomic             Coordinates (Angstroms)
 Number     Number       Type             X           Y           Z
 ---------------------------------------------------------------------
      1         12           0        5.785057    0.696776   -0.330735
      2          6           0        4.395078   -2.544005    0.018173
      3          6           0        2.938262    1.693599   -2.052603
      4          6           0        6.704852    3.894689    0.035465
      5          6           0        8.187272   -0.216481    1.998984
      6          7           0        3.742517   -0.222267   -0.759183
      7          6           0        3.444937   -1.618856   -0.610973
      8          6           0        2.174177   -2.049570   -1.309478
      9          6           0        1.907971   -0.730489   -2.132882
     10          6           0        2.835552    0.358836   -1.567634
     11          6           0        2.039071   -0.921590   -3.723522
     12          6           0        1.198988   -2.368076   -0.187485
     13          6           0        0.448158   -3.746143   -0.177030
     14          6           0       -1.059282   -3.694642   -0.628057
     15          8           0       -2.039496   -4.163622   -0.023170
     16          8           0       -1.209901   -2.885513   -1.780112
     17          7           0        4.958290    2.566272   -0.998979
     18          6           0        3.859626    2.735084   -1.743628
     19          6           0        3.750017    4.134323   -2.035107
     20          6           0        4.934951    4.765806   -1.547679
     21          6           0        5.609773    3.784494   -0.801423
     22          6           0        2.586529    4.694074   -2.883281
     23          6           0        5.222801    6.321283   -1.770247
     24          8           0        4.614240    6.983633   -2.568278
     25          6           0        6.471617    7.048591   -1.193658
     26          7           0        7.347228    1.709824    0.684490
     27          6           0        7.501554    3.042654    0.673659
     28          6           0        8.629939    3.462858    1.634927
     29          6           0        9.169555    2.147155    2.284246
     30          6           0        8.241887    1.095508    1.606899
     31          6           0        9.727841    4.221102    0.824336
     32          6           0        9.103076    2.167126    3.857227
     33          6           0       10.369256    1.614624    4.496311
     34          7           0        6.442861   -1.159203    0.593364
     35          6           0        7.402698   -1.297032    1.570464
     36          6           0        7.221375   -2.638557    2.142543
     37          6           0        6.243813   -3.271143    1.424314
     38          6           0        5.664039   -2.259529    0.578873
     39          6           0        7.977854   -3.163342    3.298215
     40          6           0        5.445970   -4.482794    1.244916
     41          8           0        5.560956   -5.586337    1.782774
     42          6           0        4.305153   -4.125012    0.240737
     43          6           0        4.398250   -4.949186   -0.999956
     44          8           0        5.195688   -4.805140   -1.863052
     45          8           0        3.242986   -5.690214   -1.080148
     46          6           0        2.960485   -6.297710   -2.373400
     47          6           0       -2.622692   -2.683189   -2.241670
     48          6           0       -3.283356   -1.744675   -1.246177
     49          6           0       -4.594815   -1.699245   -0.911224
     50          6           0       -5.663855   -2.495621   -1.670447
     51          6           0       -5.021703   -0.661272    0.047194
     52          6           0       -5.947307    0.403920   -0.543954
     53          6           0       -7.378289    0.216061   -0.103225
     54          6           0       -7.838183    1.473515    0.789927
     55          6           0       -7.204616    1.538760    2.227753
     56          6           0       -9.359783    1.570406    0.816506
     57          6           0      -10.142303    0.429803    1.506252
     58          6           0      -11.136782   -0.281806    0.610109
     59          6           0      -12.389598    0.591948    0.364731
     60          6           0      -12.630017    0.832453   -1.162992
     61          6           0      -13.577635   -0.090015    1.018890
     62          6           0      -14.622498    0.976102    1.311005
     63          6           0      -16.019854    0.640720    0.836980
     64          6           0      -17.088549    1.715526    1.195174
     65          6           0      -17.921833    1.372736    2.486173
     66          6           0      -18.041764    2.187080    0.066136
     67          1           0        2.117804    1.974414   -2.716184
     68          1           0        7.053486    4.928780    0.096391
     69          1           0        8.877034   -0.432606    2.817668
     70          1           0        2.435251   -2.974589   -1.822180
     71          1           0        0.896986   -0.389989   -1.908737
     72          1           0        2.253217   -1.953104   -4.006486
     73          1           0        2.866453   -0.300517   -4.066088
     74          1           0        1.070566   -0.728197   -4.185023
     75          1           0        0.396450   -1.631006   -0.212316
     76          1           0        1.650735   -2.243928    0.796587
     77          1           0        0.447221   -4.010565    0.880289
     78          1           0        1.095068   -4.440157   -0.714415
     79          1           0        2.277039    5.683443   -2.543507
     80          1           0        1.744221    4.003675   -2.920715
     81          1           0        2.956165    4.752534   -3.907601
     82          1           0        7.388764    6.525566   -1.464495
     83          1           0        6.322872    7.062654   -0.113555
     84          1           0        6.548209    8.025691   -1.670705
     85          1           0        8.155411    4.126009    2.358048
     86          1           0       10.178751    1.879271    1.972137
     87          1           0        9.619659    5.296735    0.963776
     88          1           0        9.458709    4.133586   -0.228263
     89          1           0       10.681998    3.901095    1.243166
     90          1           0        8.201803    1.656667    4.196673
     91          1           0        8.957035    3.165123    4.271325
     92          1           0       10.488034    2.106576    5.461371
     93          1           0       11.199281    1.703918    3.795358
     94          1           0       10.171726    0.564635    4.716580
     95          1           0        8.024921   -4.245290    3.177485
     96          1           0        7.369683   -3.023158    4.191559
     97          1           0        8.990649   -2.771229    3.386300
     98          1           0        3.315257   -4.268341    0.675383
     99          1           0        1.894577   -6.512850   -2.296678
    100          1           0        3.385206   -7.300312   -2.397265
    101          1           0        3.179616   -5.728573   -3.277266
    102          1           0       -3.078996   -3.672625   -2.259481
    103          1           0       -2.588156   -2.162107   -3.198875
    104          1           0       -2.702680   -0.996857   -0.704642
    105          1           0       -5.280740   -3.130324   -2.469412
    106          1           0       -6.421862   -1.796622   -2.024016
    107          1           0       -6.081236   -3.150654   -0.904496
    108          1           0       -4.244536    0.076733    0.248201
    109          1           0       -5.535233   -1.041573    0.930069
    110          1           0       -5.999207    0.390022   -1.632898
    111          1           0       -5.545802    1.389709   -0.308199
    112          1           0       -7.516282   -0.714392    0.448434
    113          1           0       -8.104395    0.254926   -0.914779
    114          1           0       -7.711700    2.444531    0.310456
    115          1           0       -6.400204    2.257210    2.073164
    116          1           0       -6.684691    0.638703    2.554598
    117          1           0       -7.864470    1.898287    3.016638
    118          1           0       -9.740811    1.792506   -0.181010
    119          1           0       -9.648966    2.498739    1.310825
    120          1           0      -10.825299    0.715800    2.306221
    121          1           0       -9.469527   -0.296950    1.960774
    122          1           0      -11.371640   -1.281837    0.974693
    123          1           0      -10.580393   -0.434092   -0.315362
    124          1           0      -12.247789    1.531748    0.898998
    125          1           0      -12.795221    1.908572   -1.204246
    126          1           0      -13.590243    0.400676   -1.441703
    127          1           0      -11.834178    0.503374   -1.831731
    128          1           0      -13.255688   -0.486362    1.981979
    129          1           0      -13.919338   -0.964131    0.465394
    130          1           0      -14.420054    1.917891    0.800848
    131          1           0      -14.803380    1.294765    2.338010
    132          1           0      -16.321778   -0.146673    1.527639
    133          1           0      -16.141084    0.316559   -0.196293
    134          1           0      -16.547047    2.606913    1.513069
    135          1           0      -17.123314    1.145610    3.191350
    136          1           0      -18.579128    0.508853    2.381906
    137          1           0      -18.529368    2.267363    2.615781
    138          1           0      -19.016490    2.538558    0.403444
    139          1           0      -18.380655    1.385937   -0.591220
    140          1           0      -17.707003    3.003958   -0.572202
 ---------------------------------------------------------------------

 SCF Done:  E(RZINDO/S) =  -474.144770114     A.U. after   20 cycles

 Excitation energies and oscillator strengths:

 Excited State   1:      Singlet-A      1.2313 eV 1006.90 nm  f=0.5978  <S**2>=0.000
     175 ->178        -0.19030
     176 ->177         0.66243
 This state for optimization and/or second-order correction.
 Total Energy, E(CIS/TDA) =  -474.099519039
 Copying the excited state density for this state as the 1-particle RhoCI density.

 Excited State   2:      Singlet-A      1.8898 eV  656.07 nm  f=0.0193  <S**2>=0.000
     175 ->177         0.52950
     176 ->178         0.43969

 Excited State   3:      Singlet-A      2.8432 eV  436.07 nm  f=0.5118  <S**2>=0.000
     175 ->177        -0.30424
     176 ->178         0.44939
     176 ->179         0.38694

 Excited State   4:      Singlet-A      3.0116 eV  411.69 nm  f=0.0006  <S**2>=0.000
     169 ->177         0.23248
     169 ->179        -0.27504
     169 ->181        -0.25688
     169 ->182         0.38925
     169 ->185        -0.22911
     169 ->187         0.16366

 Excited State   5:      Singlet-A      3.0550 eV  405.84 nm  f=0.0029  <S**2>=0.000
     168 ->177         0.26681
     168 ->178         0.19191
     168 ->179         0.38999
     168 ->182         0.18234
     168 ->183        -0.14395
     168 ->185         0.18713
     170 ->179        -0.11469
     171 ->177        -0.11197

 The electronic state is 1-A.
 Alpha  occ. eigenvalues --   -1.82830  -1.81813  -1.78796  -1.73620  -1.71759
 Alpha  occ. eigenvalues --   -1.69588  -1.67534  -1.62575  -1.59632  -1.57841
 Alpha  occ. eigenvalues --   -1.56735  -1.50719  -1.49336  -1.48983  -1.47030
 Alpha  occ. eigenvalues --   -1.44612  -1.44006  -1.40406  -1.38616  -1.37384
 Alpha  occ. eigenvalues --   -1.35199  -1.33646  -1.32395  -1.30723  -1.28736
 Alpha  occ. eigenvalues --   -1.26925  -1.25607  -1.22163  -1.19435  -1.18158
 Alpha  occ. eigenvalues --   -1.17483  -1.16704  -1.15962  -1.14560  -1.14076
 Alpha  occ. eigenvalues --   -1.12274  -1.11297  -1.09181  -1.04808  -1.03838
 Alpha  occ. eigenvalues --   -1.02672  -1.01694  -0.98714  -0.97618  -0.97143
 Alpha  occ. eigenvalues --   -0.96243  -0.94669  -0.93965  -0.92958  -0.92832
 Alpha  occ. eigenvalues --   -0.91728  -0.90953  -0.89201  -0.86831  -0.86624
 Alpha  occ. eigenvalues --   -0.84469  -0.84105  -0.83699  -0.82412  -0.79921
 Alpha  occ. eigenvalues --   -0.79769  -0.79622  -0.77699  -0.77252  -0.76623
 Alpha  occ. eigenvalues --   -0.75972  -0.75434  -0.74831  -0.74427  -0.74018
 Alpha  occ. eigenvalues --   -0.72894  -0.72648  -0.71636  -0.71039  -0.70795
 Alpha  occ. eigenvalues --   -0.70248  -0.69809  -0.69220  -0.68364  -0.68007
 Alpha  occ. eigenvalues --   -0.66672  -0.66572  -0.66510  -0.66147  -0.65897
 Alpha  occ. eigenvalues --   -0.65130  -0.64929  -0.64627  -0.64268  -0.63996
 Alpha  occ. eigenvalues --   -0.63598  -0.63130  -0.62767  -0.62426  -0.61988
 Alpha  occ. eigenvalues --   -0.61628  -0.60921  -0.60506  -0.60276  -0.60101
 Alpha  occ. eigenvalues --   -0.59544  -0.59022  -0.58732  -0.58508  -0.58093
 Alpha  occ. eigenvalues --   -0.57904  -0.57812  -0.57274  -0.57141  -0.56962
 Alpha  occ. eigenvalues --   -0.56376  -0.56119  -0.55435  -0.55308  -0.55168
 Alpha  occ. eigenvalues --   -0.54584  -0.53946  -0.53600  -0.53567  -0.53129
 Alpha  occ. eigenvalues --   -0.52777  -0.52317  -0.52114  -0.51792  -0.51542
 Alpha  occ. eigenvalues --   -0.51509  -0.51358  -0.51172  -0.51045  -0.50449
 Alpha  occ. eigenvalues --   -0.50299  -0.49874  -0.49578  -0.49306  -0.49082
 Alpha  occ. eigenvalues --   -0.48945  -0.48437  -0.48249  -0.48009  -0.47886
 Alpha  occ. eigenvalues --   -0.47296  -0.47246  -0.46870  -0.46680  -0.46625
 Alpha  occ. eigenvalues --   -0.46408  -0.46232  -0.45912  -0.45581  -0.45069
 Alpha  occ. eigenvalues --   -0.44816  -0.44759  -0.44662  -0.44038  -0.43598
 Alpha  occ. eigenvalues --   -0.43457  -0.43161  -0.42846  -0.42672  -0.42639
 Alpha  occ. eigenvalues --   -0.42133  -0.41717  -0.41115  -0.39944  -0.39398
 Alpha  occ. eigenvalues --   -0.39102  -0.37474  -0.36015  -0.35310  -0.35138
 Alpha  occ. eigenvalues --   -0.33223  -0.32721  -0.32486  -0.31648  -0.26899
 Alpha  occ. eigenvalues --   -0.21781
 Alpha virt. eigenvalues --   -0.08625  -0.02561  -0.00462   0.00745   0.01267
 Alpha virt. eigenvalues --    0.01314   0.02098   0.02386   0.04515   0.05050
 Alpha virt. eigenvalues --    0.05669   0.06442   0.06957   0.07418   0.07522

 Mulliken charges:
               1
     1  Mg   0.430873
     2  C   -0.062004
     3  C   -0.076397
     4  C   -0.075729
     5  C   -0.052647
     6  N   -0.285877
     7  C    0.111123
     8  C    0.011217
     9  C    0.013250
    10  C    0.135593
    11  C   -0.053508
    12  C   -0.022495
    13  C    0.000208
    14  C    0.462424
    15  O   -0.499994
    16  O   -0.293617
    17  N   -0.338852
    18  C    0.122164
    19  C    0.029325
    20  C   -0.047127
    21  C    0.136060
    22  C   -0.040468
    23  C    0.311440
    24  O   -0.499205
    25  C   -0.028903
    26  N   -0.291431
    27  C    0.154753
    28  C   -0.002095
    29  C    0.000805
    30  C    0.095751
    31  C   -0.060687
    32  C   -0.031440
    33  C   -0.057966
    34  N   -0.313517
    35  C    0.086246
    36  C    0.047383
    37  C   -0.047789
    38  C    0.115400
    39  C   -0.040207
    40  C    0.340114
    41  O   -0.518713
    42  C    0.052957
    43  C    0.495234
    44  O   -0.494985
    45  O   -0.274837
    46  C    0.072710
    47  C    0.109662
    48  C   -0.092076
    49  C   -0.006090
    50  C   -0.045604
    51  C   -0.023214
    52  C   -0.030600
    53  C   -0.031974
    54  C   -0.019477
    55  C   -0.059482
    56  C   -0.031165
    57  C   -0.037119
    58  C   -0.039023
    59  C   -0.009976
    60  C   -0.061776
    61  C   -0.023131
    62  C   -0.033357
    63  C   -0.037792
    64  C   -0.018805
    65  C   -0.062982
    66  C   -0.061172
    67  H    0.022850
    68  H    0.006760
    69  H    0.017802
    70  H    0.044851
    71  H    0.028116
    72  H    0.021020
    73  H    0.033326
    74  H    0.025146
    75  H    0.022446
    76  H    0.029905
    77  H    0.037489
    78  H    0.053897
    79  H    0.040253
    80  H    0.021390
    81  H    0.035572
    82  H    0.033722
    83  H    0.036544
    84  H    0.041114
    85  H    0.032999
    86  H    0.038305
    87  H    0.011210
    88  H    0.036141
    89  H    0.033497
    90  H    0.022641
    91  H    0.014692
    92  H    0.021403
    93  H    0.029268
    94  H    0.017284
    95  H    0.029449
    96  H    0.036589
    97  H    0.028792
    98  H    0.044134
    99  H    0.021977
   100  H    0.043562
   101  H    0.055368
   102  H    0.059917
   103  H    0.042976
   104  H    0.032721
   105  H    0.025581
   106  H    0.031357
   107  H    0.027741
   108  H    0.024522
   109  H    0.037433
   110  H    0.012934
   111  H    0.018708
   112  H    0.029342
   113  H    0.016194
   114  H    0.021804
   115  H    0.010187
   116  H    0.022429
   117  H    0.027228
   118  H    0.013746
   119  H    0.003423
   120  H    0.015204
   121  H    0.011971
   122  H    0.016835
   123  H    0.005877
   124  H    0.026793
   125  H    0.014507
   126  H    0.019062
   127  H    0.030404
   128  H    0.008730
   129  H    0.027470
   130  H    0.012506
   131  H    0.024050
   132  H    0.010257
   133  H    0.026843
   134  H    0.011247
   135  H    0.023695
   136  H    0.021340
   137  H    0.024879
   138  H    0.010943
   139  H    0.012829
   140  H    0.017414
 Sum of Mulliken charges =  -0.00000

 Dipole moment (field-independent basis, Debye):
    X=             -0.1011    Y=              4.0240    Z=              0.4667  Tot=              4.0522
 N-N= 4.243421700465D+03 E-N= 0.000000000000D+00  KE=-9.160563650112D+03
 Leave Link  601 at Fri Apr 29 02:51:28 2022, MaxMem=  6710886400 cpu:               2.0 elap:               0.1
 (Enter /sw/apps/gaussian-16.0/g16/l9999.exe)
 1\1\GINC-BP1-COMPUTE150\SP\RZINDO CIS\STO-3G\C55H74Mg1N4O6\OF15641\29-
 Apr-2022\0\\#p ZINDO=(nstates=5)\\step_1801_chromophore_5 ZINDO\\0,1\M
 g,0,25.379,-7.444,47.928\C,0,27.729,-4.988,46.927\C,0,23.326,-6.504,45
 .289\C,0,23.577,-10.232,48.36\C,0,27.817,-8.746,50.024\N,0,25.59,-6.07
 7,46.115\C,0,26.612,-5.078,45.979\C,0,26.326,-4.055,44.902\C,0,24.828,
 -4.45,44.604\C,0,24.567,-5.806,45.282\C,0,23.765,-3.315,45.011\C,0,27.
 343,-4.342,43.809\C,0,28.233,-3.177,43.249\C,0,27.806,-2.622,41.839\O,

 Normal termination of Gaussian 16 at Fri Apr 29 02:51:28 2022.
