 Gaussian 16, Revision A.03,
 Gaussian 16:  ES64L-G16RevA.03 25-Dec-2016

 ------------------------------
 #p blyp/Def2SVP td=(nstates=5)
 ------------------------------

 ---------------------------------------------------
 step_1551_chromophore_22 TDDFT with blyp functional
 ---------------------------------------------------
 Symbolic Z-matrix:
 Charge =  0 Multiplicity = 1

                         Standard orientation:
 ---------------------------------------------------------------------
 Center     Atomic      Atomic             Coordinates (Angstroms)
 Number     Number       Type             X           Y           Z
 ---------------------------------------------------------------------
      1         12           0        6.273237    0.638180    0.020237
      2          6           0        3.866895   -2.046879   -0.408469
      3          6           0        4.151595    2.645384   -1.601092
      4          6           0        8.481388    2.953974    0.451679
      5          6           0        8.693447   -1.830896    0.698033
      6          7           0        4.292671    0.338776   -0.928250
      7          6           0        3.409911   -0.790651   -0.844071
      8          6           0        2.092006   -0.395708   -1.461817
      9          6           0        2.373798    0.928292   -2.229740
     10          6           0        3.662925    1.354615   -1.532923
     11          6           0        2.633890    0.749385   -3.717509
     12          6           0        0.884990   -0.395984   -0.504914
     13          6           0       -0.362306   -1.049239   -1.055998
     14          6           0       -1.481279   -1.363244   -0.004896
     15          8           0       -1.485843   -1.124316    1.191606
     16          8           0       -2.558825   -1.928554   -0.647760
     17          7           0        6.244350    2.616426   -0.371364
     18          6           0        5.329391    3.277244   -1.109556
     19          6           0        5.654047    4.654590   -1.171400
     20          6           0        6.858144    4.816544   -0.476195
     21          6           0        7.247573    3.442142   -0.060653
     22          6           0        4.794160    5.671733   -1.978012
     23          6           0        7.757511    5.974123   -0.395860
     24          8           0        8.869333    5.942368    0.077702
     25          6           0        7.266354    7.291369   -0.934161
     26          7           0        8.337676    0.500904    0.402439
     27          6           0        8.947632    1.650379    0.605138
     28          6           0       10.375274    1.473111    1.164879
     29          6           0       10.479205   -0.081935    1.148133
     30          6           0        9.108273   -0.545061    0.663041
     31          6           0       11.500037    2.135649    0.271422
     32          6           0       10.889911   -0.644151    2.516338
     33          6           0       12.246275   -1.489876    2.461043
     34          7           0        6.300030   -1.497888    0.171850
     35          6           0        7.351545   -2.304814    0.530992
     36          6           0        6.825285   -3.696771    0.696722
     37          6           0        5.402180   -3.598745    0.358753
     38          6           0        5.178303   -2.287883    0.113638
     39          6           0        7.562569   -4.882953    1.148268
     40          6           0        4.151458   -4.413640    0.269069
     41          8           0        3.956256   -5.626233    0.465376
     42          6           0        3.084571   -3.384953   -0.158159
     43          6           0        2.066961   -3.353680    0.947670
     44          8           0        2.124507   -2.692799    1.926606
     45          8           0        0.986187   -4.072313    0.593913
     46          6           0        0.047098   -4.358750    1.699817
     47          6           0       -3.554097   -2.270381    0.320704
     48          6           0       -4.868369   -2.256090   -0.377820
     49          6           0       -5.942318   -3.110103   -0.527922
     50          6           0       -6.198723   -4.432804    0.177914
     51          6           0       -7.138911   -2.801654   -1.414301
     52          6           0       -8.450132   -2.194487   -0.772796
     53          6           0       -9.045581   -1.015770   -1.635521
     54          6           0      -10.413024   -1.294960   -2.264225
     55          6           0      -10.287921   -1.991738   -3.650616
     56          6           0      -11.174263    0.043842   -2.436243
     57          6           0      -12.051476    0.250912   -1.160128
     58          6           0      -13.563339    0.308976   -1.536658
     59          6           0      -14.345691    1.379094   -0.783639
     60          6           0      -15.795041    1.542147   -1.379404
     61          6           0      -14.330306    1.019497    0.742316
     62          6           0      -13.631636    2.224014    1.541235
     63          6           0      -14.385886    2.317169    2.934050
     64          6           0      -14.330571    3.708151    3.573816
     65          6           0      -12.893444    4.126965    4.003162
     66          6           0      -15.369236    3.793895    4.684497
     67          1           0        3.431929    3.220491   -2.188247
     68          1           0        9.283408    3.687974    0.552458
     69          1           0        9.375080   -2.565272    1.132637
     70          1           0        1.900466   -1.099864   -2.271972
     71          1           0        1.612937    1.708251   -2.197728
     72          1           0        1.693113    0.571126   -4.238869
     73          1           0        3.220441   -0.161577   -3.834487
     74          1           0        3.099336    1.601036   -4.213481
     75          1           0        0.541778    0.625020   -0.341460
     76          1           0        1.167819   -0.767543    0.479755
     77          1           0       -0.088737   -2.027232   -1.452207
     78          1           0       -0.837985   -0.478728   -1.853887
     79          1           0        3.765481    5.313170   -2.009734
     80          1           0        5.136628    5.891119   -2.989892
     81          1           0        4.857154    6.578677   -1.377834
     82          1           0        6.933392    7.086172   -1.951590
     83          1           0        8.070464    8.025769   -0.967103
     84          1           0        6.431000    7.787305   -0.439931
     85          1           0       10.400357    1.911243    2.162555
     86          1           0       11.048006   -0.518613    0.328395
     87          1           0       11.872094    2.953769    0.887847
     88          1           0       11.051915    2.532311   -0.638588
     89          1           0       12.264830    1.484007   -0.151128
     90          1           0       10.081926   -1.303126    2.836788
     91          1           0       11.011985    0.112030    3.291141
     92          1           0       12.659944   -1.432814    1.454763
     93          1           0       11.994666   -2.517537    2.721828
     94          1           0       12.974530   -1.017959    3.121791
     95          1           0        6.856053   -5.698273    1.300485
     96          1           0        8.209044   -4.639139    1.992283
     97          1           0        8.148074   -5.162140    0.272667
     98          1           0        2.630571   -3.732991   -1.085671
     99          1           0       -0.092480   -5.434867    1.598550
    100          1           0       -0.898761   -3.825069    1.784570
    101          1           0        0.502513   -4.243306    2.683504
    102          1           0       -3.768775   -1.718435    1.235546
    103          1           0       -3.347154   -3.298582    0.616221
    104          1           0       -4.985296   -1.326190   -0.935106
    105          1           0       -7.204356   -4.342878    0.590029
    106          1           0       -5.457596   -4.610689    0.957295
    107          1           0       -6.234217   -5.144920   -0.645994
    108          1           0       -7.379657   -3.658216   -2.044776
    109          1           0       -6.726618   -2.092026   -2.132248
    110          1           0       -8.256167   -1.813496    0.229906
    111          1           0       -9.084970   -3.065118   -0.607166
    112          1           0       -8.395348   -0.877437   -2.499580
    113          1           0       -8.974643   -0.065692   -1.106731
    114          1           0      -10.991520   -1.972895   -1.636927
    115          1           0       -9.927435   -1.353280   -4.456386
    116          1           0      -11.305978   -2.332614   -3.839349
    117          1           0       -9.631696   -2.862293   -3.673819
    118          1           0      -11.690648    0.242723   -3.376112
    119          1           0      -10.441330    0.846495   -2.354898
    120          1           0      -11.605615    1.160283   -0.757963
    121          1           0      -11.999190   -0.489272   -0.361095
    122          1           0      -14.114068   -0.631212   -1.495757
    123          1           0      -13.649740    0.741001   -2.533645
    124          1           0      -13.873906    2.346941   -0.953330
    125          1           0      -15.941241    1.075693   -2.353460
    126          1           0      -15.888048    2.605972   -1.597937
    127          1           0      -16.649226    1.316453   -0.741384
    128          1           0      -13.780482    0.091970    0.904624
    129          1           0      -15.364543    0.988159    1.086661
    130          1           0      -13.734644    3.214524    1.098660
    131          1           0      -12.567756    2.109174    1.747963
    132          1           0      -14.006030    1.615058    3.676444
    133          1           0      -15.437578    2.066335    2.793348
    134          1           0      -14.573111    4.417354    2.782350
    135          1           0      -12.541623    4.941581    3.370920
    136          1           0      -12.125437    3.380895    3.794407
    137          1           0      -12.888487    4.516694    5.021602
    138          1           0      -16.104415    4.536531    4.376173
    139          1           0      -14.927092    4.038197    5.649734
    140          1           0      -15.934505    2.892510    4.922689
 ---------------------------------------------------------------------

 SCF Done:  E(RB-LYP) =  -3007.37638582     A.U. after   21 cycles

 Excitation energies and oscillator strengths:

 Excited State   1:      Singlet-A      1.7970 eV  689.96 nm  f=0.3092  <S**2>=0.000
     245 -> 248       -0.15452
     246 -> 247        0.69330
     246 <- 247       -0.15878
 This state for optimization and/or second-order correction.
 Total Energy, E(TD-HF/TD-DFT) =  -3007.31034823
 Copying the excited state density for this state as the 1-particle RhoCI density.

 Excited State   2:      Singlet-A      1.9433 eV  638.01 nm  f=0.0040  <S**2>=0.000
     244 -> 247        0.68825
     245 -> 247       -0.14523

 Excited State   3:      Singlet-A      2.0158 eV  615.06 nm  f=0.0705  <S**2>=0.000
     243 -> 247        0.30697
     244 -> 247        0.14826
     245 -> 247        0.57850
     246 -> 248        0.14694
     246 -> 249       -0.11338

 Excited State   4:      Singlet-A      2.0989 eV  590.72 nm  f=0.0213  <S**2>=0.000
     242 -> 247        0.17116
     243 -> 247        0.61596
     245 -> 247       -0.26979

 Excited State   5:      Singlet-A      2.1060 eV  588.72 nm  f=0.0014  <S**2>=0.000
     242 -> 247        0.68595
     243 -> 247       -0.14817

 The electronic state is 1-A.
 Alpha  occ. eigenvalues --  -46.26820 -18.82981 -18.82221 -18.77689 -18.76494
 Alpha  occ. eigenvalues --  -18.76262 -18.75385 -14.02931 -14.02763 -14.01111
 Alpha  occ. eigenvalues --  -14.00444 -10.04665 -10.03638 -10.00352  -9.99368
 Alpha  occ. eigenvalues --   -9.97684  -9.97108  -9.96748  -9.95995  -9.95929
 Alpha  occ. eigenvalues --   -9.95923  -9.95587  -9.95577  -9.95567  -9.94361
 Alpha  occ. eigenvalues --   -9.94117  -9.94101  -9.94087  -9.94083  -9.94001
 Alpha  occ. eigenvalues --   -9.93991  -9.93664  -9.93634  -9.93496  -9.93074
 Alpha  occ. eigenvalues --   -9.92916  -9.92659  -9.92588  -9.92533  -9.92502
 Alpha  occ. eigenvalues --   -9.92492  -9.92417  -9.92164  -9.92000  -9.91985
 Alpha  occ. eigenvalues --   -9.91960  -9.91939  -9.91921  -9.91802  -9.91704
 Alpha  occ. eigenvalues --   -9.91515  -9.91448  -9.91447  -9.91442  -9.91421
 Alpha  occ. eigenvalues --   -9.91344  -9.91224  -9.91203  -9.90995  -9.90923
 Alpha  occ. eigenvalues --   -9.90818  -9.90751  -9.90632  -9.90567  -9.90513
 Alpha  occ. eigenvalues --   -9.90420  -2.91525  -1.71953  -1.71401  -1.71240
 Alpha  occ. eigenvalues --   -0.99383  -0.99189  -0.92288  -0.90952  -0.90817
 Alpha  occ. eigenvalues --   -0.90523  -0.87958  -0.87031  -0.85426  -0.84546
 Alpha  occ. eigenvalues --   -0.75251  -0.73337  -0.73159  -0.72469  -0.72446
 Alpha  occ. eigenvalues --   -0.71799  -0.71726  -0.71068  -0.70802  -0.70735
 Alpha  occ. eigenvalues --   -0.69725  -0.69275  -0.68020  -0.67402  -0.66750
 Alpha  occ. eigenvalues --   -0.66178  -0.65673  -0.65219  -0.64879  -0.64384
 Alpha  occ. eigenvalues --   -0.63720  -0.62716  -0.62481  -0.61893  -0.60899
 Alpha  occ. eigenvalues --   -0.60168  -0.60068  -0.59964  -0.59353  -0.58413
 Alpha  occ. eigenvalues --   -0.57952  -0.57211  -0.56607  -0.55599  -0.54508
 Alpha  occ. eigenvalues --   -0.54053  -0.53393  -0.53259  -0.52399  -0.52263
 Alpha  occ. eigenvalues --   -0.51813  -0.51365  -0.50983  -0.50339  -0.50120
 Alpha  occ. eigenvalues --   -0.49922  -0.49179  -0.48567  -0.47898  -0.46918
 Alpha  occ. eigenvalues --   -0.46564  -0.46143  -0.45877  -0.45136  -0.44779
 Alpha  occ. eigenvalues --   -0.44145  -0.43799  -0.43103  -0.42905  -0.42438
 Alpha  occ. eigenvalues --   -0.41933  -0.41803  -0.41676  -0.41487  -0.41039
 Alpha  occ. eigenvalues --   -0.40778  -0.40521  -0.40231  -0.40173  -0.40053
 Alpha  occ. eigenvalues --   -0.39809  -0.39711  -0.39300  -0.39137  -0.39087
 Alpha  occ. eigenvalues --   -0.38836  -0.38677  -0.38522  -0.38347  -0.38237
 Alpha  occ. eigenvalues --   -0.37961  -0.37577  -0.37274  -0.37152  -0.37066
 Alpha  occ. eigenvalues --   -0.36799  -0.36691  -0.36567  -0.36489  -0.36330
 Alpha  occ. eigenvalues --   -0.36280  -0.36168  -0.35924  -0.35817  -0.35570
 Alpha  occ. eigenvalues --   -0.35414  -0.35259  -0.35152  -0.34804  -0.34488
 Alpha  occ. eigenvalues --   -0.34348  -0.34228  -0.34146  -0.33929  -0.33864
 Alpha  occ. eigenvalues --   -0.33776  -0.33441  -0.33255  -0.33233  -0.33065
 Alpha  occ. eigenvalues --   -0.32800  -0.32736  -0.32387  -0.32248  -0.32239
 Alpha  occ. eigenvalues --   -0.32016  -0.31993  -0.31852  -0.31711  -0.31493
 Alpha  occ. eigenvalues --   -0.31267  -0.31178  -0.30931  -0.30861  -0.30633
 Alpha  occ. eigenvalues --   -0.30528  -0.30426  -0.30376  -0.30166  -0.29988
 Alpha  occ. eigenvalues --   -0.29955  -0.29681  -0.29593  -0.29391  -0.29357
 Alpha  occ. eigenvalues --   -0.28924  -0.28265  -0.28172  -0.27931  -0.27527
 Alpha  occ. eigenvalues --   -0.27380  -0.27100  -0.26955  -0.26630  -0.26596
 Alpha  occ. eigenvalues --   -0.26466  -0.26309  -0.26047  -0.25578  -0.25529
 Alpha  occ. eigenvalues --   -0.25326  -0.25202  -0.23813  -0.23745  -0.23098
 Alpha  occ. eigenvalues --   -0.22937  -0.22498  -0.22442  -0.22104  -0.21342
 Alpha  occ. eigenvalues --   -0.19720  -0.19395  -0.19219  -0.18707  -0.17250
 Alpha  occ. eigenvalues --   -0.15801
 Alpha virt. eigenvalues --   -0.11658  -0.06606  -0.06256  -0.04511  -0.03061
 Alpha virt. eigenvalues --   -0.01968  -0.01581  -0.01423  -0.00937   0.00008
 Alpha virt. eigenvalues --    0.01346   0.01807   0.02559   0.02926   0.03138

 Mulliken charges:
               1
     1  Mg   0.704110
     2  C   -0.033564
     3  C   -0.057438
     4  C   -0.037119
     5  C   -0.086885
     6  N   -0.222914
     7  C   -0.039559
     8  C    0.055659
     9  C   -0.004920
    10  C   -0.022898
    11  C    0.127472
    12  C    0.145353
    13  C    0.073094
    14  C    0.099478
    15  O   -0.188748
    16  O   -0.252080
    17  N   -0.285121
    18  C    0.161745
    19  C   -0.141785
    20  C    0.064064
    21  C    0.088644
    22  C    0.159945
    23  C   -0.094464
    24  O   -0.144289
    25  C    0.104502
    26  N   -0.179235
    27  C    0.016896
    28  C   -0.020416
    29  C    0.087307
    30  C   -0.009040
    31  C    0.115380
    32  C    0.073771
    33  C    0.049898
    34  N   -0.247070
    35  C    0.089515
    36  C   -0.197834
    37  C    0.028199
    38  C    0.110531
    39  C    0.192503
    40  C   -0.032556
    41  O   -0.149144
    42  C    0.092409
    43  C    0.101865
    44  O   -0.139229
    45  O   -0.258678
    46  C    0.192627
    47  C    0.352266
    48  C   -0.121254
    49  C   -0.178283
    50  C    0.169602
    51  C    0.067770
    52  C    0.102732
    53  C    0.108297
    54  C   -0.067916
    55  C    0.089163
    56  C    0.123050
    57  C    0.054887
    58  C    0.081661
    59  C   -0.083295
    60  C    0.099448
    61  C    0.141774
    62  C    0.047328
    63  C    0.045946
    64  C   -0.083138
    65  C    0.104358
    66  C    0.118737
    67  H   -0.080244
    68  H   -0.043543
    69  H   -0.064025
    70  H   -0.041931
    71  H   -0.039265
    72  H   -0.013504
    73  H   -0.005741
    74  H   -0.006615
    75  H   -0.028068
    76  H    0.015042
    77  H    0.004422
    78  H    0.005021
    79  H   -0.005856
    80  H    0.022218
    81  H   -0.009010
    82  H   -0.008227
    83  H   -0.015016
    84  H    0.020189
    85  H   -0.005640
    86  H   -0.020943
    87  H    0.006965
    88  H   -0.007662
    89  H   -0.008804
    90  H   -0.019460
    91  H   -0.017999
    92  H   -0.008870
    93  H    0.003842
    94  H   -0.003272
    95  H    0.006834
    96  H    0.006457
    97  H   -0.002091
    98  H   -0.004927
    99  H    0.012966
   100  H    0.032722
   101  H    0.015575
   102  H    0.025642
   103  H   -0.024085
   104  H   -0.051692
   105  H   -0.008521
   106  H   -0.013186
   107  H   -0.005119
   108  H   -0.023560
   109  H   -0.035051
   110  H   -0.028160
   111  H   -0.021562
   112  H   -0.036496
   113  H   -0.030635
   114  H   -0.032509
   115  H   -0.013699
   116  H   -0.014019
   117  H   -0.024684
   118  H   -0.027998
   119  H   -0.048212
   120  H   -0.031882
   121  H   -0.016553
   122  H   -0.023447
   123  H   -0.040958
   124  H   -0.033661
   125  H   -0.023237
   126  H   -0.028712
   127  H   -0.014692
   128  H   -0.021256
   129  H   -0.029849
   130  H   -0.028275
   131  H   -0.020789
   132  H   -0.031930
   133  H   -0.033307
   134  H   -0.039027
   135  H   -0.029279
   136  H   -0.016730
   137  H   -0.015309
   138  H   -0.013847
   139  H   -0.025795
   140  H   -0.022569
 Sum of Mulliken charges =  -0.00000

 Dipole moment (field-independent basis, Debye):
    X=             -1.8560    Y=              1.9413    Z=             -2.6758  Tot=              3.7912
 Quadrupole moment (field-independent basis, Debye-Ang):
   XX=           -382.4950   YY=           -421.2139   ZZ=           -402.7236
   XY=             -3.5201   XZ=              1.8580   YZ=            -10.3061

 Normal termination of Gaussian 16 at Thu Apr 28 12:48:17 2022.
