 Gaussian 16, Revision A.03,
 Gaussian 16:  ES64L-G16RevA.03 25-Dec-2016

 -----------------------------------
 #p cam-b3lyp/Def2SVP td=(nstates=5)
 -----------------------------------

 --------------------------------------------------------
 step_1551_chromophore_22 TDDFT with cam-b3lyp functional
 --------------------------------------------------------
 Symbolic Z-matrix:
 Charge =  0 Multiplicity = 1

                         Standard orientation:
 ---------------------------------------------------------------------
 Center     Atomic      Atomic             Coordinates (Angstroms)
 Number     Number       Type             X           Y           Z
 ---------------------------------------------------------------------
      1         12           0        6.273237    0.638180    0.020237
      2          6           0        3.866895   -2.046879   -0.408469
      3          6           0        4.151595    2.645384   -1.601092
      4          6           0        8.481388    2.953974    0.451679
      5          6           0        8.693447   -1.830896    0.698033
      6          7           0        4.292671    0.338776   -0.928250
      7          6           0        3.409911   -0.790651   -0.844071
      8          6           0        2.092006   -0.395708   -1.461817
      9          6           0        2.373798    0.928292   -2.229740
     10          6           0        3.662925    1.354615   -1.532923
     11          6           0        2.633890    0.749385   -3.717509
     12          6           0        0.884990   -0.395984   -0.504914
     13          6           0       -0.362306   -1.049239   -1.055998
     14          6           0       -1.481279   -1.363244   -0.004896
     15          8           0       -1.485843   -1.124316    1.191606
     16          8           0       -2.558825   -1.928554   -0.647760
     17          7           0        6.244350    2.616426   -0.371364
     18          6           0        5.329391    3.277244   -1.109556
     19          6           0        5.654047    4.654590   -1.171400
     20          6           0        6.858144    4.816544   -0.476195
     21          6           0        7.247573    3.442142   -0.060653
     22          6           0        4.794160    5.671733   -1.978012
     23          6           0        7.757511    5.974123   -0.395860
     24          8           0        8.869333    5.942368    0.077702
     25          6           0        7.266354    7.291369   -0.934161
     26          7           0        8.337676    0.500904    0.402439
     27          6           0        8.947632    1.650379    0.605138
     28          6           0       10.375274    1.473111    1.164879
     29          6           0       10.479205   -0.081935    1.148133
     30          6           0        9.108273   -0.545061    0.663041
     31          6           0       11.500037    2.135649    0.271422
     32          6           0       10.889911   -0.644151    2.516338
     33          6           0       12.246275   -1.489876    2.461043
     34          7           0        6.300030   -1.497888    0.171850
     35          6           0        7.351545   -2.304814    0.530992
     36          6           0        6.825285   -3.696771    0.696722
     37          6           0        5.402180   -3.598745    0.358753
     38          6           0        5.178303   -2.287883    0.113638
     39          6           0        7.562569   -4.882953    1.148268
     40          6           0        4.151458   -4.413640    0.269069
     41          8           0        3.956256   -5.626233    0.465376
     42          6           0        3.084571   -3.384953   -0.158159
     43          6           0        2.066961   -3.353680    0.947670
     44          8           0        2.124507   -2.692799    1.926606
     45          8           0        0.986187   -4.072313    0.593913
     46          6           0        0.047098   -4.358750    1.699817
     47          6           0       -3.554097   -2.270381    0.320704
     48          6           0       -4.868369   -2.256090   -0.377820
     49          6           0       -5.942318   -3.110103   -0.527922
     50          6           0       -6.198723   -4.432804    0.177914
     51          6           0       -7.138911   -2.801654   -1.414301
     52          6           0       -8.450132   -2.194487   -0.772796
     53          6           0       -9.045581   -1.015770   -1.635521
     54          6           0      -10.413024   -1.294960   -2.264225
     55          6           0      -10.287921   -1.991738   -3.650616
     56          6           0      -11.174263    0.043842   -2.436243
     57          6           0      -12.051476    0.250912   -1.160128
     58          6           0      -13.563339    0.308976   -1.536658
     59          6           0      -14.345691    1.379094   -0.783639
     60          6           0      -15.795041    1.542147   -1.379404
     61          6           0      -14.330306    1.019497    0.742316
     62          6           0      -13.631636    2.224014    1.541235
     63          6           0      -14.385886    2.317169    2.934050
     64          6           0      -14.330571    3.708151    3.573816
     65          6           0      -12.893444    4.126965    4.003162
     66          6           0      -15.369236    3.793895    4.684497
     67          1           0        3.431929    3.220491   -2.188247
     68          1           0        9.283408    3.687974    0.552458
     69          1           0        9.375080   -2.565272    1.132637
     70          1           0        1.900466   -1.099864   -2.271972
     71          1           0        1.612937    1.708251   -2.197728
     72          1           0        1.693113    0.571126   -4.238869
     73          1           0        3.220441   -0.161577   -3.834487
     74          1           0        3.099336    1.601036   -4.213481
     75          1           0        0.541778    0.625020   -0.341460
     76          1           0        1.167819   -0.767543    0.479755
     77          1           0       -0.088737   -2.027232   -1.452207
     78          1           0       -0.837985   -0.478728   -1.853887
     79          1           0        3.765481    5.313170   -2.009734
     80          1           0        5.136628    5.891119   -2.989892
     81          1           0        4.857154    6.578677   -1.377834
     82          1           0        6.933392    7.086172   -1.951590
     83          1           0        8.070464    8.025769   -0.967103
     84          1           0        6.431000    7.787305   -0.439931
     85          1           0       10.400357    1.911243    2.162555
     86          1           0       11.048006   -0.518613    0.328395
     87          1           0       11.872094    2.953769    0.887847
     88          1           0       11.051915    2.532311   -0.638588
     89          1           0       12.264830    1.484007   -0.151128
     90          1           0       10.081926   -1.303126    2.836788
     91          1           0       11.011985    0.112030    3.291141
     92          1           0       12.659944   -1.432814    1.454763
     93          1           0       11.994666   -2.517537    2.721828
     94          1           0       12.974530   -1.017959    3.121791
     95          1           0        6.856053   -5.698273    1.300485
     96          1           0        8.209044   -4.639139    1.992283
     97          1           0        8.148074   -5.162140    0.272667
     98          1           0        2.630571   -3.732991   -1.085671
     99          1           0       -0.092480   -5.434867    1.598550
    100          1           0       -0.898761   -3.825069    1.784570
    101          1           0        0.502513   -4.243306    2.683504
    102          1           0       -3.768775   -1.718435    1.235546
    103          1           0       -3.347154   -3.298582    0.616221
    104          1           0       -4.985296   -1.326190   -0.935106
    105          1           0       -7.204356   -4.342878    0.590029
    106          1           0       -5.457596   -4.610689    0.957295
    107          1           0       -6.234217   -5.144920   -0.645994
    108          1           0       -7.379657   -3.658216   -2.044776
    109          1           0       -6.726618   -2.092026   -2.132248
    110          1           0       -8.256167   -1.813496    0.229906
    111          1           0       -9.084970   -3.065118   -0.607166
    112          1           0       -8.395348   -0.877437   -2.499580
    113          1           0       -8.974643   -0.065692   -1.106731
    114          1           0      -10.991520   -1.972895   -1.636927
    115          1           0       -9.927435   -1.353280   -4.456386
    116          1           0      -11.305978   -2.332614   -3.839349
    117          1           0       -9.631696   -2.862293   -3.673819
    118          1           0      -11.690648    0.242723   -3.376112
    119          1           0      -10.441330    0.846495   -2.354898
    120          1           0      -11.605615    1.160283   -0.757963
    121          1           0      -11.999190   -0.489272   -0.361095
    122          1           0      -14.114068   -0.631212   -1.495757
    123          1           0      -13.649740    0.741001   -2.533645
    124          1           0      -13.873906    2.346941   -0.953330
    125          1           0      -15.941241    1.075693   -2.353460
    126          1           0      -15.888048    2.605972   -1.597937
    127          1           0      -16.649226    1.316453   -0.741384
    128          1           0      -13.780482    0.091970    0.904624
    129          1           0      -15.364543    0.988159    1.086661
    130          1           0      -13.734644    3.214524    1.098660
    131          1           0      -12.567756    2.109174    1.747963
    132          1           0      -14.006030    1.615058    3.676444
    133          1           0      -15.437578    2.066335    2.793348
    134          1           0      -14.573111    4.417354    2.782350
    135          1           0      -12.541623    4.941581    3.370920
    136          1           0      -12.125437    3.380895    3.794407
    137          1           0      -12.888487    4.516694    5.021602
    138          1           0      -16.104415    4.536531    4.376173
    139          1           0      -14.927092    4.038197    5.649734
    140          1           0      -15.934505    2.892510    4.922689
 ---------------------------------------------------------------------

 SCF Done:  E(RCAM-B3LYP) =  -3007.17842509     A.U. after   18 cycles

 Excitation energies and oscillator strengths:

 Excited State   1:      Singlet-A      1.7050 eV  727.18 nm  f=0.3979  <S**2>=0.000
     245 -> 248       -0.16636
     246 -> 247        0.68838
     245 <- 248       -0.10268
 This state for optimization and/or second-order correction.
 Total Energy, E(TD-HF/TD-DFT) =  -3007.11576714
 Copying the excited state density for this state as the 1-particle RhoCI density.

 Excited State   2:      Singlet-A      2.2303 eV  555.90 nm  f=0.1530  <S**2>=0.000
     245 -> 247        0.65371
     246 -> 248        0.25135

 Excited State   3:      Singlet-A      3.1656 eV  391.66 nm  f=0.0121  <S**2>=0.000
     244 -> 247        0.68727

 Excited State   4:      Singlet-A      3.5776 eV  346.56 nm  f=0.2299  <S**2>=0.000
     239 -> 247       -0.13126
     240 -> 247        0.26416
     240 -> 249        0.11499
     240 -> 250        0.11909
     241 -> 247       -0.18740
     242 -> 247       -0.29596
     245 -> 247       -0.15367
     246 -> 248        0.46929

 Excited State   5:      Singlet-A      3.6112 eV  343.34 nm  f=0.0702  <S**2>=0.000
     239 -> 247        0.11284
     240 -> 247        0.51355
     240 -> 248        0.14982
     240 -> 249        0.20318
     240 -> 250        0.21096
     242 -> 247        0.17723
     246 -> 248       -0.24183

 The electronic state is 1-A.
 Alpha  occ. eigenvalues --  -46.88321 -19.25829 -19.25067 -19.20625 -19.19486
 Alpha  occ. eigenvalues --  -19.19313 -19.18908 -14.41906 -14.41500 -14.39729
 Alpha  occ. eigenvalues --  -14.38600 -10.39962 -10.38853 -10.35592 -10.34797
 Alpha  occ. eigenvalues --  -10.31613 -10.31111 -10.31055 -10.30705 -10.30603
 Alpha  occ. eigenvalues --  -10.30558 -10.30249 -10.29646 -10.29450 -10.29078
 Alpha  occ. eigenvalues --  -10.28610 -10.28428 -10.28130 -10.28082 -10.28078
 Alpha  occ. eigenvalues --  -10.27917 -10.27784 -10.27666 -10.27587 -10.27222
 Alpha  occ. eigenvalues --  -10.27109 -10.26833 -10.26796 -10.26416 -10.26398
 Alpha  occ. eigenvalues --  -10.26264 -10.26173 -10.25924 -10.25886 -10.25754
 Alpha  occ. eigenvalues --  -10.25691 -10.25634 -10.25633 -10.25535 -10.25501
 Alpha  occ. eigenvalues --  -10.25459 -10.25267 -10.25182 -10.25136 -10.25100
 Alpha  occ. eigenvalues --  -10.25074 -10.24948 -10.24871 -10.24710 -10.24666
 Alpha  occ. eigenvalues --  -10.24422 -10.24392 -10.24249 -10.24189 -10.24168
 Alpha  occ. eigenvalues --  -10.23989  -3.16933  -1.91836  -1.91382  -1.91243
 Alpha  occ. eigenvalues --   -1.17825  -1.17733  -1.11032  -1.08835  -1.08722
 Alpha  occ. eigenvalues --   -1.08656  -1.05752  -1.04916  -1.03078  -1.01827
 Alpha  occ. eigenvalues --   -0.92228  -0.90163  -0.89964  -0.89252  -0.89233
 Alpha  occ. eigenvalues --   -0.88451  -0.88425  -0.87806  -0.87640  -0.87330
 Alpha  occ. eigenvalues --   -0.86190  -0.85442  -0.84205  -0.83503  -0.82900
 Alpha  occ. eigenvalues --   -0.82180  -0.81675  -0.81280  -0.80800  -0.80376
 Alpha  occ. eigenvalues --   -0.79506  -0.78716  -0.78041  -0.77325  -0.76254
 Alpha  occ. eigenvalues --   -0.75543  -0.75395  -0.75300  -0.74626  -0.73569
 Alpha  occ. eigenvalues --   -0.73001  -0.72091  -0.71474  -0.70403  -0.69116
 Alpha  occ. eigenvalues --   -0.68799  -0.67912  -0.67700  -0.66794  -0.66311
 Alpha  occ. eigenvalues --   -0.66102  -0.65555  -0.64984  -0.64355  -0.63948
 Alpha  occ. eigenvalues --   -0.63906  -0.63178  -0.62198  -0.61721  -0.60806
 Alpha  occ. eigenvalues --   -0.60230  -0.59715  -0.59341  -0.58795  -0.58133
 Alpha  occ. eigenvalues --   -0.57544  -0.57241  -0.56364  -0.56243  -0.55581
 Alpha  occ. eigenvalues --   -0.55175  -0.54953  -0.54611  -0.54334  -0.53914
 Alpha  occ. eigenvalues --   -0.53691  -0.53477  -0.53276  -0.53022  -0.52786
 Alpha  occ. eigenvalues --   -0.52653  -0.52600  -0.52004  -0.51648  -0.51583
 Alpha  occ. eigenvalues --   -0.51292  -0.51098  -0.50866  -0.50724  -0.50654
 Alpha  occ. eigenvalues --   -0.50274  -0.50156  -0.49742  -0.49671  -0.49455
 Alpha  occ. eigenvalues --   -0.49326  -0.49300  -0.48818  -0.48665  -0.48602
 Alpha  occ. eigenvalues --   -0.48544  -0.48381  -0.48202  -0.48060  -0.47698
 Alpha  occ. eigenvalues --   -0.47532  -0.47195  -0.47155  -0.46633  -0.46352
 Alpha  occ. eigenvalues --   -0.46221  -0.46117  -0.45930  -0.45765  -0.45647
 Alpha  occ. eigenvalues --   -0.45604  -0.45382  -0.45053  -0.44843  -0.44803
 Alpha  occ. eigenvalues --   -0.44407  -0.44265  -0.44011  -0.43957  -0.43778
 Alpha  occ. eigenvalues --   -0.43745  -0.43693  -0.43593  -0.43327  -0.43058
 Alpha  occ. eigenvalues --   -0.42827  -0.42597  -0.42402  -0.42256  -0.42123
 Alpha  occ. eigenvalues --   -0.41978  -0.41784  -0.41678  -0.41638  -0.41421
 Alpha  occ. eigenvalues --   -0.41130  -0.40981  -0.40858  -0.40697  -0.40465
 Alpha  occ. eigenvalues --   -0.39978  -0.39400  -0.39152  -0.38947  -0.38423
 Alpha  occ. eigenvalues --   -0.38210  -0.38079  -0.37932  -0.37687  -0.37421
 Alpha  occ. eigenvalues --   -0.37390  -0.37076  -0.36962  -0.36867  -0.36298
 Alpha  occ. eigenvalues --   -0.36211  -0.36110  -0.34975  -0.34531  -0.34134
 Alpha  occ. eigenvalues --   -0.33736  -0.33170  -0.32793  -0.31934  -0.31322
 Alpha  occ. eigenvalues --   -0.31120  -0.30809  -0.28981  -0.28488  -0.24013
 Alpha  occ. eigenvalues --   -0.21196
 Alpha virt. eigenvalues --   -0.08884  -0.01194   0.00284   0.02287   0.03053
 Alpha virt. eigenvalues --    0.04991   0.05667   0.06114   0.06499   0.06883
 Alpha virt. eigenvalues --    0.07988   0.08379   0.08973   0.09343   0.09475

 Mulliken charges:
               1
     1  Mg   0.837961
     2  C   -0.048178
     3  C   -0.073282
     4  C   -0.056684
     5  C   -0.087820
     6  N   -0.289109
     7  C   -0.009874
     8  C   -0.001833
     9  C   -0.057509
    10  C   -0.001058
    11  C    0.070652
    12  C    0.087105
    13  C    0.010433
    14  C    0.178091
    15  O   -0.229493
    16  O   -0.313899
    17  N   -0.378217
    18  C    0.172010
    19  C   -0.144880
    20  C   -0.004500
    21  C    0.116768
    22  C    0.109866
    23  C   -0.015229
    24  O   -0.183918
    25  C    0.022188
    26  N   -0.258259
    27  C    0.041562
    28  C   -0.075998
    29  C    0.026844
    30  C    0.015812
    31  C    0.057259
    32  C    0.014075
    33  C   -0.007601
    34  N   -0.333307
    35  C    0.092489
    36  C   -0.193694
    37  C   -0.049559
    38  C    0.145541
    39  C    0.132581
    40  C    0.063926
    41  O   -0.188861
    42  C    0.017813
    43  C    0.181943
    44  O   -0.175336
    45  O   -0.320603
    46  C    0.158989
    47  C    0.314070
    48  C   -0.140692
    49  C   -0.196997
    50  C    0.108426
    51  C    0.013423
    52  C    0.045673
    53  C    0.052554
    54  C   -0.121020
    55  C    0.035049
    56  C    0.063293
    57  C    0.003789
    58  C    0.027883
    59  C   -0.133708
    60  C    0.040506
    61  C    0.082878
    62  C   -0.001388
    63  C   -0.003702
    64  C   -0.141509
    65  C    0.043373
    66  C    0.054667
    67  H   -0.045914
    68  H   -0.003689
    69  H   -0.030181
    70  H   -0.004344
    71  H   -0.003498
    72  H    0.012422
    73  H    0.019163
    74  H    0.019269
    75  H    0.002880
    76  H    0.047925
    77  H    0.034366
    78  H    0.035303
    79  H    0.022660
    80  H    0.049443
    81  H    0.017663
    82  H    0.018722
    83  H    0.022273
    84  H    0.048344
    85  H    0.028613
    86  H    0.013880
    87  H    0.030017
    88  H    0.017788
    89  H    0.016846
    90  H    0.011349
    91  H    0.010490
    92  H    0.012689
    93  H    0.025617
    94  H    0.019704
    95  H    0.033844
    96  H    0.027957
    97  H    0.022959
    98  H    0.038349
    99  H    0.036358
   100  H    0.048851
   101  H    0.041874
   102  H    0.056319
   103  H    0.001503
   104  H   -0.018101
   105  H    0.014240
   106  H    0.010999
   107  H    0.019887
   108  H    0.004567
   109  H   -0.005332
   110  H    0.002282
   111  H    0.005140
   112  H   -0.007872
   113  H   -0.001250
   114  H   -0.002011
   115  H    0.009110
   116  H    0.009960
   117  H   -0.001557
   118  H    0.002409
   119  H   -0.017375
   120  H   -0.003506
   121  H    0.008125
   122  H    0.004829
   123  H   -0.013209
   124  H   -0.002535
   125  H    0.002322
   126  H   -0.004120
   127  H    0.009413
   128  H    0.006584
   129  H   -0.001558
   130  H   -0.002153
   131  H    0.003913
   132  H   -0.004317
   133  H   -0.005594
   134  H   -0.006976
   135  H   -0.004536
   136  H    0.007016
   137  H    0.009242
   138  H    0.010444
   139  H   -0.001067
   140  H    0.002999
 Sum of Mulliken charges =  -0.00000

 Dipole moment (field-independent basis, Debye):
    X=             -1.9945    Y=              3.1754    Z=             -3.0946  Tot=              4.8619
 Quadrupole moment (field-independent basis, Debye-Ang):
   XX=           -381.8896   YY=           -415.7587   ZZ=           -401.8905
   XY=              3.6516   XZ=              0.7773   YZ=            -12.2627

 Normal termination of Gaussian 16 at Thu Apr 28 11:53:18 2022.
