 Gaussian 16, Revision A.03,
 Gaussian 16:  ES64L-G16RevA.03 25-Dec-2016

 ---------------------------------
 #p PBE1PBE/Def2SVP td=(nstates=5)
 ---------------------------------

 ------------------------------------------------------
 step_1551_chromophore_22 TDDFT with PBE1PBE functional
 ------------------------------------------------------
 Symbolic Z-matrix:
 Charge =  0 Multiplicity = 1

                         Standard orientation:
 ---------------------------------------------------------------------
 Center     Atomic      Atomic             Coordinates (Angstroms)
 Number     Number       Type             X           Y           Z
 ---------------------------------------------------------------------
      1         12           0        6.273237    0.638180    0.020237
      2          6           0        3.866895   -2.046879   -0.408469
      3          6           0        4.151595    2.645384   -1.601092
      4          6           0        8.481388    2.953974    0.451679
      5          6           0        8.693447   -1.830896    0.698033
      6          7           0        4.292671    0.338776   -0.928250
      7          6           0        3.409911   -0.790651   -0.844071
      8          6           0        2.092006   -0.395708   -1.461817
      9          6           0        2.373798    0.928292   -2.229740
     10          6           0        3.662925    1.354615   -1.532923
     11          6           0        2.633890    0.749385   -3.717509
     12          6           0        0.884990   -0.395984   -0.504914
     13          6           0       -0.362306   -1.049239   -1.055998
     14          6           0       -1.481279   -1.363244   -0.004896
     15          8           0       -1.485843   -1.124316    1.191606
     16          8           0       -2.558825   -1.928554   -0.647760
     17          7           0        6.244350    2.616426   -0.371364
     18          6           0        5.329391    3.277244   -1.109556
     19          6           0        5.654047    4.654590   -1.171400
     20          6           0        6.858144    4.816544   -0.476195
     21          6           0        7.247573    3.442142   -0.060653
     22          6           0        4.794160    5.671733   -1.978012
     23          6           0        7.757511    5.974123   -0.395860
     24          8           0        8.869333    5.942368    0.077702
     25          6           0        7.266354    7.291369   -0.934161
     26          7           0        8.337676    0.500904    0.402439
     27          6           0        8.947632    1.650379    0.605138
     28          6           0       10.375274    1.473111    1.164879
     29          6           0       10.479205   -0.081935    1.148133
     30          6           0        9.108273   -0.545061    0.663041
     31          6           0       11.500037    2.135649    0.271422
     32          6           0       10.889911   -0.644151    2.516338
     33          6           0       12.246275   -1.489876    2.461043
     34          7           0        6.300030   -1.497888    0.171850
     35          6           0        7.351545   -2.304814    0.530992
     36          6           0        6.825285   -3.696771    0.696722
     37          6           0        5.402180   -3.598745    0.358753
     38          6           0        5.178303   -2.287883    0.113638
     39          6           0        7.562569   -4.882953    1.148268
     40          6           0        4.151458   -4.413640    0.269069
     41          8           0        3.956256   -5.626233    0.465376
     42          6           0        3.084571   -3.384953   -0.158159
     43          6           0        2.066961   -3.353680    0.947670
     44          8           0        2.124507   -2.692799    1.926606
     45          8           0        0.986187   -4.072313    0.593913
     46          6           0        0.047098   -4.358750    1.699817
     47          6           0       -3.554097   -2.270381    0.320704
     48          6           0       -4.868369   -2.256090   -0.377820
     49          6           0       -5.942318   -3.110103   -0.527922
     50          6           0       -6.198723   -4.432804    0.177914
     51          6           0       -7.138911   -2.801654   -1.414301
     52          6           0       -8.450132   -2.194487   -0.772796
     53          6           0       -9.045581   -1.015770   -1.635521
     54          6           0      -10.413024   -1.294960   -2.264225
     55          6           0      -10.287921   -1.991738   -3.650616
     56          6           0      -11.174263    0.043842   -2.436243
     57          6           0      -12.051476    0.250912   -1.160128
     58          6           0      -13.563339    0.308976   -1.536658
     59          6           0      -14.345691    1.379094   -0.783639
     60          6           0      -15.795041    1.542147   -1.379404
     61          6           0      -14.330306    1.019497    0.742316
     62          6           0      -13.631636    2.224014    1.541235
     63          6           0      -14.385886    2.317169    2.934050
     64          6           0      -14.330571    3.708151    3.573816
     65          6           0      -12.893444    4.126965    4.003162
     66          6           0      -15.369236    3.793895    4.684497
     67          1           0        3.431929    3.220491   -2.188247
     68          1           0        9.283408    3.687974    0.552458
     69          1           0        9.375080   -2.565272    1.132637
     70          1           0        1.900466   -1.099864   -2.271972
     71          1           0        1.612937    1.708251   -2.197728
     72          1           0        1.693113    0.571126   -4.238869
     73          1           0        3.220441   -0.161577   -3.834487
     74          1           0        3.099336    1.601036   -4.213481
     75          1           0        0.541778    0.625020   -0.341460
     76          1           0        1.167819   -0.767543    0.479755
     77          1           0       -0.088737   -2.027232   -1.452207
     78          1           0       -0.837985   -0.478728   -1.853887
     79          1           0        3.765481    5.313170   -2.009734
     80          1           0        5.136628    5.891119   -2.989892
     81          1           0        4.857154    6.578677   -1.377834
     82          1           0        6.933392    7.086172   -1.951590
     83          1           0        8.070464    8.025769   -0.967103
     84          1           0        6.431000    7.787305   -0.439931
     85          1           0       10.400357    1.911243    2.162555
     86          1           0       11.048006   -0.518613    0.328395
     87          1           0       11.872094    2.953769    0.887847
     88          1           0       11.051915    2.532311   -0.638588
     89          1           0       12.264830    1.484007   -0.151128
     90          1           0       10.081926   -1.303126    2.836788
     91          1           0       11.011985    0.112030    3.291141
     92          1           0       12.659944   -1.432814    1.454763
     93          1           0       11.994666   -2.517537    2.721828
     94          1           0       12.974530   -1.017959    3.121791
     95          1           0        6.856053   -5.698273    1.300485
     96          1           0        8.209044   -4.639139    1.992283
     97          1           0        8.148074   -5.162140    0.272667
     98          1           0        2.630571   -3.732991   -1.085671
     99          1           0       -0.092480   -5.434867    1.598550
    100          1           0       -0.898761   -3.825069    1.784570
    101          1           0        0.502513   -4.243306    2.683504
    102          1           0       -3.768775   -1.718435    1.235546
    103          1           0       -3.347154   -3.298582    0.616221
    104          1           0       -4.985296   -1.326190   -0.935106
    105          1           0       -7.204356   -4.342878    0.590029
    106          1           0       -5.457596   -4.610689    0.957295
    107          1           0       -6.234217   -5.144920   -0.645994
    108          1           0       -7.379657   -3.658216   -2.044776
    109          1           0       -6.726618   -2.092026   -2.132248
    110          1           0       -8.256167   -1.813496    0.229906
    111          1           0       -9.084970   -3.065118   -0.607166
    112          1           0       -8.395348   -0.877437   -2.499580
    113          1           0       -8.974643   -0.065692   -1.106731
    114          1           0      -10.991520   -1.972895   -1.636927
    115          1           0       -9.927435   -1.353280   -4.456386
    116          1           0      -11.305978   -2.332614   -3.839349
    117          1           0       -9.631696   -2.862293   -3.673819
    118          1           0      -11.690648    0.242723   -3.376112
    119          1           0      -10.441330    0.846495   -2.354898
    120          1           0      -11.605615    1.160283   -0.757963
    121          1           0      -11.999190   -0.489272   -0.361095
    122          1           0      -14.114068   -0.631212   -1.495757
    123          1           0      -13.649740    0.741001   -2.533645
    124          1           0      -13.873906    2.346941   -0.953330
    125          1           0      -15.941241    1.075693   -2.353460
    126          1           0      -15.888048    2.605972   -1.597937
    127          1           0      -16.649226    1.316453   -0.741384
    128          1           0      -13.780482    0.091970    0.904624
    129          1           0      -15.364543    0.988159    1.086661
    130          1           0      -13.734644    3.214524    1.098660
    131          1           0      -12.567756    2.109174    1.747963
    132          1           0      -14.006030    1.615058    3.676444
    133          1           0      -15.437578    2.066335    2.793348
    134          1           0      -14.573111    4.417354    2.782350
    135          1           0      -12.541623    4.941581    3.370920
    136          1           0      -12.125437    3.380895    3.794407
    137          1           0      -12.888487    4.516694    5.021602
    138          1           0      -16.104415    4.536531    4.376173
    139          1           0      -14.927092    4.038197    5.649734
    140          1           0      -15.934505    2.892510    4.922689
 ---------------------------------------------------------------------

 SCF Done:  E(RPBE1PBE) =  -3005.36699583     A.U. after   15 cycles

 Excitation energies and oscillator strengths:

 Excited State   1:      Singlet-A      1.8477 eV  671.02 nm  f=0.3814  <S**2>=0.000
     245 -> 248       -0.15943
     246 -> 247        0.69612
     246 <- 247       -0.11616
 This state for optimization and/or second-order correction.
 Total Energy, E(TD-HF/TD-DFT) =  -3005.29909385
 Copying the excited state density for this state as the 1-particle RhoCI density.

 Excited State   2:      Singlet-A      2.2395 eV  553.63 nm  f=0.1409  <S**2>=0.000
     245 -> 247        0.66200
     246 -> 248        0.22708

 Excited State   3:      Singlet-A      2.8291 eV  438.24 nm  f=0.0137  <S**2>=0.000
     243 -> 247        0.69470

 Excited State   4:      Singlet-A      3.0547 eV  405.89 nm  f=0.0000  <S**2>=0.000
     242 -> 247        0.67780
     242 -> 248        0.10726
     242 -> 249        0.10608
     242 -> 250        0.11905

 Excited State   5:      Singlet-A      3.1782 eV  390.11 nm  f=0.0004  <S**2>=0.000
     240 -> 247        0.10837
     241 -> 247        0.66134
     241 -> 249       -0.18737

 The electronic state is 1-A.
 Alpha  occ. eigenvalues --  -46.91720 -19.26546 -19.25748 -19.20937 -19.19731
 Alpha  occ. eigenvalues --  -19.19697 -19.18902 -14.41399 -14.40988 -14.39243
 Alpha  occ. eigenvalues --  -14.38449 -10.37037 -10.35886 -10.32910 -10.31684
 Alpha  occ. eigenvalues --  -10.29038 -10.29024 -10.28323 -10.28149 -10.28137
 Alpha  occ. eigenvalues --  -10.28087 -10.27636 -10.27509 -10.27497 -10.26418
 Alpha  occ. eigenvalues --  -10.26328 -10.26290 -10.25916 -10.25867 -10.25854
 Alpha  occ. eigenvalues --  -10.25754 -10.25569 -10.25401 -10.25020 -10.24785
 Alpha  occ. eigenvalues --  -10.24739 -10.24647 -10.24313 -10.24017 -10.24015
 Alpha  occ. eigenvalues --  -10.23895 -10.23840 -10.23545 -10.23469 -10.23343
 Alpha  occ. eigenvalues --  -10.23166 -10.23064 -10.23051 -10.23038 -10.23023
 Alpha  occ. eigenvalues --  -10.22922 -10.22889 -10.22874 -10.22755 -10.22720
 Alpha  occ. eigenvalues --  -10.22708 -10.22644 -10.22541 -10.22449 -10.22279
 Alpha  occ. eigenvalues --  -10.21960 -10.21816 -10.21749 -10.21667 -10.21554
 Alpha  occ. eigenvalues --  -10.21376  -3.13910  -1.86754  -1.86278  -1.86145
 Alpha  occ. eigenvalues --   -1.12681  -1.12553  -1.05564  -1.03713  -1.03593
 Alpha  occ. eigenvalues --   -1.03550  -1.00363  -0.99460  -0.97688  -0.96674
 Alpha  occ. eigenvalues --   -0.86700  -0.84349  -0.84118  -0.83533  -0.83354
 Alpha  occ. eigenvalues --   -0.82734  -0.82533  -0.82004  -0.81868  -0.81446
 Alpha  occ. eigenvalues --   -0.80419  -0.79953  -0.78489  -0.77816  -0.77138
 Alpha  occ. eigenvalues --   -0.76383  -0.75873  -0.75521  -0.74967  -0.74621
 Alpha  occ. eigenvalues --   -0.73644  -0.72834  -0.72378  -0.71694  -0.70633
 Alpha  occ. eigenvalues --   -0.69708  -0.69621  -0.69448  -0.68782  -0.67787
 Alpha  occ. eigenvalues --   -0.67316  -0.66609  -0.65902  -0.64701  -0.63456
 Alpha  occ. eigenvalues --   -0.63163  -0.62247  -0.62170  -0.61015  -0.60764
 Alpha  occ. eigenvalues --   -0.60308  -0.59982  -0.59599  -0.58915  -0.58453
 Alpha  occ. eigenvalues --   -0.58088  -0.57308  -0.56844  -0.55924  -0.55203
 Alpha  occ. eigenvalues --   -0.54684  -0.54099  -0.53956  -0.53256  -0.52785
 Alpha  occ. eigenvalues --   -0.52160  -0.51667  -0.50857  -0.50757  -0.50184
 Alpha  occ. eigenvalues --   -0.49816  -0.49488  -0.49091  -0.48712  -0.48413
 Alpha  occ. eigenvalues --   -0.48332  -0.48070  -0.47693  -0.47670  -0.47272
 Alpha  occ. eigenvalues --   -0.47103  -0.46935  -0.46558  -0.46296  -0.46122
 Alpha  occ. eigenvalues --   -0.45754  -0.45684  -0.45468  -0.45297  -0.45243
 Alpha  occ. eigenvalues --   -0.44808  -0.44622  -0.44341  -0.44172  -0.44027
 Alpha  occ. eigenvalues --   -0.43908  -0.43705  -0.43456  -0.43309  -0.43246
 Alpha  occ. eigenvalues --   -0.43194  -0.42962  -0.42742  -0.42594  -0.42392
 Alpha  occ. eigenvalues --   -0.42220  -0.41951  -0.41738  -0.41274  -0.41118
 Alpha  occ. eigenvalues --   -0.40964  -0.40869  -0.40643  -0.40530  -0.40391
 Alpha  occ. eigenvalues --   -0.40214  -0.40156  -0.39936  -0.39630  -0.39561
 Alpha  occ. eigenvalues --   -0.39054  -0.39019  -0.38772  -0.38686  -0.38544
 Alpha  occ. eigenvalues --   -0.38497  -0.38406  -0.38271  -0.38107  -0.37875
 Alpha  occ. eigenvalues --   -0.37669  -0.37390  -0.37142  -0.36997  -0.36872
 Alpha  occ. eigenvalues --   -0.36778  -0.36618  -0.36534  -0.36350  -0.36328
 Alpha  occ. eigenvalues --   -0.35898  -0.35850  -0.35656  -0.35631  -0.35185
 Alpha  occ. eigenvalues --   -0.34806  -0.34325  -0.33935  -0.33887  -0.33182
 Alpha  occ. eigenvalues --   -0.33091  -0.33038  -0.32712  -0.32620  -0.32429
 Alpha  occ. eigenvalues --   -0.32187  -0.32086  -0.31947  -0.31790  -0.31193
 Alpha  occ. eigenvalues --   -0.31136  -0.31017  -0.29827  -0.29412  -0.29126
 Alpha  occ. eigenvalues --   -0.28966  -0.28795  -0.27795  -0.27436  -0.26430
 Alpha  occ. eigenvalues --   -0.26058  -0.25852  -0.24425  -0.24325  -0.20941
 Alpha  occ. eigenvalues --   -0.18782
 Alpha virt. eigenvalues --   -0.11304  -0.04807  -0.03985  -0.02036   0.00260
 Alpha virt. eigenvalues --    0.00417   0.01561   0.01615   0.01915   0.02940
 Alpha virt. eigenvalues --    0.03945   0.04874   0.05428   0.05887   0.06113

 Mulliken charges:
               1
     1  Mg   0.987883
     2  C   -0.057586
     3  C   -0.069090
     4  C   -0.042434
     5  C   -0.078303
     6  N   -0.391170
     7  C    0.050705
     8  C   -0.076256
     9  C   -0.136976
    10  C    0.040899
    11  C    0.015011
    12  C    0.038496
    13  C   -0.065019
    14  C    0.243368
    15  O   -0.262067
    16  O   -0.342925
    17  N   -0.498490
    18  C    0.195631
    19  C   -0.167665
    20  C   -0.059820
    21  C    0.154406
    22  C    0.049190
    23  C    0.037364
    24  O   -0.224995
    25  C   -0.051785
    26  N   -0.374316
    27  C    0.071095
    28  C   -0.154158
    29  C   -0.049551
    30  C    0.061878
    31  C    0.001924
    32  C   -0.044479
    33  C   -0.079149
    34  N   -0.453282
    35  C    0.124149
    36  C   -0.216373
    37  C   -0.077238
    38  C    0.192558
    39  C    0.071553
    40  C    0.146864
    41  O   -0.233377
    42  C   -0.083667
    43  C    0.274616
    44  O   -0.211782
    45  O   -0.353766
    46  C    0.102498
    47  C    0.262909
    48  C   -0.152677
    49  C   -0.235050
    50  C    0.041794
    51  C   -0.051347
    52  C   -0.014086
    53  C   -0.000193
    54  C   -0.209686
    55  C   -0.025937
    56  C    0.008117
    57  C   -0.049759
    58  C   -0.036052
    59  C   -0.214094
    60  C   -0.016886
    61  C    0.025164
    62  C   -0.060207
    63  C   -0.060963
    64  C   -0.234751
    65  C   -0.014647
    66  C   -0.004977
    67  H   -0.013872
    68  H    0.028032
    69  H    0.003018
    70  H    0.035075
    71  H    0.031539
    72  H    0.041155
    73  H    0.046893
    74  H    0.047464
    75  H    0.037421
    76  H    0.081031
    77  H    0.067073
    78  H    0.066341
    79  H    0.049212
    80  H    0.074713
    81  H    0.046728
    82  H    0.047502
    83  H    0.049624
    84  H    0.073277
    85  H    0.063718
    86  H    0.050500
    87  H    0.056633
    88  H    0.045968
    89  H    0.043478
    90  H    0.044580
    91  H    0.042898
    92  H    0.040055
    93  H    0.051996
    94  H    0.047631
    95  H    0.063411
    96  H    0.055674
    97  H    0.054012
    98  H    0.074831
    99  H    0.058525
   100  H    0.072714
   101  H    0.062921
   102  H    0.083272
   103  H    0.032190
   104  H    0.013244
   105  H    0.044082
   106  H    0.038391
   107  H    0.048696
   108  H    0.036767
   109  H    0.027295
   110  H    0.035411
   111  H    0.035830
   112  H    0.025180
   113  H    0.029858
   114  H    0.035516
   115  H    0.036049
   116  H    0.039089
   117  H    0.027783
   118  H    0.032018
   119  H    0.016905
   120  H    0.028420
   121  H    0.038359
   122  H    0.037444
   123  H    0.021554
   124  H    0.034356
   125  H    0.028896
   126  H    0.024029
   127  H    0.035649
   128  H    0.039804
   129  H    0.031162
   130  H    0.029565
   131  H    0.035447
   132  H    0.029530
   133  H    0.027757
   134  H    0.031338
   135  H    0.023086
   136  H    0.033857
   137  H    0.036065
   138  H    0.037939
   139  H    0.025818
   140  H    0.029537
 Sum of Mulliken charges =  -0.00000

 Dipole moment (field-independent basis, Debye):
    X=             -1.9509    Y=              2.6054    Z=             -3.0083  Tot=              4.4322
 Quadrupole moment (field-independent basis, Debye-Ang):
   XX=           -375.5419   YY=           -413.8653   ZZ=           -399.0652
   XY=             -0.6727   XZ=              2.5127   YZ=            -12.5852

 Normal termination of Gaussian 16 at Thu Apr 28 12:08:59 2022.
