 Gaussian 16, Revision A.03,
 Gaussian 16:  ES64L-G16RevA.03 25-Dec-2016

 --------------------------------
 #p wB97XD/Def2SVP td=(nstates=5)
 --------------------------------

 -----------------------------------------------------
 step_1551_chromophore_22 TDDFT with wB97XD functional
 -----------------------------------------------------
 Symbolic Z-matrix:
 Charge =  0 Multiplicity = 1

                         Standard orientation:
 ---------------------------------------------------------------------
 Center     Atomic      Atomic             Coordinates (Angstroms)
 Number     Number       Type             X           Y           Z
 ---------------------------------------------------------------------
      1         12           0        6.273237    0.638180    0.020237
      2          6           0        3.866895   -2.046879   -0.408469
      3          6           0        4.151595    2.645384   -1.601092
      4          6           0        8.481388    2.953974    0.451679
      5          6           0        8.693447   -1.830896    0.698033
      6          7           0        4.292671    0.338776   -0.928250
      7          6           0        3.409911   -0.790651   -0.844071
      8          6           0        2.092006   -0.395708   -1.461817
      9          6           0        2.373798    0.928292   -2.229740
     10          6           0        3.662925    1.354615   -1.532923
     11          6           0        2.633890    0.749385   -3.717509
     12          6           0        0.884990   -0.395984   -0.504914
     13          6           0       -0.362306   -1.049239   -1.055998
     14          6           0       -1.481279   -1.363244   -0.004896
     15          8           0       -1.485843   -1.124316    1.191606
     16          8           0       -2.558825   -1.928554   -0.647760
     17          7           0        6.244350    2.616426   -0.371364
     18          6           0        5.329391    3.277244   -1.109556
     19          6           0        5.654047    4.654590   -1.171400
     20          6           0        6.858144    4.816544   -0.476195
     21          6           0        7.247573    3.442142   -0.060653
     22          6           0        4.794160    5.671733   -1.978012
     23          6           0        7.757511    5.974123   -0.395860
     24          8           0        8.869333    5.942368    0.077702
     25          6           0        7.266354    7.291369   -0.934161
     26          7           0        8.337676    0.500904    0.402439
     27          6           0        8.947632    1.650379    0.605138
     28          6           0       10.375274    1.473111    1.164879
     29          6           0       10.479205   -0.081935    1.148133
     30          6           0        9.108273   -0.545061    0.663041
     31          6           0       11.500037    2.135649    0.271422
     32          6           0       10.889911   -0.644151    2.516338
     33          6           0       12.246275   -1.489876    2.461043
     34          7           0        6.300030   -1.497888    0.171850
     35          6           0        7.351545   -2.304814    0.530992
     36          6           0        6.825285   -3.696771    0.696722
     37          6           0        5.402180   -3.598745    0.358753
     38          6           0        5.178303   -2.287883    0.113638
     39          6           0        7.562569   -4.882953    1.148268
     40          6           0        4.151458   -4.413640    0.269069
     41          8           0        3.956256   -5.626233    0.465376
     42          6           0        3.084571   -3.384953   -0.158159
     43          6           0        2.066961   -3.353680    0.947670
     44          8           0        2.124507   -2.692799    1.926606
     45          8           0        0.986187   -4.072313    0.593913
     46          6           0        0.047098   -4.358750    1.699817
     47          6           0       -3.554097   -2.270381    0.320704
     48          6           0       -4.868369   -2.256090   -0.377820
     49          6           0       -5.942318   -3.110103   -0.527922
     50          6           0       -6.198723   -4.432804    0.177914
     51          6           0       -7.138911   -2.801654   -1.414301
     52          6           0       -8.450132   -2.194487   -0.772796
     53          6           0       -9.045581   -1.015770   -1.635521
     54          6           0      -10.413024   -1.294960   -2.264225
     55          6           0      -10.287921   -1.991738   -3.650616
     56          6           0      -11.174263    0.043842   -2.436243
     57          6           0      -12.051476    0.250912   -1.160128
     58          6           0      -13.563339    0.308976   -1.536658
     59          6           0      -14.345691    1.379094   -0.783639
     60          6           0      -15.795041    1.542147   -1.379404
     61          6           0      -14.330306    1.019497    0.742316
     62          6           0      -13.631636    2.224014    1.541235
     63          6           0      -14.385886    2.317169    2.934050
     64          6           0      -14.330571    3.708151    3.573816
     65          6           0      -12.893444    4.126965    4.003162
     66          6           0      -15.369236    3.793895    4.684497
     67          1           0        3.431929    3.220491   -2.188247
     68          1           0        9.283408    3.687974    0.552458
     69          1           0        9.375080   -2.565272    1.132637
     70          1           0        1.900466   -1.099864   -2.271972
     71          1           0        1.612937    1.708251   -2.197728
     72          1           0        1.693113    0.571126   -4.238869
     73          1           0        3.220441   -0.161577   -3.834487
     74          1           0        3.099336    1.601036   -4.213481
     75          1           0        0.541778    0.625020   -0.341460
     76          1           0        1.167819   -0.767543    0.479755
     77          1           0       -0.088737   -2.027232   -1.452207
     78          1           0       -0.837985   -0.478728   -1.853887
     79          1           0        3.765481    5.313170   -2.009734
     80          1           0        5.136628    5.891119   -2.989892
     81          1           0        4.857154    6.578677   -1.377834
     82          1           0        6.933392    7.086172   -1.951590
     83          1           0        8.070464    8.025769   -0.967103
     84          1           0        6.431000    7.787305   -0.439931
     85          1           0       10.400357    1.911243    2.162555
     86          1           0       11.048006   -0.518613    0.328395
     87          1           0       11.872094    2.953769    0.887847
     88          1           0       11.051915    2.532311   -0.638588
     89          1           0       12.264830    1.484007   -0.151128
     90          1           0       10.081926   -1.303126    2.836788
     91          1           0       11.011985    0.112030    3.291141
     92          1           0       12.659944   -1.432814    1.454763
     93          1           0       11.994666   -2.517537    2.721828
     94          1           0       12.974530   -1.017959    3.121791
     95          1           0        6.856053   -5.698273    1.300485
     96          1           0        8.209044   -4.639139    1.992283
     97          1           0        8.148074   -5.162140    0.272667
     98          1           0        2.630571   -3.732991   -1.085671
     99          1           0       -0.092480   -5.434867    1.598550
    100          1           0       -0.898761   -3.825069    1.784570
    101          1           0        0.502513   -4.243306    2.683504
    102          1           0       -3.768775   -1.718435    1.235546
    103          1           0       -3.347154   -3.298582    0.616221
    104          1           0       -4.985296   -1.326190   -0.935106
    105          1           0       -7.204356   -4.342878    0.590029
    106          1           0       -5.457596   -4.610689    0.957295
    107          1           0       -6.234217   -5.144920   -0.645994
    108          1           0       -7.379657   -3.658216   -2.044776
    109          1           0       -6.726618   -2.092026   -2.132248
    110          1           0       -8.256167   -1.813496    0.229906
    111          1           0       -9.084970   -3.065118   -0.607166
    112          1           0       -8.395348   -0.877437   -2.499580
    113          1           0       -8.974643   -0.065692   -1.106731
    114          1           0      -10.991520   -1.972895   -1.636927
    115          1           0       -9.927435   -1.353280   -4.456386
    116          1           0      -11.305978   -2.332614   -3.839349
    117          1           0       -9.631696   -2.862293   -3.673819
    118          1           0      -11.690648    0.242723   -3.376112
    119          1           0      -10.441330    0.846495   -2.354898
    120          1           0      -11.605615    1.160283   -0.757963
    121          1           0      -11.999190   -0.489272   -0.361095
    122          1           0      -14.114068   -0.631212   -1.495757
    123          1           0      -13.649740    0.741001   -2.533645
    124          1           0      -13.873906    2.346941   -0.953330
    125          1           0      -15.941241    1.075693   -2.353460
    126          1           0      -15.888048    2.605972   -1.597937
    127          1           0      -16.649226    1.316453   -0.741384
    128          1           0      -13.780482    0.091970    0.904624
    129          1           0      -15.364543    0.988159    1.086661
    130          1           0      -13.734644    3.214524    1.098660
    131          1           0      -12.567756    2.109174    1.747963
    132          1           0      -14.006030    1.615058    3.676444
    133          1           0      -15.437578    2.066335    2.793348
    134          1           0      -14.573111    4.417354    2.782350
    135          1           0      -12.541623    4.941581    3.370920
    136          1           0      -12.125437    3.380895    3.794407
    137          1           0      -12.888487    4.516694    5.021602
    138          1           0      -16.104415    4.536531    4.376173
    139          1           0      -14.927092    4.038197    5.649734
    140          1           0      -15.934505    2.892510    4.922689
 ---------------------------------------------------------------------

 SCF Done:  E(RwB97XD) =  -3007.87399588     A.U. after   19 cycles

 Excitation energies and oscillator strengths:

 Excited State   1:      Singlet-A      1.6560 eV  748.72 nm  f=0.3974  <S**2>=0.000
     245 -> 248       -0.17153
     246 -> 247        0.68578
     245 <- 248       -0.11099
 This state for optimization and/or second-order correction.
 Total Energy, E(TD-HF/TD-DFT) =  -3007.81314064
 Copying the excited state density for this state as the 1-particle RhoCI density.

 Excited State   2:      Singlet-A      2.1777 eV  569.33 nm  f=0.1486  <S**2>=0.000
     245 -> 247        0.65099
     246 -> 248        0.25484

 Excited State   3:      Singlet-A      3.2170 eV  385.40 nm  f=0.0117  <S**2>=0.000
     244 -> 247        0.67933

 Excited State   4:      Singlet-A      3.5860 eV  345.74 nm  f=0.2291  <S**2>=0.000
     239 -> 247       -0.14231
     240 -> 247        0.21202
     240 -> 249        0.12144
     240 -> 250        0.12279
     241 -> 247       -0.34278
     242 -> 247        0.17319
     245 -> 247       -0.14910
     246 -> 248        0.46035

 Excited State   5:      Singlet-A      3.6229 eV  342.23 nm  f=0.0790  <S**2>=0.000
     239 -> 247        0.11154
     240 -> 247        0.51605
     240 -> 248        0.14748
     240 -> 249        0.22245
     240 -> 250        0.21356
     242 -> 247       -0.10896
     246 -> 248       -0.24969

 The electronic state is 1-A.
 Alpha  occ. eigenvalues --  -46.94663 -19.31078 -19.30253 -19.25545 -19.24374
 Alpha  occ. eigenvalues --  -19.24332 -19.23968 -14.46548 -14.46055 -14.44347
 Alpha  occ. eigenvalues --  -14.43174 -10.43776 -10.42652 -10.39593 -10.38780
 Alpha  occ. eigenvalues --  -10.35499 -10.35143 -10.34811 -10.34792 -10.34635
 Alpha  occ. eigenvalues --  -10.34611 -10.34347 -10.33572 -10.33422 -10.33300
 Alpha  occ. eigenvalues --  -10.32632 -10.32556 -10.32188 -10.32147 -10.31983
 Alpha  occ. eigenvalues --  -10.31854 -10.31792 -10.31735 -10.31640 -10.31368
 Alpha  occ. eigenvalues --  -10.31133 -10.30894 -10.30858 -10.30365 -10.30295
 Alpha  occ. eigenvalues --  -10.30248 -10.30106 -10.30007 -10.29840 -10.29653
 Alpha  occ. eigenvalues --  -10.29625 -10.29569 -10.29464 -10.29453 -10.29417
 Alpha  occ. eigenvalues --  -10.29351 -10.29165 -10.29085 -10.29078 -10.29036
 Alpha  occ. eigenvalues --  -10.29011 -10.28893 -10.28816 -10.28714 -10.28621
 Alpha  occ. eigenvalues --  -10.28325 -10.28260 -10.28110 -10.28081 -10.27980
 Alpha  occ. eigenvalues --  -10.27793  -3.20703  -1.94299  -1.93824  -1.93683
 Alpha  occ. eigenvalues --   -1.20011  -1.19870  -1.13282  -1.11008  -1.10913
 Alpha  occ. eigenvalues --   -1.10849  -1.07768  -1.06993  -1.05082  -1.03822
 Alpha  occ. eigenvalues --   -0.94177  -0.91987  -0.91774  -0.91194  -0.91027
 Alpha  occ. eigenvalues --   -0.90326  -0.90200  -0.89786  -0.89580  -0.89109
 Alpha  occ. eigenvalues --   -0.88093  -0.87331  -0.86110  -0.85403  -0.84783
 Alpha  occ. eigenvalues --   -0.84035  -0.83589  -0.83204  -0.82650  -0.82316
 Alpha  occ. eigenvalues --   -0.81323  -0.80707  -0.79944  -0.79243  -0.78178
 Alpha  occ. eigenvalues --   -0.77335  -0.77319  -0.77138  -0.76457  -0.75428
 Alpha  occ. eigenvalues --   -0.74908  -0.74060  -0.73448  -0.72330  -0.71068
 Alpha  occ. eigenvalues --   -0.70757  -0.69803  -0.69704  -0.68656  -0.68212
 Alpha  occ. eigenvalues --   -0.67957  -0.67516  -0.66989  -0.66366  -0.65888
 Alpha  occ. eigenvalues --   -0.65762  -0.64985  -0.64168  -0.63556  -0.62844
 Alpha  occ. eigenvalues --   -0.62160  -0.61615  -0.61303  -0.60715  -0.60110
 Alpha  occ. eigenvalues --   -0.59532  -0.59160  -0.58292  -0.58238  -0.57528
 Alpha  occ. eigenvalues --   -0.57156  -0.56893  -0.56494  -0.56183  -0.55815
 Alpha  occ. eigenvalues --   -0.55631  -0.55439  -0.55153  -0.54982  -0.54757
 Alpha  occ. eigenvalues --   -0.54556  -0.54498  -0.53928  -0.53582  -0.53479
 Alpha  occ. eigenvalues --   -0.53167  -0.52986  -0.52749  -0.52605  -0.52551
 Alpha  occ. eigenvalues --   -0.52172  -0.52118  -0.51719  -0.51587  -0.51408
 Alpha  occ. eigenvalues --   -0.51287  -0.51233  -0.50716  -0.50559  -0.50493
 Alpha  occ. eigenvalues --   -0.50474  -0.50279  -0.50142  -0.49981  -0.49628
 Alpha  occ. eigenvalues --   -0.49432  -0.49099  -0.49026  -0.48505  -0.48256
 Alpha  occ. eigenvalues --   -0.48134  -0.48015  -0.47880  -0.47685  -0.47560
 Alpha  occ. eigenvalues --   -0.47460  -0.47287  -0.46952  -0.46748  -0.46725
 Alpha  occ. eigenvalues --   -0.46260  -0.46189  -0.45930  -0.45903  -0.45709
 Alpha  occ. eigenvalues --   -0.45639  -0.45596  -0.45542  -0.45276  -0.44982
 Alpha  occ. eigenvalues --   -0.44732  -0.44465  -0.44386  -0.44156  -0.44007
 Alpha  occ. eigenvalues --   -0.43898  -0.43710  -0.43572  -0.43486  -0.43356
 Alpha  occ. eigenvalues --   -0.42989  -0.42861  -0.42733  -0.42579  -0.42310
 Alpha  occ. eigenvalues --   -0.41858  -0.41304  -0.41005  -0.40870  -0.40257
 Alpha  occ. eigenvalues --   -0.40042  -0.39986  -0.39784  -0.39644  -0.39329
 Alpha  occ. eigenvalues --   -0.39238  -0.39138  -0.38967  -0.38814  -0.38136
 Alpha  occ. eigenvalues --   -0.38065  -0.38032  -0.36886  -0.36451  -0.35977
 Alpha  occ. eigenvalues --   -0.35700  -0.35436  -0.34629  -0.34156  -0.33293
 Alpha  occ. eigenvalues --   -0.33165  -0.32935  -0.31013  -0.30632  -0.25948
 Alpha  occ. eigenvalues --   -0.23016
 Alpha virt. eigenvalues --   -0.07234   0.00732   0.02345   0.04368   0.06239
 Alpha virt. eigenvalues --    0.07217   0.08232   0.08327   0.08726   0.09486
 Alpha virt. eigenvalues --    0.10443   0.11642   0.12154   0.12733   0.12910

 Mulliken charges:
               1
     1  Mg   0.977698
     2  C   -0.057208
     3  C   -0.085158
     4  C   -0.063962
     5  C   -0.093713
     6  N   -0.357922
     7  C    0.022316
     8  C   -0.046749
     9  C   -0.109903
    10  C    0.027866
    11  C    0.022942
    12  C    0.047259
    13  C   -0.045861
    14  C    0.230817
    15  O   -0.258391
    16  O   -0.342510
    17  N   -0.466185
    18  C    0.189659
    19  C   -0.160111
    20  C   -0.050438
    21  C    0.144461
    22  C    0.064415
    23  C    0.033795
    24  O   -0.216927
    25  C   -0.039229
    26  N   -0.335714
    27  C    0.063555
    28  C   -0.129220
    29  C   -0.023498
    30  C    0.046170
    31  C    0.010638
    32  C   -0.031379
    33  C   -0.061276
    34  N   -0.417322
    35  C    0.108492
    36  C   -0.210123
    37  C   -0.081918
    38  C    0.174339
    39  C    0.082776
    40  C    0.131593
    41  O   -0.224465
    42  C   -0.046407
    43  C    0.245035
    44  O   -0.204813
    45  O   -0.351154
    46  C    0.121279
    47  C    0.280931
    48  C   -0.160984
    49  C   -0.223468
    50  C    0.057153
    51  C   -0.027101
    52  C   -0.004085
    53  C    0.015999
    54  C   -0.178450
    55  C   -0.012823
    56  C    0.023291
    57  C   -0.038327
    58  C   -0.013233
    59  C   -0.186820
    60  C   -0.006767
    61  C    0.042708
    62  C   -0.044877
    63  C   -0.041798
    64  C   -0.203771
    65  C   -0.004604
    66  C    0.005654
    67  H   -0.022244
    68  H    0.021701
    69  H   -0.004878
    70  H    0.019909
    71  H    0.023924
    72  H    0.035859
    73  H    0.040498
    74  H    0.041872
    75  H    0.029013
    76  H    0.071938
    77  H    0.059326
    78  H    0.060790
    79  H    0.045896
    80  H    0.072594
    81  H    0.039663
    82  H    0.039088
    83  H    0.049382
    84  H    0.069880
    85  H    0.054550
    86  H    0.037753
    87  H    0.051906
    88  H    0.038759
    89  H    0.039195
    90  H    0.034727
    91  H    0.035202
    92  H    0.032377
    93  H    0.046706
    94  H    0.041873
    95  H    0.058785
    96  H    0.049264
    97  H    0.046485
    98  H    0.069118
    99  H    0.055019
   100  H    0.065642
   101  H    0.058777
   102  H    0.078504
   103  H    0.024142
   104  H    0.008654
   105  H    0.036560
   106  H    0.033542
   107  H    0.042205
   108  H    0.028611
   109  H    0.015663
   110  H    0.028073
   111  H    0.027941
   112  H    0.012900
   113  H    0.022787
   114  H    0.021979
   115  H    0.030001
   116  H    0.032452
   117  H    0.020871
   118  H    0.025168
   119  H    0.006841
   120  H    0.019720
   121  H    0.028006
   122  H    0.029898
   123  H    0.008615
   124  H    0.021294
   125  H    0.023374
   126  H    0.017991
   127  H    0.030554
   128  H    0.030417
   129  H    0.019383
   130  H    0.018578
   131  H    0.026658
   132  H    0.019993
   133  H    0.015902
   134  H    0.019222
   135  H    0.017326
   136  H    0.027182
   137  H    0.030293
   138  H    0.032731
   139  H    0.019672
   140  H    0.023775
 Sum of Mulliken charges =  -0.00000

 Dipole moment (field-independent basis, Debye):
    X=             -2.0445    Y=              3.3610    Z=             -3.1796  Tot=              5.0583
 Quadrupole moment (field-independent basis, Debye-Ang):
   XX=           -377.0585   YY=           -411.1782   ZZ=           -398.6552
   XY=              4.7262   XZ=              1.3195   YZ=            -13.0003

 Normal termination of Gaussian 16 at Thu Apr 28 12:36:07 2022.
