 Gaussian 16, Revision A.03,
 Gaussian 16:  ES64L-G16RevA.03 25-Dec-2016

 --------------------
 #p ZINDO=(nstates=5)
 --------------------

 ------------------------------
 step_1551_chromophore_22 ZINDO
 ------------------------------
 Symbolic Z-matrix:
 Charge =  0 Multiplicity = 1

                         Standard orientation:
 ---------------------------------------------------------------------
 Center     Atomic      Atomic             Coordinates (Angstroms)
 Number     Number       Type             X           Y           Z
 ---------------------------------------------------------------------
      1         12           0        6.273237    0.638180    0.020237
      2          6           0        3.866895   -2.046879   -0.408469
      3          6           0        4.151595    2.645384   -1.601092
      4          6           0        8.481388    2.953974    0.451679
      5          6           0        8.693447   -1.830896    0.698033
      6          7           0        4.292671    0.338776   -0.928250
      7          6           0        3.409911   -0.790651   -0.844071
      8          6           0        2.092006   -0.395708   -1.461817
      9          6           0        2.373798    0.928292   -2.229740
     10          6           0        3.662925    1.354615   -1.532923
     11          6           0        2.633890    0.749385   -3.717509
     12          6           0        0.884990   -0.395984   -0.504914
     13          6           0       -0.362306   -1.049239   -1.055998
     14          6           0       -1.481279   -1.363244   -0.004896
     15          8           0       -1.485843   -1.124316    1.191606
     16          8           0       -2.558825   -1.928554   -0.647760
     17          7           0        6.244350    2.616426   -0.371364
     18          6           0        5.329391    3.277244   -1.109556
     19          6           0        5.654047    4.654590   -1.171400
     20          6           0        6.858144    4.816544   -0.476195
     21          6           0        7.247573    3.442142   -0.060653
     22          6           0        4.794160    5.671733   -1.978012
     23          6           0        7.757511    5.974123   -0.395860
     24          8           0        8.869333    5.942368    0.077702
     25          6           0        7.266354    7.291369   -0.934161
     26          7           0        8.337676    0.500904    0.402439
     27          6           0        8.947632    1.650379    0.605138
     28          6           0       10.375274    1.473111    1.164879
     29          6           0       10.479205   -0.081935    1.148133
     30          6           0        9.108273   -0.545061    0.663041
     31          6           0       11.500037    2.135649    0.271422
     32          6           0       10.889911   -0.644151    2.516338
     33          6           0       12.246275   -1.489876    2.461043
     34          7           0        6.300030   -1.497888    0.171850
     35          6           0        7.351545   -2.304814    0.530992
     36          6           0        6.825285   -3.696771    0.696722
     37          6           0        5.402180   -3.598745    0.358753
     38          6           0        5.178303   -2.287883    0.113638
     39          6           0        7.562569   -4.882953    1.148268
     40          6           0        4.151458   -4.413640    0.269069
     41          8           0        3.956256   -5.626233    0.465376
     42          6           0        3.084571   -3.384953   -0.158159
     43          6           0        2.066961   -3.353680    0.947670
     44          8           0        2.124507   -2.692799    1.926606
     45          8           0        0.986187   -4.072313    0.593913
     46          6           0        0.047098   -4.358750    1.699817
     47          6           0       -3.554097   -2.270381    0.320704
     48          6           0       -4.868369   -2.256090   -0.377820
     49          6           0       -5.942318   -3.110103   -0.527922
     50          6           0       -6.198723   -4.432804    0.177914
     51          6           0       -7.138911   -2.801654   -1.414301
     52          6           0       -8.450132   -2.194487   -0.772796
     53          6           0       -9.045581   -1.015770   -1.635521
     54          6           0      -10.413024   -1.294960   -2.264225
     55          6           0      -10.287921   -1.991738   -3.650616
     56          6           0      -11.174263    0.043842   -2.436243
     57          6           0      -12.051476    0.250912   -1.160128
     58          6           0      -13.563339    0.308976   -1.536658
     59          6           0      -14.345691    1.379094   -0.783639
     60          6           0      -15.795041    1.542147   -1.379404
     61          6           0      -14.330306    1.019497    0.742316
     62          6           0      -13.631636    2.224014    1.541235
     63          6           0      -14.385886    2.317169    2.934050
     64          6           0      -14.330571    3.708151    3.573816
     65          6           0      -12.893444    4.126965    4.003162
     66          6           0      -15.369236    3.793895    4.684497
     67          1           0        3.431929    3.220491   -2.188247
     68          1           0        9.283408    3.687974    0.552458
     69          1           0        9.375080   -2.565272    1.132637
     70          1           0        1.900466   -1.099864   -2.271972
     71          1           0        1.612937    1.708251   -2.197728
     72          1           0        1.693113    0.571126   -4.238869
     73          1           0        3.220441   -0.161577   -3.834487
     74          1           0        3.099336    1.601036   -4.213481
     75          1           0        0.541778    0.625020   -0.341460
     76          1           0        1.167819   -0.767543    0.479755
     77          1           0       -0.088737   -2.027232   -1.452207
     78          1           0       -0.837985   -0.478728   -1.853887
     79          1           0        3.765481    5.313170   -2.009734
     80          1           0        5.136628    5.891119   -2.989892
     81          1           0        4.857154    6.578677   -1.377834
     82          1           0        6.933392    7.086172   -1.951590
     83          1           0        8.070464    8.025769   -0.967103
     84          1           0        6.431000    7.787305   -0.439931
     85          1           0       10.400357    1.911243    2.162555
     86          1           0       11.048006   -0.518613    0.328395
     87          1           0       11.872094    2.953769    0.887847
     88          1           0       11.051915    2.532311   -0.638588
     89          1           0       12.264830    1.484007   -0.151128
     90          1           0       10.081926   -1.303126    2.836788
     91          1           0       11.011985    0.112030    3.291141
     92          1           0       12.659944   -1.432814    1.454763
     93          1           0       11.994666   -2.517537    2.721828
     94          1           0       12.974530   -1.017959    3.121791
     95          1           0        6.856053   -5.698273    1.300485
     96          1           0        8.209044   -4.639139    1.992283
     97          1           0        8.148074   -5.162140    0.272667
     98          1           0        2.630571   -3.732991   -1.085671
     99          1           0       -0.092480   -5.434867    1.598550
    100          1           0       -0.898761   -3.825069    1.784570
    101          1           0        0.502513   -4.243306    2.683504
    102          1           0       -3.768775   -1.718435    1.235546
    103          1           0       -3.347154   -3.298582    0.616221
    104          1           0       -4.985296   -1.326190   -0.935106
    105          1           0       -7.204356   -4.342878    0.590029
    106          1           0       -5.457596   -4.610689    0.957295
    107          1           0       -6.234217   -5.144920   -0.645994
    108          1           0       -7.379657   -3.658216   -2.044776
    109          1           0       -6.726618   -2.092026   -2.132248
    110          1           0       -8.256167   -1.813496    0.229906
    111          1           0       -9.084970   -3.065118   -0.607166
    112          1           0       -8.395348   -0.877437   -2.499580
    113          1           0       -8.974643   -0.065692   -1.106731
    114          1           0      -10.991520   -1.972895   -1.636927
    115          1           0       -9.927435   -1.353280   -4.456386
    116          1           0      -11.305978   -2.332614   -3.839349
    117          1           0       -9.631696   -2.862293   -3.673819
    118          1           0      -11.690648    0.242723   -3.376112
    119          1           0      -10.441330    0.846495   -2.354898
    120          1           0      -11.605615    1.160283   -0.757963
    121          1           0      -11.999190   -0.489272   -0.361095
    122          1           0      -14.114068   -0.631212   -1.495757
    123          1           0      -13.649740    0.741001   -2.533645
    124          1           0      -13.873906    2.346941   -0.953330
    125          1           0      -15.941241    1.075693   -2.353460
    126          1           0      -15.888048    2.605972   -1.597937
    127          1           0      -16.649226    1.316453   -0.741384
    128          1           0      -13.780482    0.091970    0.904624
    129          1           0      -15.364543    0.988159    1.086661
    130          1           0      -13.734644    3.214524    1.098660
    131          1           0      -12.567756    2.109174    1.747963
    132          1           0      -14.006030    1.615058    3.676444
    133          1           0      -15.437578    2.066335    2.793348
    134          1           0      -14.573111    4.417354    2.782350
    135          1           0      -12.541623    4.941581    3.370920
    136          1           0      -12.125437    3.380895    3.794407
    137          1           0      -12.888487    4.516694    5.021602
    138          1           0      -16.104415    4.536531    4.376173
    139          1           0      -14.927092    4.038197    5.649734
    140          1           0      -15.934505    2.892510    4.922689
 ---------------------------------------------------------------------

 SCF Done:  E(RZINDO/S) =  -474.510403032     A.U. after   19 cycles

 Excitation energies and oscillator strengths:

 Excited State   1:      Singlet-A      1.2664 eV  978.99 nm  f=0.6139  <S**2>=0.000
     175 ->178         0.17394
     176 ->177         0.66761
 This state for optimization and/or second-order correction.
 Total Energy, E(CIS/TDA) =  -474.463862007
 Copying the excited state density for this state as the 1-particle RhoCI density.

 Excited State   2:      Singlet-A      1.9337 eV  641.17 nm  f=0.0902  <S**2>=0.000
     175 ->177         0.57515
     176 ->178        -0.37662

 Excited State   3:      Singlet-A      2.9269 eV  423.61 nm  f=0.0241  <S**2>=0.000
     167 ->179        -0.11806
     167 ->180         0.10025
     168 ->177         0.33571
     168 ->178        -0.16405
     168 ->179        -0.33880
     168 ->180         0.27417
     168 ->185        -0.15964
     168 ->187        -0.15424
     176 ->178        -0.11202

 Excited State   4:      Singlet-A      3.0291 eV  409.31 nm  f=0.9716  <S**2>=0.000
     175 ->177         0.34167
     176 ->178         0.53034
     176 ->179        -0.13352
     176 ->180        -0.11159

 Excited State   5:      Singlet-A      3.0541 eV  405.96 nm  f=0.0469  <S**2>=0.000
     174 ->177        -0.24081
     176 ->179         0.59117
     176 ->180         0.15462

 The electronic state is 1-A.
 Alpha  occ. eigenvalues --   -1.85441  -1.82795  -1.81729  -1.75456  -1.74389
 Alpha  occ. eigenvalues --   -1.71813  -1.64875  -1.61159  -1.60155  -1.56578
 Alpha  occ. eigenvalues --   -1.55143  -1.51639  -1.49216  -1.47880  -1.47145
 Alpha  occ. eigenvalues --   -1.44099  -1.43267  -1.41172  -1.39438  -1.36793
 Alpha  occ. eigenvalues --   -1.36141  -1.33872  -1.32849  -1.30981  -1.27914
 Alpha  occ. eigenvalues --   -1.26989  -1.25521  -1.22931  -1.21652  -1.17956
 Alpha  occ. eigenvalues --   -1.16761  -1.16670  -1.15353  -1.14649  -1.12586
 Alpha  occ. eigenvalues --   -1.12113  -1.11490  -1.08805  -1.05164  -1.03703
 Alpha  occ. eigenvalues --   -1.02557  -1.00633  -0.98828  -0.97638  -0.96134
 Alpha  occ. eigenvalues --   -0.95146  -0.95020  -0.93845  -0.93245  -0.91512
 Alpha  occ. eigenvalues --   -0.90920  -0.90673  -0.90595  -0.88378  -0.86317
 Alpha  occ. eigenvalues --   -0.85646  -0.83939  -0.83709  -0.82239  -0.81034
 Alpha  occ. eigenvalues --   -0.79768  -0.78948  -0.77906  -0.76844  -0.75713
 Alpha  occ. eigenvalues --   -0.75392  -0.74685  -0.74510  -0.73917  -0.72987
 Alpha  occ. eigenvalues --   -0.72728  -0.72362  -0.71576  -0.70960  -0.70603
 Alpha  occ. eigenvalues --   -0.70327  -0.70120  -0.68996  -0.68763  -0.67601
 Alpha  occ. eigenvalues --   -0.66701  -0.66621  -0.66065  -0.65848  -0.64910
 Alpha  occ. eigenvalues --   -0.64608  -0.64519  -0.64407  -0.63626  -0.63363
 Alpha  occ. eigenvalues --   -0.62783  -0.62557  -0.62409  -0.61933  -0.61588
 Alpha  occ. eigenvalues --   -0.61058  -0.60723  -0.60625  -0.60479  -0.60016
 Alpha  occ. eigenvalues --   -0.59590  -0.58911  -0.58877  -0.58629  -0.58123
 Alpha  occ. eigenvalues --   -0.57992  -0.57884  -0.57349  -0.56832  -0.56615
 Alpha  occ. eigenvalues --   -0.55953  -0.55505  -0.55223  -0.54647  -0.54469
 Alpha  occ. eigenvalues --   -0.54175  -0.53902  -0.53018  -0.52917  -0.52813
 Alpha  occ. eigenvalues --   -0.52436  -0.52251  -0.51843  -0.51519  -0.51265
 Alpha  occ. eigenvalues --   -0.50823  -0.50671  -0.50631  -0.50430  -0.50335
 Alpha  occ. eigenvalues --   -0.49927  -0.49742  -0.49422  -0.49204  -0.49075
 Alpha  occ. eigenvalues --   -0.48821  -0.48622  -0.48091  -0.47912  -0.47697
 Alpha  occ. eigenvalues --   -0.47469  -0.47216  -0.46866  -0.46696  -0.46536
 Alpha  occ. eigenvalues --   -0.46143  -0.46089  -0.45390  -0.45170  -0.45025
 Alpha  occ. eigenvalues --   -0.44764  -0.44613  -0.44435  -0.44105  -0.43914
 Alpha  occ. eigenvalues --   -0.43463  -0.42976  -0.42263  -0.41945  -0.41809
 Alpha  occ. eigenvalues --   -0.41690  -0.41067  -0.40193  -0.38901  -0.38841
 Alpha  occ. eigenvalues --   -0.37772  -0.36478  -0.35651  -0.34883  -0.34763
 Alpha  occ. eigenvalues --   -0.34397  -0.32696  -0.31049  -0.30859  -0.26553
 Alpha  occ. eigenvalues --   -0.21786
 Alpha virt. eigenvalues --   -0.08635  -0.01508  -0.00422   0.01345   0.02118
 Alpha virt. eigenvalues --    0.02515   0.03384   0.03993   0.05055   0.05110
 Alpha virt. eigenvalues --    0.06366   0.06882   0.07430   0.08005   0.08246

 Mulliken charges:
               1
     1  Mg   0.429145
     2  C   -0.037802
     3  C   -0.097230
     4  C   -0.079869
     5  C   -0.062314
     6  N   -0.300755
     7  C    0.090014
     8  C    0.014450
     9  C    0.006788
    10  C    0.167568
    11  C   -0.045385
    12  C   -0.020295
    13  C    0.010559
    14  C    0.456526
    15  O   -0.505401
    16  O   -0.255384
    17  N   -0.310221
    18  C    0.133424
    19  C    0.022066
    20  C   -0.036988
    21  C    0.148236
    22  C   -0.047940
    23  C    0.336973
    24  O   -0.515976
    25  C   -0.034960
    26  N   -0.249265
    27  C    0.162499
    28  C   -0.003139
    29  C   -0.002079
    30  C    0.115302
    31  C   -0.057942
    32  C   -0.038061
    33  C   -0.066132
    34  N   -0.332293
    35  C    0.073438
    36  C    0.003083
    37  C   -0.066189
    38  C    0.110554
    39  C   -0.035269
    40  C    0.337184
    41  O   -0.530042
    42  C    0.057944
    43  C    0.501856
    44  O   -0.510423
    45  O   -0.267791
    46  C    0.068336
    47  C    0.118915
    48  C   -0.094895
    49  C   -0.022249
    50  C   -0.047863
    51  C   -0.026577
    52  C   -0.032892
    53  C   -0.032009
    54  C   -0.003800
    55  C   -0.060374
    56  C   -0.040361
    57  C   -0.042433
    58  C   -0.036506
    59  C   -0.016911
    60  C   -0.067611
    61  C   -0.039754
    62  C   -0.049955
    63  C   -0.040599
    64  C   -0.008845
    65  C   -0.061575
    66  C   -0.056152
    67  H    0.012637
    68  H    0.042846
    69  H    0.023638
    70  H    0.018243
    71  H    0.028092
    72  H    0.011214
    73  H    0.023085
    74  H    0.024397
    75  H    0.018373
    76  H    0.051086
    77  H    0.037552
    78  H    0.042999
    79  H    0.028415
    80  H    0.040024
    81  H    0.026927
    82  H    0.027754
    83  H    0.032524
    84  H    0.040256
    85  H    0.043222
    86  H    0.038631
    87  H    0.026862
    88  H    0.020461
    89  H    0.027647
    90  H    0.022985
    91  H    0.023141
    92  H    0.019688
    93  H    0.027116
    94  H    0.022215
    95  H    0.036971
    96  H    0.033904
    97  H    0.028865
    98  H    0.050239
    99  H    0.028263
   100  H    0.053831
   101  H    0.045556
   102  H    0.069582
   103  H    0.032253
   104  H    0.015833
   105  H    0.028040
   106  H    0.024963
   107  H    0.033809
   108  H    0.022486
   109  H    0.008756
   110  H    0.019098
   111  H    0.022329
   112  H    0.016221
   113  H    0.023585
   114  H    0.023175
   115  H    0.022177
   116  H    0.012305
   117  H    0.013853
   118  H    0.030662
   119  H    0.010737
   120  H    0.020189
   121  H    0.023826
   122  H    0.029534
   123  H    0.007840
   124  H    0.023529
   125  H    0.019008
   126  H    0.007184
   127  H    0.024066
   128  H    0.030797
   129  H    0.027336
   130  H    0.026047
   131  H    0.023892
   132  H    0.017653
   133  H    0.014379
   134  H    0.016492
   135  H    0.008657
   136  H    0.022531
   137  H    0.023535
   138  H    0.015927
   139  H    0.016838
   140  H    0.016867
 Sum of Mulliken charges =  -0.00000

 Dipole moment (field-independent basis, Debye):
    X=             -2.1624    Y=              5.7265    Z=             -6.4553  Tot=              8.8961
 N-N= 4.176587420623D+03 E-N= 0.000000000000D+00  KE=-9.028186898571D+03
 Leave Link  601 at Thu Apr 28 12:48:23 2022, MaxMem=  6710886400 cpu:               1.2 elap:               0.1
 (Enter /sw/apps/gaussian-16.0/g16/l9999.exe)
 1\1\GINC-BP1-COMPUTE139\SP\RZINDO CIS\STO-3G\C55H74Mg1N4O6\OF15641\28-
 Apr-2022\0\\#p ZINDO=(nstates=5)\\step_1551_chromophore_22 ZINDO\\0,1\
 Mg,0,8.869,48.279,24.865\C,0,6.741,48.271,27.807\C,0,11.365,49.344,26.
 813\C,0,10.674,48.254,22.188\C,0,5.934,48.214,22.917\N,0,9.031,48.792,
 27.015\C,0,8.091,48.558,28.075\C,0,8.779,48.867,29.381\C,0,10.077,49.6
 34,28.995\C,0,10.192,49.215,27.532\C,0,9.963,51.148,29.084\C,0,8.941,4
 7.675,30.343\C,0,8.585,47.968,31.783\C,0,8.416,46.713,32.706\O,0,8.561

 Normal termination of Gaussian 16 at Thu Apr 28 12:48:23 2022.
