 Gaussian 16, Revision A.03,
 Gaussian 16:  ES64L-G16RevA.03 25-Dec-2016

 ------------------------------
 #p blyp/Def2SVP td=(nstates=5)
 ------------------------------

 ---------------------------------------------------
 step_1601_chromophore_14 TDDFT with blyp functional
 ---------------------------------------------------
 Symbolic Z-matrix:
 Charge =  0 Multiplicity = 1

                         Standard orientation:
 ---------------------------------------------------------------------
 Center     Atomic      Atomic             Coordinates (Angstroms)
 Number     Number       Type             X           Y           Z
 ---------------------------------------------------------------------
      1         12           0        5.139695    1.081631   -0.083166
      2          6           0        4.958531   -2.339759    0.537132
      3          6           0        4.394936    0.560616   -3.389165
      4          6           0        3.921041    4.343212   -0.311825
      5          6           0        5.326907    1.522140    3.560630
      6          7           0        4.847294   -0.613936   -1.234728
      7          6           0        4.846646   -1.968673   -0.818678
      8          6           0        4.692957   -2.895217   -2.061282
      9          6           0        4.973353   -1.927463   -3.209603
     10          6           0        4.725905   -0.514081   -2.583520
     11          6           0        6.402612   -1.999110   -3.945783
     12          6           0        3.400725   -3.742795   -2.120802
     13          6           0        2.133836   -3.192561   -1.440478
     14          6           0        0.714577   -3.485431   -2.011117
     15          8           0        0.499819   -4.437560   -2.688969
     16          8           0       -0.193602   -2.509631   -1.758824
     17          7           0        4.406567    2.328888   -1.674965
     18          6           0        4.182733    1.926787   -3.025415
     19          6           0        3.777776    3.103044   -3.803832
     20          6           0        3.699385    4.183171   -2.942306
     21          6           0        4.046184    3.639686   -1.554193
     22          6           0        3.679900    3.152493   -5.337328
     23          6           0        3.337178    5.623851   -3.380586
     24          8           0        2.930619    5.832719   -4.497321
     25          6           0        3.459114    6.746464   -2.407856
     26          7           0        4.833935    2.667152    1.434368
     27          6           0        4.417071    3.978820    0.979942
     28          6           0        4.405313    4.982687    2.217811
     29          6           0        4.710848    3.980083    3.419432
     30          6           0        5.049050    2.654550    2.762011
     31          6           0        5.394122    6.276086    2.105917
     32          6           0        3.741497    4.036436    4.562252
     33          6           0        4.253851    3.727987    5.938901
     34          7           0        5.237843   -0.103434    1.728183
     35          6           0        5.385847    0.193750    3.062907
     36          6           0        5.520173   -1.038366    3.850638
     37          6           0        5.263324   -2.111739    2.940061
     38          6           0        5.193966   -1.460220    1.644988
     39          6           0        5.664970   -1.192733    5.275683
     40          6           0        5.184121   -3.555552    2.733013
     41          8           0        5.257079   -4.501639    3.544488
     42          6           0        4.995106   -3.722820    1.151976
     43          6           0        6.116860   -4.648889    0.634885
     44          8           0        6.020818   -5.659595   -0.019285
     45          8           0        7.370034   -4.119714    0.986506
     46          6           0        8.528617   -5.108796    0.719294
     47          6           0       -1.607731   -2.747104   -2.172843
     48          6           0       -2.627271   -1.948633   -1.359531
     49          6           0       -3.682058   -1.239929   -1.741222
     50          6           0       -4.045538   -0.798241   -3.137592
     51          6           0       -4.527746   -0.476852   -0.716967
     52          6           0       -5.838724   -1.108906   -0.367001
     53          6           0       -6.403174   -0.665328    0.987197
     54          6           0       -7.958261   -0.526876    0.924837
     55          6           0       -8.455550    0.064416    2.271625
     56          6           0       -8.737934   -1.891494    0.658385
     57          6           0       -9.920128   -1.831892   -0.238911
     58          6           0      -11.263297   -2.240888    0.367871
     59          6           0      -12.133438   -1.068210    0.833569
     60          6           0      -12.740233   -1.303589    2.231831
     61          6           0      -13.259778   -0.798104   -0.233563
     62          6           0      -13.133248    0.579324   -0.812490
     63          6           0      -14.442687    1.478186   -0.750354
     64          6           0      -14.705335    1.873554    0.728825
     65          6           0      -15.908396    1.060774    1.298496
     66          6           0      -14.995036    3.453762    0.664652
     67          1           0        4.349798    0.339439   -4.458440
     68          1           0        3.523874    5.360494   -0.333043
     69          1           0        5.592683    1.794740    4.583484
     70          1           0        5.398906   -3.715111   -1.938275
     71          1           0        4.231925   -1.980751   -4.006504
     72          1           0        6.206095   -1.939134   -5.015795
     73          1           0        6.832702   -2.936543   -3.593639
     74          1           0        6.976146   -1.113866   -3.670428
     75          1           0        3.590183   -4.649097   -1.544825
     76          1           0        3.123639   -4.115449   -3.107347
     77          1           0        2.317400   -2.141265   -1.666173
     78          1           0        2.192354   -3.294685   -0.356830
     79          1           0        2.634058    3.009697   -5.607656
     80          1           0        4.160844    2.264558   -5.748425
     81          1           0        4.186836    4.037525   -5.720750
     82          1           0        4.393336    6.665808   -1.852960
     83          1           0        2.638184    6.869546   -1.701122
     84          1           0        3.590133    7.608210   -3.062633
     85          1           0        3.380538    5.344184    2.136326
     86          1           0        5.659046    4.270237    3.870743
     87          1           0        6.217608    6.196198    2.815247
     88          1           0        4.811115    7.179245    2.286899
     89          1           0        5.814684    6.346401    1.102690
     90          1           0        2.982789    3.295030    4.312320
     91          1           0        3.267101    5.017543    4.577832
     92          1           0        5.344024    3.744109    5.946957
     93          1           0        3.809989    2.860982    6.427174
     94          1           0        4.036116    4.503157    6.673154
     95          1           0        6.595885   -0.769417    5.652380
     96          1           0        5.712625   -2.245422    5.553894
     97          1           0        4.718408   -0.818851    5.666474
     98          1           0        4.039848   -4.236221    1.037291
     99          1           0        9.511830   -4.661488    0.868086
    100          1           0        8.457583   -5.419772   -0.322951
    101          1           0        8.446204   -6.014116    1.321718
    102          1           0       -1.808866   -3.795557   -1.953242
    103          1           0       -1.671853   -2.595015   -3.250657
    104          1           0       -2.652831   -2.214827   -0.301988
    105          1           0       -3.411428    0.030083   -3.452089
    106          1           0       -5.043168   -0.360334   -3.134191
    107          1           0       -3.931605   -1.631888   -3.830861
    108          1           0       -4.660731    0.546999   -1.066004
    109          1           0       -3.995141   -0.272522    0.211704
    110          1           0       -5.667348   -2.182998   -0.288164
    111          1           0       -6.619839   -0.942750   -1.108372
    112          1           0       -5.932870    0.202929    1.449581
    113          1           0       -6.266498   -1.542462    1.619533
    114          1           0       -8.095989    0.189615    0.114890
    115          1           0       -9.309830   -0.441817    2.721300
    116          1           0       -8.694195    1.127933    2.291581
    117          1           0       -7.675194    0.043186    3.032103
    118          1           0       -9.063992   -2.392281    1.568618
    119          1           0       -8.055499   -2.491630    0.056381
    120          1           0       -9.819445   -2.444677   -1.134549
    121          1           0      -10.078613   -0.801014   -0.552814
    122          1           0      -11.174354   -2.974479    1.168570
    123          1           0      -11.757363   -2.823578   -0.410160
    124          1           0      -11.384464   -0.292223    0.990022
    125          1           0      -12.601706   -0.477475    2.929252
    126          1           0      -12.297007   -2.183986    2.697919
    127          1           0      -13.803764   -1.539392    2.179005
    128          1           0      -14.298258   -0.931432    0.068767
    129          1           0      -13.165489   -1.463314   -1.091735
    130          1           0      -12.893126    0.548645   -1.875196
    131          1           0      -12.278310    1.062533   -0.340053
    132          1           0      -15.199634    0.865577   -1.240491
    133          1           0      -14.377463    2.330265   -1.426846
    134          1           0      -13.900669    1.575449    1.400938
    135          1           0      -16.515003    1.656855    1.979434
    136          1           0      -15.555381    0.203428    1.873017
    137          1           0      -16.535073    0.827213    0.437752
    138          1           0      -14.382839    3.982989    1.395778
    139          1           0      -16.042712    3.583870    0.935911
    140          1           0      -14.841714    4.045494   -0.237383
 ---------------------------------------------------------------------

 SCF Done:  E(RB-LYP) =  -3007.36098743     A.U. after   22 cycles

 Excitation energies and oscillator strengths:

 Excited State   1:      Singlet-A      1.7232 eV  719.51 nm  f=0.2960  <S**2>=0.000
     245 -> 248        0.18262
     246 -> 247        0.69689
     246 <- 247       -0.16654
 This state for optimization and/or second-order correction.
 Total Energy, E(TD-HF/TD-DFT) =  -3007.29766157
 Copying the excited state density for this state as the 1-particle RhoCI density.

 Excited State   2:      Singlet-A      1.9690 eV  629.68 nm  f=0.0115  <S**2>=0.000
     244 -> 247        0.62503
     245 -> 247        0.29663
     246 -> 248       -0.11138

 Excited State   3:      Singlet-A      2.0035 eV  618.83 nm  f=0.0211  <S**2>=0.000
     243 -> 247        0.49096
     244 -> 247        0.27134
     245 -> 247       -0.38131
     246 -> 248        0.18709

 Excited State   4:      Singlet-A      2.0209 eV  613.51 nm  f=0.0254  <S**2>=0.000
     243 -> 247        0.50260
     244 -> 247       -0.18351
     245 -> 247        0.40697
     246 -> 248       -0.19586

 Excited State   5:      Singlet-A      2.3539 eV  526.71 nm  f=0.0017  <S**2>=0.000
     241 -> 247       -0.36126
     242 -> 247        0.60712

 The electronic state is 1-A.
 Alpha  occ. eigenvalues --  -46.28130 -18.81641 -18.81209 -18.77428 -18.76068
 Alpha  occ. eigenvalues --  -18.76065 -18.75957 -14.03790 -14.03678 -14.01802
 Alpha  occ. eigenvalues --  -14.01219 -10.04366 -10.03408 -10.00270 -10.00210
 Alpha  occ. eigenvalues --   -9.98121  -9.97883  -9.97640  -9.97554  -9.96854
 Alpha  occ. eigenvalues --   -9.96699  -9.96622  -9.96304  -9.95982  -9.95213
 Alpha  occ. eigenvalues --   -9.95097  -9.94780  -9.94309  -9.94170  -9.93903
 Alpha  occ. eigenvalues --   -9.93896  -9.93878  -9.93876  -9.93739  -9.93471
 Alpha  occ. eigenvalues --   -9.93366  -9.93110  -9.93022  -9.92942  -9.92703
 Alpha  occ. eigenvalues --   -9.92652  -9.92585  -9.92490  -9.92343  -9.92271
 Alpha  occ. eigenvalues --   -9.92232  -9.92166  -9.92138  -9.92083  -9.92042
 Alpha  occ. eigenvalues --   -9.91882  -9.91792  -9.91710  -9.91657  -9.91328
 Alpha  occ. eigenvalues --   -9.91248  -9.91025  -9.90828  -9.90772  -9.90706
 Alpha  occ. eigenvalues --   -9.90647  -9.90633  -9.90546  -9.90500  -9.90184
 Alpha  occ. eigenvalues --   -9.90114  -2.92607  -1.73021  -1.72457  -1.72355
 Alpha  occ. eigenvalues --   -0.97745  -0.96765  -0.92901  -0.90050  -0.89978
 Alpha  occ. eigenvalues --   -0.88858  -0.85903  -0.85134  -0.84442  -0.83770
 Alpha  occ. eigenvalues --   -0.75149  -0.74048  -0.73187  -0.72822  -0.72261
 Alpha  occ. eigenvalues --   -0.71810  -0.71407  -0.70777  -0.70477  -0.70241
 Alpha  occ. eigenvalues --   -0.69483  -0.68631  -0.68091  -0.67182  -0.67168
 Alpha  occ. eigenvalues --   -0.66431  -0.65875  -0.65249  -0.64758  -0.64351
 Alpha  occ. eigenvalues --   -0.64182  -0.62429  -0.62184  -0.61412  -0.60835
 Alpha  occ. eigenvalues --   -0.60400  -0.59929  -0.59854  -0.59657  -0.58718
 Alpha  occ. eigenvalues --   -0.58444  -0.57651  -0.56854  -0.55588  -0.55035
 Alpha  occ. eigenvalues --   -0.53883  -0.53243  -0.52277  -0.52062  -0.51498
 Alpha  occ. eigenvalues --   -0.51004  -0.50822  -0.50420  -0.50091  -0.49999
 Alpha  occ. eigenvalues --   -0.49400  -0.48998  -0.48625  -0.48461  -0.46162
 Alpha  occ. eigenvalues --   -0.46008  -0.45590  -0.45270  -0.44737  -0.44201
 Alpha  occ. eigenvalues --   -0.43678  -0.43206  -0.42960  -0.42742  -0.42270
 Alpha  occ. eigenvalues --   -0.41926  -0.41787  -0.41421  -0.41168  -0.40978
 Alpha  occ. eigenvalues --   -0.40828  -0.40349  -0.40293  -0.40090  -0.39786
 Alpha  occ. eigenvalues --   -0.39626  -0.39465  -0.39392  -0.39345  -0.39128
 Alpha  occ. eigenvalues --   -0.39015  -0.38921  -0.38660  -0.38580  -0.38442
 Alpha  occ. eigenvalues --   -0.38421  -0.37901  -0.37716  -0.37400  -0.37316
 Alpha  occ. eigenvalues --   -0.37115  -0.36966  -0.36900  -0.36795  -0.36447
 Alpha  occ. eigenvalues --   -0.36263  -0.36179  -0.36061  -0.35979  -0.35807
 Alpha  occ. eigenvalues --   -0.35639  -0.35432  -0.35127  -0.34932  -0.34645
 Alpha  occ. eigenvalues --   -0.34439  -0.34376  -0.34169  -0.33766  -0.33743
 Alpha  occ. eigenvalues --   -0.33606  -0.33458  -0.33365  -0.33133  -0.33026
 Alpha  occ. eigenvalues --   -0.32975  -0.32856  -0.32597  -0.32253  -0.32108
 Alpha  occ. eigenvalues --   -0.32021  -0.31786  -0.31498  -0.31439  -0.31356
 Alpha  occ. eigenvalues --   -0.31248  -0.31079  -0.30925  -0.30845  -0.30759
 Alpha  occ. eigenvalues --   -0.30662  -0.30166  -0.30092  -0.30072  -0.29798
 Alpha  occ. eigenvalues --   -0.29624  -0.29583  -0.29370  -0.28914  -0.28728
 Alpha  occ. eigenvalues --   -0.28638  -0.28361  -0.28304  -0.27947  -0.27667
 Alpha  occ. eigenvalues --   -0.27478  -0.26863  -0.26740  -0.26539  -0.26427
 Alpha  occ. eigenvalues --   -0.26362  -0.26123  -0.25543  -0.25382  -0.25016
 Alpha  occ. eigenvalues --   -0.24912  -0.24780  -0.24417  -0.23844  -0.23210
 Alpha  occ. eigenvalues --   -0.22869  -0.22630  -0.21962  -0.21594  -0.20862
 Alpha  occ. eigenvalues --   -0.20527  -0.20498  -0.19171  -0.19019  -0.17788
 Alpha  occ. eigenvalues --   -0.15752
 Alpha virt. eigenvalues --   -0.11863  -0.07506  -0.06508  -0.04802  -0.03638
 Alpha virt. eigenvalues --   -0.02856  -0.02612  -0.01952  -0.00828  -0.00397
 Alpha virt. eigenvalues --    0.00749   0.01571   0.02280   0.02767   0.03053

 Mulliken charges:
               1
     1  Mg   0.701837
     2  C    0.048920
     3  C   -0.050137
     4  C   -0.017973
     5  C   -0.098045
     6  N   -0.280461
     7  C   -0.063486
     8  C    0.070168
     9  C   -0.007588
    10  C    0.046232
    11  C    0.135751
    12  C    0.085329
    13  C    0.061263
    14  C    0.080373
    15  O   -0.163884
    16  O   -0.271958
    17  N   -0.298386
    18  C    0.121431
    19  C   -0.146130
    20  C    0.009400
    21  C    0.111882
    22  C    0.206904
    23  C   -0.082299
    24  O   -0.145543
    25  C    0.121239
    26  N   -0.224908
    27  C    0.001017
    28  C   -0.021784
    29  C    0.039397
    30  C    0.005935
    31  C    0.109896
    32  C    0.125218
    33  C    0.074080
    34  N   -0.221927
    35  C    0.142512
    36  C   -0.186703
    37  C    0.070875
    38  C    0.032077
    39  C    0.183430
    40  C   -0.022540
    41  O   -0.152490
    42  C    0.048988
    43  C    0.122390
    44  O   -0.157024
    45  O   -0.315341
    46  C    0.216588
    47  C    0.313911
    48  C   -0.064074
    49  C   -0.141837
    50  C    0.139924
    51  C    0.116904
    52  C    0.079584
    53  C    0.095695
    54  C   -0.090706
    55  C    0.107141
    56  C    0.140953
    57  C    0.060598
    58  C    0.083449
    59  C   -0.070054
    60  C    0.097302
    61  C    0.151365
    62  C    0.027153
    63  C    0.097288
    64  C   -0.080176
    65  C    0.100922
    66  C    0.085112
    67  H   -0.061824
    68  H   -0.073976
    69  H   -0.057997
    70  H   -0.024428
    71  H   -0.031363
    72  H    0.000827
    73  H    0.005650
    74  H   -0.002561
    75  H   -0.015570
    76  H   -0.016101
    77  H    0.007357
    78  H    0.006394
    79  H    0.003033
    80  H   -0.036055
    81  H    0.020150
    82  H   -0.002698
    83  H    0.037978
    84  H   -0.007305
    85  H   -0.010709
    86  H   -0.036450
    87  H   -0.003421
    88  H   -0.001221
    89  H   -0.002243
    90  H   -0.022002
    91  H   -0.022735
    92  H   -0.010978
    93  H   -0.000533
    94  H   -0.027071
    95  H    0.001553
    96  H   -0.002345
    97  H    0.010906
    98  H   -0.000705
    99  H    0.018949
   100  H    0.015197
   101  H    0.026400
   102  H   -0.000543
   103  H   -0.007194
   104  H   -0.034099
   105  H    0.009375
   106  H   -0.013262
   107  H    0.003743
   108  H   -0.035035
   109  H   -0.038353
   110  H   -0.024458
   111  H   -0.025042
   112  H   -0.021643
   113  H   -0.036424
   114  H   -0.033390
   115  H   -0.014049
   116  H   -0.024916
   117  H   -0.031296
   118  H   -0.024287
   119  H   -0.038808
   120  H   -0.036916
   121  H   -0.032295
   122  H   -0.050953
   123  H   -0.050248
   124  H   -0.022457
   125  H   -0.009073
   126  H   -0.033364
   127  H   -0.014662
   128  H   -0.033951
   129  H   -0.037992
   130  H   -0.047257
   131  H   -0.032120
   132  H   -0.033793
   133  H   -0.037459
   134  H   -0.018232
   135  H   -0.025537
   136  H   -0.005615
   137  H   -0.017547
   138  H   -0.018891
   139  H   -0.022160
   140  H   -0.008885
 Sum of Mulliken charges =  -0.00000

 Dipole moment (field-independent basis, Debye):
    X=              1.4520    Y=              5.6088    Z=              1.6729  Tot=              6.0304
 Quadrupole moment (field-independent basis, Debye-Ang):
   XX=           -365.1196   YY=           -433.0128   ZZ=           -408.7441
   XY=             22.2696   XZ=              2.2032   YZ=             31.5112

 Normal termination of Gaussian 16 at Thu Apr 28 14:20:33 2022.
