 Gaussian 16, Revision A.03,
 Gaussian 16:  ES64L-G16RevA.03 25-Dec-2016

 -----------------------------------
 #p cam-b3lyp/Def2SVP td=(nstates=5)
 -----------------------------------

 --------------------------------------------------------
 step_1601_chromophore_14 TDDFT with cam-b3lyp functional
 --------------------------------------------------------
 Symbolic Z-matrix:
 Charge =  0 Multiplicity = 1

                         Standard orientation:
 ---------------------------------------------------------------------
 Center     Atomic      Atomic             Coordinates (Angstroms)
 Number     Number       Type             X           Y           Z
 ---------------------------------------------------------------------
      1         12           0        5.139695    1.081631   -0.083166
      2          6           0        4.958531   -2.339759    0.537132
      3          6           0        4.394936    0.560616   -3.389165
      4          6           0        3.921041    4.343212   -0.311825
      5          6           0        5.326907    1.522140    3.560630
      6          7           0        4.847294   -0.613936   -1.234728
      7          6           0        4.846646   -1.968673   -0.818678
      8          6           0        4.692957   -2.895217   -2.061282
      9          6           0        4.973353   -1.927463   -3.209603
     10          6           0        4.725905   -0.514081   -2.583520
     11          6           0        6.402612   -1.999110   -3.945783
     12          6           0        3.400725   -3.742795   -2.120802
     13          6           0        2.133836   -3.192561   -1.440478
     14          6           0        0.714577   -3.485431   -2.011117
     15          8           0        0.499819   -4.437560   -2.688969
     16          8           0       -0.193602   -2.509631   -1.758824
     17          7           0        4.406567    2.328888   -1.674965
     18          6           0        4.182733    1.926787   -3.025415
     19          6           0        3.777776    3.103044   -3.803832
     20          6           0        3.699385    4.183171   -2.942306
     21          6           0        4.046184    3.639686   -1.554193
     22          6           0        3.679900    3.152493   -5.337328
     23          6           0        3.337178    5.623851   -3.380586
     24          8           0        2.930619    5.832719   -4.497321
     25          6           0        3.459114    6.746464   -2.407856
     26          7           0        4.833935    2.667152    1.434368
     27          6           0        4.417071    3.978820    0.979942
     28          6           0        4.405313    4.982687    2.217811
     29          6           0        4.710848    3.980083    3.419432
     30          6           0        5.049050    2.654550    2.762011
     31          6           0        5.394122    6.276086    2.105917
     32          6           0        3.741497    4.036436    4.562252
     33          6           0        4.253851    3.727987    5.938901
     34          7           0        5.237843   -0.103434    1.728183
     35          6           0        5.385847    0.193750    3.062907
     36          6           0        5.520173   -1.038366    3.850638
     37          6           0        5.263324   -2.111739    2.940061
     38          6           0        5.193966   -1.460220    1.644988
     39          6           0        5.664970   -1.192733    5.275683
     40          6           0        5.184121   -3.555552    2.733013
     41          8           0        5.257079   -4.501639    3.544488
     42          6           0        4.995106   -3.722820    1.151976
     43          6           0        6.116860   -4.648889    0.634885
     44          8           0        6.020818   -5.659595   -0.019285
     45          8           0        7.370034   -4.119714    0.986506
     46          6           0        8.528617   -5.108796    0.719294
     47          6           0       -1.607731   -2.747104   -2.172843
     48          6           0       -2.627271   -1.948633   -1.359531
     49          6           0       -3.682058   -1.239929   -1.741222
     50          6           0       -4.045538   -0.798241   -3.137592
     51          6           0       -4.527746   -0.476852   -0.716967
     52          6           0       -5.838724   -1.108906   -0.367001
     53          6           0       -6.403174   -0.665328    0.987197
     54          6           0       -7.958261   -0.526876    0.924837
     55          6           0       -8.455550    0.064416    2.271625
     56          6           0       -8.737934   -1.891494    0.658385
     57          6           0       -9.920128   -1.831892   -0.238911
     58          6           0      -11.263297   -2.240888    0.367871
     59          6           0      -12.133438   -1.068210    0.833569
     60          6           0      -12.740233   -1.303589    2.231831
     61          6           0      -13.259778   -0.798104   -0.233563
     62          6           0      -13.133248    0.579324   -0.812490
     63          6           0      -14.442687    1.478186   -0.750354
     64          6           0      -14.705335    1.873554    0.728825
     65          6           0      -15.908396    1.060774    1.298496
     66          6           0      -14.995036    3.453762    0.664652
     67          1           0        4.349798    0.339439   -4.458440
     68          1           0        3.523874    5.360494   -0.333043
     69          1           0        5.592683    1.794740    4.583484
     70          1           0        5.398906   -3.715111   -1.938275
     71          1           0        4.231925   -1.980751   -4.006504
     72          1           0        6.206095   -1.939134   -5.015795
     73          1           0        6.832702   -2.936543   -3.593639
     74          1           0        6.976146   -1.113866   -3.670428
     75          1           0        3.590183   -4.649097   -1.544825
     76          1           0        3.123639   -4.115449   -3.107347
     77          1           0        2.317400   -2.141265   -1.666173
     78          1           0        2.192354   -3.294685   -0.356830
     79          1           0        2.634058    3.009697   -5.607656
     80          1           0        4.160844    2.264558   -5.748425
     81          1           0        4.186836    4.037525   -5.720750
     82          1           0        4.393336    6.665808   -1.852960
     83          1           0        2.638184    6.869546   -1.701122
     84          1           0        3.590133    7.608210   -3.062633
     85          1           0        3.380538    5.344184    2.136326
     86          1           0        5.659046    4.270237    3.870743
     87          1           0        6.217608    6.196198    2.815247
     88          1           0        4.811115    7.179245    2.286899
     89          1           0        5.814684    6.346401    1.102690
     90          1           0        2.982789    3.295030    4.312320
     91          1           0        3.267101    5.017543    4.577832
     92          1           0        5.344024    3.744109    5.946957
     93          1           0        3.809989    2.860982    6.427174
     94          1           0        4.036116    4.503157    6.673154
     95          1           0        6.595885   -0.769417    5.652380
     96          1           0        5.712625   -2.245422    5.553894
     97          1           0        4.718408   -0.818851    5.666474
     98          1           0        4.039848   -4.236221    1.037291
     99          1           0        9.511830   -4.661488    0.868086
    100          1           0        8.457583   -5.419772   -0.322951
    101          1           0        8.446204   -6.014116    1.321718
    102          1           0       -1.808866   -3.795557   -1.953242
    103          1           0       -1.671853   -2.595015   -3.250657
    104          1           0       -2.652831   -2.214827   -0.301988
    105          1           0       -3.411428    0.030083   -3.452089
    106          1           0       -5.043168   -0.360334   -3.134191
    107          1           0       -3.931605   -1.631888   -3.830861
    108          1           0       -4.660731    0.546999   -1.066004
    109          1           0       -3.995141   -0.272522    0.211704
    110          1           0       -5.667348   -2.182998   -0.288164
    111          1           0       -6.619839   -0.942750   -1.108372
    112          1           0       -5.932870    0.202929    1.449581
    113          1           0       -6.266498   -1.542462    1.619533
    114          1           0       -8.095989    0.189615    0.114890
    115          1           0       -9.309830   -0.441817    2.721300
    116          1           0       -8.694195    1.127933    2.291581
    117          1           0       -7.675194    0.043186    3.032103
    118          1           0       -9.063992   -2.392281    1.568618
    119          1           0       -8.055499   -2.491630    0.056381
    120          1           0       -9.819445   -2.444677   -1.134549
    121          1           0      -10.078613   -0.801014   -0.552814
    122          1           0      -11.174354   -2.974479    1.168570
    123          1           0      -11.757363   -2.823578   -0.410160
    124          1           0      -11.384464   -0.292223    0.990022
    125          1           0      -12.601706   -0.477475    2.929252
    126          1           0      -12.297007   -2.183986    2.697919
    127          1           0      -13.803764   -1.539392    2.179005
    128          1           0      -14.298258   -0.931432    0.068767
    129          1           0      -13.165489   -1.463314   -1.091735
    130          1           0      -12.893126    0.548645   -1.875196
    131          1           0      -12.278310    1.062533   -0.340053
    132          1           0      -15.199634    0.865577   -1.240491
    133          1           0      -14.377463    2.330265   -1.426846
    134          1           0      -13.900669    1.575449    1.400938
    135          1           0      -16.515003    1.656855    1.979434
    136          1           0      -15.555381    0.203428    1.873017
    137          1           0      -16.535073    0.827213    0.437752
    138          1           0      -14.382839    3.982989    1.395778
    139          1           0      -16.042712    3.583870    0.935911
    140          1           0      -14.841714    4.045494   -0.237383
 ---------------------------------------------------------------------

 SCF Done:  E(RCAM-B3LYP) =  -3007.13986393     A.U. after   17 cycles

 Excitation energies and oscillator strengths:

 Excited State   1:      Singlet-A      1.5999 eV  774.95 nm  f=0.3764  <S**2>=0.000
     245 -> 248        0.16687
     246 -> 247        0.68972
     245 <- 248        0.10779
 This state for optimization and/or second-order correction.
 Total Energy, E(TD-HF/TD-DFT) =  -3007.08106834
 Copying the excited state density for this state as the 1-particle RhoCI density.

 Excited State   2:      Singlet-A      2.2240 eV  557.48 nm  f=0.0584  <S**2>=0.000
     245 -> 247        0.60593
     246 -> 248       -0.35268

 Excited State   3:      Singlet-A      3.3157 eV  373.93 nm  f=0.3106  <S**2>=0.000
     244 -> 247        0.45656
     245 -> 247        0.24739
     246 -> 248        0.46573

 Excited State   4:      Singlet-A      3.3642 eV  368.54 nm  f=0.2079  <S**2>=0.000
     243 -> 247       -0.35193
     244 -> 247        0.45618
     245 -> 247       -0.18528
     246 -> 248       -0.33665

 Excited State   5:      Singlet-A      3.5118 eV  353.05 nm  f=0.1093  <S**2>=0.000
     240 -> 247       -0.12291
     241 -> 247       -0.35373
     241 -> 249        0.26420
     241 -> 251       -0.11635
     243 -> 247        0.43523
     244 -> 247        0.14102
     245 -> 247       -0.12927
     246 -> 248       -0.13690

 The electronic state is 1-A.
 Alpha  occ. eigenvalues --  -46.89751 -19.24478 -19.23996 -19.20548 -19.19385
 Alpha  occ. eigenvalues --  -19.19315 -19.18839 -14.42658 -14.42603 -14.40428
 Alpha  occ. eigenvalues --  -14.39646 -10.39828 -10.38533 -10.35782 -10.35442
 Alpha  occ. eigenvalues --  -10.32339 -10.32238 -10.32170 -10.31933 -10.31452
 Alpha  occ. eigenvalues --  -10.31179 -10.30976 -10.30783 -10.30216 -10.29482
 Alpha  occ. eigenvalues --  -10.29327 -10.29290 -10.28592 -10.28397 -10.28313
 Alpha  occ. eigenvalues --  -10.28184 -10.28129 -10.27888 -10.27765 -10.27473
 Alpha  occ. eigenvalues --  -10.27272 -10.27227 -10.27135 -10.27122 -10.26646
 Alpha  occ. eigenvalues --  -10.26470 -10.26324 -10.26319 -10.26246 -10.26139
 Alpha  occ. eigenvalues --  -10.26092 -10.25916 -10.25807 -10.25790 -10.25762
 Alpha  occ. eigenvalues --  -10.25743 -10.25699 -10.25448 -10.25412 -10.24938
 Alpha  occ. eigenvalues --  -10.24892 -10.24659 -10.24448 -10.24392 -10.24358
 Alpha  occ. eigenvalues --  -10.24265 -10.24260 -10.24149 -10.24080 -10.23820
 Alpha  occ. eigenvalues --  -10.23741  -3.18121  -1.93013  -1.92547  -1.92443
 Alpha  occ. eigenvalues --   -1.16185  -1.15301  -1.11441  -1.08439  -1.07763
 Alpha  occ. eigenvalues --   -1.06631  -1.03566  -1.02716  -1.02037  -1.01262
 Alpha  occ. eigenvalues --   -0.92287  -0.90921  -0.89996  -0.89466  -0.88988
 Alpha  occ. eigenvalues --   -0.88488  -0.88078  -0.87403  -0.87018  -0.86721
 Alpha  occ. eigenvalues --   -0.86135  -0.84908  -0.84399  -0.83420  -0.83275
 Alpha  occ. eigenvalues --   -0.82515  -0.82027  -0.81145  -0.80674  -0.80138
 Alpha  occ. eigenvalues --   -0.79871  -0.78054  -0.77680  -0.77044  -0.76261
 Alpha  occ. eigenvalues --   -0.75710  -0.75217  -0.75192  -0.74957  -0.73875
 Alpha  occ. eigenvalues --   -0.73536  -0.72651  -0.71750  -0.70390  -0.69633
 Alpha  occ. eigenvalues --   -0.68544  -0.67717  -0.66702  -0.66470  -0.65547
 Alpha  occ. eigenvalues --   -0.65078  -0.65005  -0.64493  -0.64039  -0.63990
 Alpha  occ. eigenvalues --   -0.63345  -0.62938  -0.62264  -0.62050  -0.59662
 Alpha  occ. eigenvalues --   -0.59598  -0.59037  -0.58708  -0.58100  -0.57736
 Alpha  occ. eigenvalues --   -0.57131  -0.56425  -0.56203  -0.56110  -0.55389
 Alpha  occ. eigenvalues --   -0.54868  -0.54567  -0.54462  -0.54003  -0.53799
 Alpha  occ. eigenvalues --   -0.53712  -0.53233  -0.53107  -0.52969  -0.52791
 Alpha  occ. eigenvalues --   -0.52405  -0.52207  -0.51979  -0.51774  -0.51674
 Alpha  occ. eigenvalues --   -0.51521  -0.51343  -0.51283  -0.51069  -0.50887
 Alpha  occ. eigenvalues --   -0.50751  -0.50127  -0.50052  -0.49839  -0.49711
 Alpha  occ. eigenvalues --   -0.49541  -0.49387  -0.49220  -0.49049  -0.48874
 Alpha  occ. eigenvalues --   -0.48589  -0.48533  -0.48263  -0.47980  -0.47933
 Alpha  occ. eigenvalues --   -0.47601  -0.47473  -0.46992  -0.46959  -0.46578
 Alpha  occ. eigenvalues --   -0.46377  -0.46181  -0.46096  -0.45679  -0.45563
 Alpha  occ. eigenvalues --   -0.45461  -0.45384  -0.45203  -0.44989  -0.44690
 Alpha  occ. eigenvalues --   -0.44625  -0.44506  -0.44238  -0.43765  -0.43630
 Alpha  occ. eigenvalues --   -0.43574  -0.43532  -0.43172  -0.42953  -0.42857
 Alpha  occ. eigenvalues --   -0.42745  -0.42638  -0.42528  -0.42237  -0.42138
 Alpha  occ. eigenvalues --   -0.42028  -0.41985  -0.41584  -0.41282  -0.40945
 Alpha  occ. eigenvalues --   -0.40763  -0.40676  -0.40627  -0.40256  -0.39958
 Alpha  occ. eigenvalues --   -0.39745  -0.39373  -0.39289  -0.38882  -0.38615
 Alpha  occ. eigenvalues --   -0.38344  -0.37968  -0.37633  -0.37494  -0.37299
 Alpha  occ. eigenvalues --   -0.37081  -0.36840  -0.36557  -0.36364  -0.36068
 Alpha  occ. eigenvalues --   -0.35945  -0.35561  -0.34937  -0.34907  -0.34155
 Alpha  occ. eigenvalues --   -0.33319  -0.33242  -0.32743  -0.31686  -0.31442
 Alpha  occ. eigenvalues --   -0.31093  -0.30527  -0.30169  -0.29742  -0.24741
 Alpha  occ. eigenvalues --   -0.20846
 Alpha virt. eigenvalues --   -0.09012  -0.02410  -0.00036   0.01380   0.02194
 Alpha virt. eigenvalues --    0.04871   0.05063   0.05165   0.06695   0.07369
 Alpha virt. eigenvalues --    0.07489   0.08320   0.08561   0.08975   0.09254

 Mulliken charges:
               1
     1  Mg   0.830469
     2  C    0.015190
     3  C   -0.062216
     4  C   -0.043697
     5  C   -0.103390
     6  N   -0.353924
     7  C   -0.023890
     8  C    0.018134
     9  C   -0.063678
    10  C    0.060551
    11  C    0.083792
    12  C    0.037985
    13  C   -0.003756
    14  C    0.162941
    15  O   -0.205405
    16  O   -0.336771
    17  N   -0.379777
    18  C    0.123164
    19  C   -0.147868
    20  C   -0.058530
    21  C    0.141272
    22  C    0.152478
    23  C   -0.001537
    24  O   -0.183655
    25  C    0.034366
    26  N   -0.294521
    27  C    0.025812
    28  C   -0.072897
    29  C   -0.023287
    30  C    0.034823
    31  C    0.056193
    32  C    0.068170
    33  C    0.003527
    34  N   -0.307240
    35  C    0.144145
    36  C   -0.175644
    37  C   -0.003602
    38  C    0.071778
    39  C    0.120226
    40  C    0.078498
    41  O   -0.191652
    42  C   -0.022841
    43  C    0.207167
    44  O   -0.197105
    45  O   -0.378595
    46  C    0.178302
    47  C    0.282368
    48  C   -0.083939
    49  C   -0.163117
    50  C    0.077877
    51  C    0.050274
    52  C    0.027456
    53  C    0.042605
    54  C   -0.143309
    55  C    0.048200
    56  C    0.078989
    57  C    0.010540
    58  C    0.032449
    59  C   -0.130390
    60  C    0.042857
    61  C    0.091495
    62  C   -0.022129
    63  C    0.044638
    64  C   -0.139317
    65  C    0.043814
    66  C    0.027069
    67  H   -0.026447
    68  H   -0.038684
    69  H   -0.020432
    70  H    0.011634
    71  H    0.004209
    72  H    0.023497
    73  H    0.028407
    74  H    0.021824
    75  H    0.014531
    76  H    0.018524
    77  H    0.036404
    78  H    0.033329
    79  H    0.030977
    80  H   -0.010141
    81  H    0.046051
    82  H    0.025542
    83  H    0.064708
    84  H    0.028096
    85  H    0.022003
    86  H   -0.002402
    87  H    0.020608
    88  H    0.021864
    89  H    0.020531
    90  H    0.008577
    91  H    0.007190
    92  H    0.011114
    93  H    0.024143
    94  H    0.000649
    95  H    0.027528
    96  H    0.027687
    97  H    0.036249
    98  H    0.038773
    99  H    0.042642
   100  H    0.038805
   101  H    0.048316
   102  H    0.030270
   103  H    0.020628
   104  H   -0.001656
   105  H    0.035277
   106  H    0.011895
   107  H    0.026420
   108  H   -0.004233
   109  H   -0.005492
   110  H    0.003760
   111  H   -0.000223
   112  H    0.007172
   113  H   -0.007084
   114  H   -0.002279
   115  H    0.006724
   116  H    0.000575
   117  H   -0.005073
   118  H    0.003951
   119  H   -0.008289
   120  H   -0.005896
   121  H   -0.006434
   122  H   -0.021150
   123  H   -0.019258
   124  H    0.005824
   125  H    0.013519
   126  H   -0.007646
   127  H    0.007247
   128  H   -0.005672
   129  H   -0.006919
   130  H   -0.016908
   131  H   -0.005256
   132  H   -0.006872
   133  H   -0.007311
   134  H    0.010009
   135  H    0.000452
   136  H    0.014553
   137  H    0.006160
   138  H    0.005301
   139  H    0.001136
   140  H    0.014531
 Sum of Mulliken charges =  -0.00000

 Dipole moment (field-independent basis, Debye):
    X=              1.5215    Y=              6.0762    Z=              1.5891  Tot=              6.4623
 Quadrupole moment (field-independent basis, Debye-Ang):
   XX=           -362.9700   YY=           -429.5879   ZZ=           -406.8605
   XY=             23.5360   XZ=              1.7654   YZ=             31.6551

 Normal termination of Gaussian 16 at Thu Apr 28 13:19:08 2022.
