 Gaussian 16, Revision A.03,
 Gaussian 16:  ES64L-G16RevA.03 25-Dec-2016

 ---------------------------------
 #p PBE1PBE/Def2SVP td=(nstates=5)
 ---------------------------------

 ------------------------------------------------------
 step_1601_chromophore_14 TDDFT with PBE1PBE functional
 ------------------------------------------------------
 Symbolic Z-matrix:
 Charge =  0 Multiplicity = 1

                         Standard orientation:
 ---------------------------------------------------------------------
 Center     Atomic      Atomic             Coordinates (Angstroms)
 Number     Number       Type             X           Y           Z
 ---------------------------------------------------------------------
      1         12           0        5.139695    1.081631   -0.083166
      2          6           0        4.958531   -2.339759    0.537132
      3          6           0        4.394936    0.560616   -3.389165
      4          6           0        3.921041    4.343212   -0.311825
      5          6           0        5.326907    1.522140    3.560630
      6          7           0        4.847294   -0.613936   -1.234728
      7          6           0        4.846646   -1.968673   -0.818678
      8          6           0        4.692957   -2.895217   -2.061282
      9          6           0        4.973353   -1.927463   -3.209603
     10          6           0        4.725905   -0.514081   -2.583520
     11          6           0        6.402612   -1.999110   -3.945783
     12          6           0        3.400725   -3.742795   -2.120802
     13          6           0        2.133836   -3.192561   -1.440478
     14          6           0        0.714577   -3.485431   -2.011117
     15          8           0        0.499819   -4.437560   -2.688969
     16          8           0       -0.193602   -2.509631   -1.758824
     17          7           0        4.406567    2.328888   -1.674965
     18          6           0        4.182733    1.926787   -3.025415
     19          6           0        3.777776    3.103044   -3.803832
     20          6           0        3.699385    4.183171   -2.942306
     21          6           0        4.046184    3.639686   -1.554193
     22          6           0        3.679900    3.152493   -5.337328
     23          6           0        3.337178    5.623851   -3.380586
     24          8           0        2.930619    5.832719   -4.497321
     25          6           0        3.459114    6.746464   -2.407856
     26          7           0        4.833935    2.667152    1.434368
     27          6           0        4.417071    3.978820    0.979942
     28          6           0        4.405313    4.982687    2.217811
     29          6           0        4.710848    3.980083    3.419432
     30          6           0        5.049050    2.654550    2.762011
     31          6           0        5.394122    6.276086    2.105917
     32          6           0        3.741497    4.036436    4.562252
     33          6           0        4.253851    3.727987    5.938901
     34          7           0        5.237843   -0.103434    1.728183
     35          6           0        5.385847    0.193750    3.062907
     36          6           0        5.520173   -1.038366    3.850638
     37          6           0        5.263324   -2.111739    2.940061
     38          6           0        5.193966   -1.460220    1.644988
     39          6           0        5.664970   -1.192733    5.275683
     40          6           0        5.184121   -3.555552    2.733013
     41          8           0        5.257079   -4.501639    3.544488
     42          6           0        4.995106   -3.722820    1.151976
     43          6           0        6.116860   -4.648889    0.634885
     44          8           0        6.020818   -5.659595   -0.019285
     45          8           0        7.370034   -4.119714    0.986506
     46          6           0        8.528617   -5.108796    0.719294
     47          6           0       -1.607731   -2.747104   -2.172843
     48          6           0       -2.627271   -1.948633   -1.359531
     49          6           0       -3.682058   -1.239929   -1.741222
     50          6           0       -4.045538   -0.798241   -3.137592
     51          6           0       -4.527746   -0.476852   -0.716967
     52          6           0       -5.838724   -1.108906   -0.367001
     53          6           0       -6.403174   -0.665328    0.987197
     54          6           0       -7.958261   -0.526876    0.924837
     55          6           0       -8.455550    0.064416    2.271625
     56          6           0       -8.737934   -1.891494    0.658385
     57          6           0       -9.920128   -1.831892   -0.238911
     58          6           0      -11.263297   -2.240888    0.367871
     59          6           0      -12.133438   -1.068210    0.833569
     60          6           0      -12.740233   -1.303589    2.231831
     61          6           0      -13.259778   -0.798104   -0.233563
     62          6           0      -13.133248    0.579324   -0.812490
     63          6           0      -14.442687    1.478186   -0.750354
     64          6           0      -14.705335    1.873554    0.728825
     65          6           0      -15.908396    1.060774    1.298496
     66          6           0      -14.995036    3.453762    0.664652
     67          1           0        4.349798    0.339439   -4.458440
     68          1           0        3.523874    5.360494   -0.333043
     69          1           0        5.592683    1.794740    4.583484
     70          1           0        5.398906   -3.715111   -1.938275
     71          1           0        4.231925   -1.980751   -4.006504
     72          1           0        6.206095   -1.939134   -5.015795
     73          1           0        6.832702   -2.936543   -3.593639
     74          1           0        6.976146   -1.113866   -3.670428
     75          1           0        3.590183   -4.649097   -1.544825
     76          1           0        3.123639   -4.115449   -3.107347
     77          1           0        2.317400   -2.141265   -1.666173
     78          1           0        2.192354   -3.294685   -0.356830
     79          1           0        2.634058    3.009697   -5.607656
     80          1           0        4.160844    2.264558   -5.748425
     81          1           0        4.186836    4.037525   -5.720750
     82          1           0        4.393336    6.665808   -1.852960
     83          1           0        2.638184    6.869546   -1.701122
     84          1           0        3.590133    7.608210   -3.062633
     85          1           0        3.380538    5.344184    2.136326
     86          1           0        5.659046    4.270237    3.870743
     87          1           0        6.217608    6.196198    2.815247
     88          1           0        4.811115    7.179245    2.286899
     89          1           0        5.814684    6.346401    1.102690
     90          1           0        2.982789    3.295030    4.312320
     91          1           0        3.267101    5.017543    4.577832
     92          1           0        5.344024    3.744109    5.946957
     93          1           0        3.809989    2.860982    6.427174
     94          1           0        4.036116    4.503157    6.673154
     95          1           0        6.595885   -0.769417    5.652380
     96          1           0        5.712625   -2.245422    5.553894
     97          1           0        4.718408   -0.818851    5.666474
     98          1           0        4.039848   -4.236221    1.037291
     99          1           0        9.511830   -4.661488    0.868086
    100          1           0        8.457583   -5.419772   -0.322951
    101          1           0        8.446204   -6.014116    1.321718
    102          1           0       -1.808866   -3.795557   -1.953242
    103          1           0       -1.671853   -2.595015   -3.250657
    104          1           0       -2.652831   -2.214827   -0.301988
    105          1           0       -3.411428    0.030083   -3.452089
    106          1           0       -5.043168   -0.360334   -3.134191
    107          1           0       -3.931605   -1.631888   -3.830861
    108          1           0       -4.660731    0.546999   -1.066004
    109          1           0       -3.995141   -0.272522    0.211704
    110          1           0       -5.667348   -2.182998   -0.288164
    111          1           0       -6.619839   -0.942750   -1.108372
    112          1           0       -5.932870    0.202929    1.449581
    113          1           0       -6.266498   -1.542462    1.619533
    114          1           0       -8.095989    0.189615    0.114890
    115          1           0       -9.309830   -0.441817    2.721300
    116          1           0       -8.694195    1.127933    2.291581
    117          1           0       -7.675194    0.043186    3.032103
    118          1           0       -9.063992   -2.392281    1.568618
    119          1           0       -8.055499   -2.491630    0.056381
    120          1           0       -9.819445   -2.444677   -1.134549
    121          1           0      -10.078613   -0.801014   -0.552814
    122          1           0      -11.174354   -2.974479    1.168570
    123          1           0      -11.757363   -2.823578   -0.410160
    124          1           0      -11.384464   -0.292223    0.990022
    125          1           0      -12.601706   -0.477475    2.929252
    126          1           0      -12.297007   -2.183986    2.697919
    127          1           0      -13.803764   -1.539392    2.179005
    128          1           0      -14.298258   -0.931432    0.068767
    129          1           0      -13.165489   -1.463314   -1.091735
    130          1           0      -12.893126    0.548645   -1.875196
    131          1           0      -12.278310    1.062533   -0.340053
    132          1           0      -15.199634    0.865577   -1.240491
    133          1           0      -14.377463    2.330265   -1.426846
    134          1           0      -13.900669    1.575449    1.400938
    135          1           0      -16.515003    1.656855    1.979434
    136          1           0      -15.555381    0.203428    1.873017
    137          1           0      -16.535073    0.827213    0.437752
    138          1           0      -14.382839    3.982989    1.395778
    139          1           0      -16.042712    3.583870    0.935911
    140          1           0      -14.841714    4.045494   -0.237383
 ---------------------------------------------------------------------

 SCF Done:  E(RPBE1PBE) =  -3005.32825260     A.U. after   15 cycles

 Excitation energies and oscillator strengths:

 Excited State   1:      Singlet-A      1.7619 eV  703.71 nm  f=0.3617  <S**2>=0.000
     245 -> 248        0.16124
     246 -> 247        0.69834
     246 <- 247       -0.12323
 This state for optimization and/or second-order correction.
 Total Energy, E(TD-HF/TD-DFT) =  -3005.26350570
 Copying the excited state density for this state as the 1-particle RhoCI density.

 Excited State   2:      Singlet-A      2.2317 eV  555.56 nm  f=0.0651  <S**2>=0.000
     245 -> 247        0.62391
     246 -> 248       -0.32016

 Excited State   3:      Singlet-A      2.9926 eV  414.30 nm  f=0.0031  <S**2>=0.000
     241 -> 247       -0.22041
     244 -> 247        0.64755

 Excited State   4:      Singlet-A      3.0332 eV  408.75 nm  f=0.0026  <S**2>=0.000
     241 -> 247        0.49619
     241 -> 249       -0.16183
     243 -> 247       -0.43687
     244 -> 247        0.13127

 Excited State   5:      Singlet-A      3.0992 eV  400.05 nm  f=0.0333  <S**2>=0.000
     241 -> 247        0.36065
     243 -> 247        0.46903
     244 -> 247        0.15410
     246 -> 248        0.29585

 The electronic state is 1-A.
 Alpha  occ. eigenvalues --  -46.93150 -19.25143 -19.24675 -19.20784 -19.19563
 Alpha  occ. eigenvalues --  -19.19540 -19.19097 -14.42220 -14.42127 -14.40046
 Alpha  occ. eigenvalues --  -14.39316 -10.36887 -10.35556 -10.32946 -10.32541
 Alpha  occ. eigenvalues --  -10.30122 -10.29973 -10.29595 -10.29165 -10.29115
 Alpha  occ. eigenvalues --  -10.28893 -10.28716 -10.28469 -10.27980 -10.27216
 Alpha  occ. eigenvalues --  -10.27198 -10.26909 -10.26419 -10.26060 -10.26010
 Alpha  occ. eigenvalues --  -10.25959 -10.25766 -10.25715 -10.25602 -10.25102
 Alpha  occ. eigenvalues --  -10.24853 -10.24833 -10.24768 -10.24746 -10.24144
 Alpha  occ. eigenvalues --  -10.23968 -10.23961 -10.23917 -10.23777 -10.23766
 Alpha  occ. eigenvalues --  -10.23601 -10.23596 -10.23325 -10.23303 -10.23187
 Alpha  occ. eigenvalues --  -10.23129 -10.23112 -10.23110 -10.22981 -10.22459
 Alpha  occ. eigenvalues --  -10.22448 -10.22207 -10.21973 -10.21861 -10.21823
 Alpha  occ. eigenvalues --  -10.21747 -10.21654 -10.21587 -10.21552 -10.21352
 Alpha  occ. eigenvalues --  -10.21318  -3.15103  -1.87934  -1.87449  -1.87345
 Alpha  occ. eigenvalues --   -1.11001  -1.10049  -1.06146  -1.03170  -1.02651
 Alpha  occ. eigenvalues --   -1.01478  -0.98193  -0.97334  -0.96623  -0.95882
 Alpha  occ. eigenvalues --   -0.86619  -0.85024  -0.84087  -0.83735  -0.83236
 Alpha  occ. eigenvalues --   -0.82580  -0.82392  -0.81711  -0.81122  -0.81054
 Alpha  occ. eigenvalues --   -0.80420  -0.79093  -0.78584  -0.77610  -0.77573
 Alpha  occ. eigenvalues --   -0.76672  -0.76254  -0.75388  -0.74922  -0.74300
 Alpha  occ. eigenvalues --   -0.74166  -0.72351  -0.71946  -0.71290  -0.70522
 Alpha  occ. eigenvalues --   -0.69872  -0.69558  -0.69269  -0.69097  -0.68074
 Alpha  occ. eigenvalues --   -0.67806  -0.67091  -0.66174  -0.64729  -0.63999
 Alpha  occ. eigenvalues --   -0.63028  -0.61972  -0.61104  -0.60728  -0.59989
 Alpha  occ. eigenvalues --   -0.59571  -0.59247  -0.58979  -0.58581  -0.58126
 Alpha  occ. eigenvalues --   -0.57480  -0.57116  -0.56820  -0.56630  -0.54154
 Alpha  occ. eigenvalues --   -0.53998  -0.53671  -0.53264  -0.52672  -0.52346
 Alpha  occ. eigenvalues --   -0.51529  -0.50841  -0.50745  -0.50535  -0.50006
 Alpha  occ. eigenvalues --   -0.49344  -0.49053  -0.48891  -0.48430  -0.48296
 Alpha  occ. eigenvalues --   -0.48214  -0.47907  -0.47663  -0.47473  -0.47230
 Alpha  occ. eigenvalues --   -0.46860  -0.46699  -0.46542  -0.46360  -0.46198
 Alpha  occ. eigenvalues --   -0.46048  -0.45998  -0.45774  -0.45642  -0.45515
 Alpha  occ. eigenvalues --   -0.45372  -0.44676  -0.44590  -0.44405  -0.44263
 Alpha  occ. eigenvalues --   -0.44103  -0.44017  -0.43859  -0.43591  -0.43495
 Alpha  occ. eigenvalues --   -0.43247  -0.43106  -0.42854  -0.42583  -0.42550
 Alpha  occ. eigenvalues --   -0.42226  -0.42192  -0.41614  -0.41550  -0.41347
 Alpha  occ. eigenvalues --   -0.41077  -0.40848  -0.40780  -0.40391  -0.40217
 Alpha  occ. eigenvalues --   -0.40119  -0.39995  -0.39929  -0.39618  -0.39462
 Alpha  occ. eigenvalues --   -0.39389  -0.39224  -0.39025  -0.38463  -0.38394
 Alpha  occ. eigenvalues --   -0.38327  -0.38270  -0.37959  -0.37768  -0.37603
 Alpha  occ. eigenvalues --   -0.37525  -0.37443  -0.37434  -0.36998  -0.36870
 Alpha  occ. eigenvalues --   -0.36855  -0.36740  -0.36385  -0.36013  -0.35844
 Alpha  occ. eigenvalues --   -0.35615  -0.35568  -0.35469  -0.35120  -0.34899
 Alpha  occ. eigenvalues --   -0.34705  -0.34197  -0.34108  -0.33636  -0.33353
 Alpha  occ. eigenvalues --   -0.33123  -0.32922  -0.32571  -0.32392  -0.32318
 Alpha  occ. eigenvalues --   -0.31875  -0.31623  -0.31495  -0.31263  -0.31124
 Alpha  occ. eigenvalues --   -0.30864  -0.30442  -0.29851  -0.29808  -0.29358
 Alpha  occ. eigenvalues --   -0.28349  -0.28165  -0.28094  -0.27165  -0.26385
 Alpha  occ. eigenvalues --   -0.26001  -0.25781  -0.25655  -0.25400  -0.21579
 Alpha  occ. eigenvalues --   -0.18584
 Alpha virt. eigenvalues --   -0.11467  -0.05880  -0.04255  -0.02233  -0.01370
 Alpha virt. eigenvalues --    0.00336   0.00441   0.00798   0.02584   0.02716
 Alpha virt. eigenvalues --    0.03676   0.04364   0.05081   0.05713   0.06024

 Mulliken charges:
               1
     1  Mg   0.970815
     2  C   -0.004459
     3  C   -0.055074
     4  C   -0.045654
     5  C   -0.090490
     6  N   -0.459024
     7  C    0.042646
     8  C   -0.050137
     9  C   -0.137568
    10  C    0.087784
    11  C    0.026330
    12  C   -0.005503
    13  C   -0.092442
    14  C    0.235756
    15  O   -0.239032
    16  O   -0.368304
    17  N   -0.485387
    18  C    0.142663
    19  C   -0.168453
    20  C   -0.103771
    21  C    0.170418
    22  C    0.091491
    23  C    0.049145
    24  O   -0.219091
    25  C   -0.042355
    26  N   -0.394193
    27  C    0.059393
    28  C   -0.144183
    29  C   -0.101455
    30  C    0.082708
    31  C   -0.002921
    32  C    0.006295
    33  C   -0.070211
    34  N   -0.427142
    35  C    0.165582
    36  C   -0.200548
    37  C   -0.037631
    38  C    0.124007
    39  C    0.060953
    40  C    0.167453
    41  O   -0.237074
    42  C   -0.126297
    43  C    0.290982
    44  O   -0.234434
    45  O   -0.402885
    46  C    0.121086
    47  C    0.242229
    48  C   -0.097030
    49  C   -0.204826
    50  C    0.015748
    51  C   -0.016634
    52  C   -0.035732
    53  C   -0.011789
    54  C   -0.231361
    55  C   -0.008619
    56  C    0.021126
    57  C   -0.053051
    58  C   -0.014707
    59  C   -0.226972
    60  C   -0.012491
    61  C    0.042196
    62  C   -0.087519
    63  C   -0.010141
    64  C   -0.229585
    65  C   -0.020059
    66  C   -0.032913
    67  H    0.005199
    68  H   -0.004320
    69  H    0.013537
    70  H    0.052771
    71  H    0.041002
    72  H    0.050139
    73  H    0.055862
    74  H    0.049778
    75  H    0.048295
    76  H    0.049660
    77  H    0.075210
    78  H    0.067204
    79  H    0.059475
    80  H    0.018566
    81  H    0.072334
    82  H    0.053634
    83  H    0.089310
    84  H    0.055999
    85  H    0.058063
    86  H    0.037715
    87  H    0.047118
    88  H    0.048721
    89  H    0.048210
    90  H    0.043195
    91  H    0.040605
    92  H    0.036561
    93  H    0.051260
    94  H    0.029726
    95  H    0.054765
    96  H    0.055975
    97  H    0.064245
    98  H    0.076544
    99  H    0.064447
   100  H    0.060185
   101  H    0.070132
   102  H    0.057082
   103  H    0.046628
   104  H    0.028014
   105  H    0.063456
   106  H    0.039374
   107  H    0.053284
   108  H    0.029497
   109  H    0.026787
   110  H    0.036970
   111  H    0.032038
   112  H    0.037831
   113  H    0.028273
   114  H    0.034827
   115  H    0.034133
   116  H    0.028286
   117  H    0.022342
   118  H    0.035106
   119  H    0.027040
   120  H    0.026206
   121  H    0.028275
   122  H    0.010259
   123  H    0.013498
   124  H    0.045750
   125  H    0.039417
   126  H    0.019556
   127  H    0.034419
   128  H    0.027103
   129  H    0.025395
   130  H    0.016797
   131  H    0.027869
   132  H    0.025061
   133  H    0.024573
   134  H    0.049011
   135  H    0.028499
   136  H    0.043658
   137  H    0.033400
   138  H    0.033127
   139  H    0.028302
   140  H    0.040081
 Sum of Mulliken charges =  -0.00000

 Dipole moment (field-independent basis, Debye):
    X=              1.5717    Y=              6.0968    Z=              1.6657  Tot=              6.5127
 Quadrupole moment (field-independent basis, Debye-Ang):
   XX=           -359.8178   YY=           -426.4105   ZZ=           -402.2692
   XY=             23.6182   XZ=              2.1550   YZ=             32.9152

 Normal termination of Gaussian 16 at Thu Apr 28 13:37:54 2022.
