 Gaussian 16, Revision A.03,
 Gaussian 16:  ES64L-G16RevA.03 25-Dec-2016

 --------------------------------
 #p wB97XD/Def2SVP td=(nstates=5)
 --------------------------------

 -----------------------------------------------------
 step_1601_chromophore_14 TDDFT with wB97XD functional
 -----------------------------------------------------
 Symbolic Z-matrix:
 Charge =  0 Multiplicity = 1

                         Standard orientation:
 ---------------------------------------------------------------------
 Center     Atomic      Atomic             Coordinates (Angstroms)
 Number     Number       Type             X           Y           Z
 ---------------------------------------------------------------------
      1         12           0        5.139695    1.081631   -0.083166
      2          6           0        4.958531   -2.339759    0.537132
      3          6           0        4.394936    0.560616   -3.389165
      4          6           0        3.921041    4.343212   -0.311825
      5          6           0        5.326907    1.522140    3.560630
      6          7           0        4.847294   -0.613936   -1.234728
      7          6           0        4.846646   -1.968673   -0.818678
      8          6           0        4.692957   -2.895217   -2.061282
      9          6           0        4.973353   -1.927463   -3.209603
     10          6           0        4.725905   -0.514081   -2.583520
     11          6           0        6.402612   -1.999110   -3.945783
     12          6           0        3.400725   -3.742795   -2.120802
     13          6           0        2.133836   -3.192561   -1.440478
     14          6           0        0.714577   -3.485431   -2.011117
     15          8           0        0.499819   -4.437560   -2.688969
     16          8           0       -0.193602   -2.509631   -1.758824
     17          7           0        4.406567    2.328888   -1.674965
     18          6           0        4.182733    1.926787   -3.025415
     19          6           0        3.777776    3.103044   -3.803832
     20          6           0        3.699385    4.183171   -2.942306
     21          6           0        4.046184    3.639686   -1.554193
     22          6           0        3.679900    3.152493   -5.337328
     23          6           0        3.337178    5.623851   -3.380586
     24          8           0        2.930619    5.832719   -4.497321
     25          6           0        3.459114    6.746464   -2.407856
     26          7           0        4.833935    2.667152    1.434368
     27          6           0        4.417071    3.978820    0.979942
     28          6           0        4.405313    4.982687    2.217811
     29          6           0        4.710848    3.980083    3.419432
     30          6           0        5.049050    2.654550    2.762011
     31          6           0        5.394122    6.276086    2.105917
     32          6           0        3.741497    4.036436    4.562252
     33          6           0        4.253851    3.727987    5.938901
     34          7           0        5.237843   -0.103434    1.728183
     35          6           0        5.385847    0.193750    3.062907
     36          6           0        5.520173   -1.038366    3.850638
     37          6           0        5.263324   -2.111739    2.940061
     38          6           0        5.193966   -1.460220    1.644988
     39          6           0        5.664970   -1.192733    5.275683
     40          6           0        5.184121   -3.555552    2.733013
     41          8           0        5.257079   -4.501639    3.544488
     42          6           0        4.995106   -3.722820    1.151976
     43          6           0        6.116860   -4.648889    0.634885
     44          8           0        6.020818   -5.659595   -0.019285
     45          8           0        7.370034   -4.119714    0.986506
     46          6           0        8.528617   -5.108796    0.719294
     47          6           0       -1.607731   -2.747104   -2.172843
     48          6           0       -2.627271   -1.948633   -1.359531
     49          6           0       -3.682058   -1.239929   -1.741222
     50          6           0       -4.045538   -0.798241   -3.137592
     51          6           0       -4.527746   -0.476852   -0.716967
     52          6           0       -5.838724   -1.108906   -0.367001
     53          6           0       -6.403174   -0.665328    0.987197
     54          6           0       -7.958261   -0.526876    0.924837
     55          6           0       -8.455550    0.064416    2.271625
     56          6           0       -8.737934   -1.891494    0.658385
     57          6           0       -9.920128   -1.831892   -0.238911
     58          6           0      -11.263297   -2.240888    0.367871
     59          6           0      -12.133438   -1.068210    0.833569
     60          6           0      -12.740233   -1.303589    2.231831
     61          6           0      -13.259778   -0.798104   -0.233563
     62          6           0      -13.133248    0.579324   -0.812490
     63          6           0      -14.442687    1.478186   -0.750354
     64          6           0      -14.705335    1.873554    0.728825
     65          6           0      -15.908396    1.060774    1.298496
     66          6           0      -14.995036    3.453762    0.664652
     67          1           0        4.349798    0.339439   -4.458440
     68          1           0        3.523874    5.360494   -0.333043
     69          1           0        5.592683    1.794740    4.583484
     70          1           0        5.398906   -3.715111   -1.938275
     71          1           0        4.231925   -1.980751   -4.006504
     72          1           0        6.206095   -1.939134   -5.015795
     73          1           0        6.832702   -2.936543   -3.593639
     74          1           0        6.976146   -1.113866   -3.670428
     75          1           0        3.590183   -4.649097   -1.544825
     76          1           0        3.123639   -4.115449   -3.107347
     77          1           0        2.317400   -2.141265   -1.666173
     78          1           0        2.192354   -3.294685   -0.356830
     79          1           0        2.634058    3.009697   -5.607656
     80          1           0        4.160844    2.264558   -5.748425
     81          1           0        4.186836    4.037525   -5.720750
     82          1           0        4.393336    6.665808   -1.852960
     83          1           0        2.638184    6.869546   -1.701122
     84          1           0        3.590133    7.608210   -3.062633
     85          1           0        3.380538    5.344184    2.136326
     86          1           0        5.659046    4.270237    3.870743
     87          1           0        6.217608    6.196198    2.815247
     88          1           0        4.811115    7.179245    2.286899
     89          1           0        5.814684    6.346401    1.102690
     90          1           0        2.982789    3.295030    4.312320
     91          1           0        3.267101    5.017543    4.577832
     92          1           0        5.344024    3.744109    5.946957
     93          1           0        3.809989    2.860982    6.427174
     94          1           0        4.036116    4.503157    6.673154
     95          1           0        6.595885   -0.769417    5.652380
     96          1           0        5.712625   -2.245422    5.553894
     97          1           0        4.718408   -0.818851    5.666474
     98          1           0        4.039848   -4.236221    1.037291
     99          1           0        9.511830   -4.661488    0.868086
    100          1           0        8.457583   -5.419772   -0.322951
    101          1           0        8.446204   -6.014116    1.321718
    102          1           0       -1.808866   -3.795557   -1.953242
    103          1           0       -1.671853   -2.595015   -3.250657
    104          1           0       -2.652831   -2.214827   -0.301988
    105          1           0       -3.411428    0.030083   -3.452089
    106          1           0       -5.043168   -0.360334   -3.134191
    107          1           0       -3.931605   -1.631888   -3.830861
    108          1           0       -4.660731    0.546999   -1.066004
    109          1           0       -3.995141   -0.272522    0.211704
    110          1           0       -5.667348   -2.182998   -0.288164
    111          1           0       -6.619839   -0.942750   -1.108372
    112          1           0       -5.932870    0.202929    1.449581
    113          1           0       -6.266498   -1.542462    1.619533
    114          1           0       -8.095989    0.189615    0.114890
    115          1           0       -9.309830   -0.441817    2.721300
    116          1           0       -8.694195    1.127933    2.291581
    117          1           0       -7.675194    0.043186    3.032103
    118          1           0       -9.063992   -2.392281    1.568618
    119          1           0       -8.055499   -2.491630    0.056381
    120          1           0       -9.819445   -2.444677   -1.134549
    121          1           0      -10.078613   -0.801014   -0.552814
    122          1           0      -11.174354   -2.974479    1.168570
    123          1           0      -11.757363   -2.823578   -0.410160
    124          1           0      -11.384464   -0.292223    0.990022
    125          1           0      -12.601706   -0.477475    2.929252
    126          1           0      -12.297007   -2.183986    2.697919
    127          1           0      -13.803764   -1.539392    2.179005
    128          1           0      -14.298258   -0.931432    0.068767
    129          1           0      -13.165489   -1.463314   -1.091735
    130          1           0      -12.893126    0.548645   -1.875196
    131          1           0      -12.278310    1.062533   -0.340053
    132          1           0      -15.199634    0.865577   -1.240491
    133          1           0      -14.377463    2.330265   -1.426846
    134          1           0      -13.900669    1.575449    1.400938
    135          1           0      -16.515003    1.656855    1.979434
    136          1           0      -15.555381    0.203428    1.873017
    137          1           0      -16.535073    0.827213    0.437752
    138          1           0      -14.382839    3.982989    1.395778
    139          1           0      -16.042712    3.583870    0.935911
    140          1           0      -14.841714    4.045494   -0.237383
 ---------------------------------------------------------------------

 SCF Done:  E(RwB97XD) =  -3007.83927423     A.U. after   19 cycles

 Excitation energies and oscillator strengths:

 Excited State   1:      Singlet-A      1.5377 eV  806.29 nm  f=0.3752  <S**2>=0.000
     245 -> 248        0.17323
     246 -> 247        0.68708
     245 <- 248        0.11772
 This state for optimization and/or second-order correction.
 Total Energy, E(TD-HF/TD-DFT) =  -3007.78276424
 Copying the excited state density for this state as the 1-particle RhoCI density.

 Excited State   2:      Singlet-A      2.1641 eV  572.92 nm  f=0.0573  <S**2>=0.000
     245 -> 247        0.60544
     246 -> 248       -0.35316

 Excited State   3:      Singlet-A      3.3325 eV  372.05 nm  f=0.3801  <S**2>=0.000
     244 -> 247        0.40189
     245 -> 247        0.26554
     246 -> 248        0.50138

 Excited State   4:      Singlet-A      3.3892 eV  365.82 nm  f=0.1533  <S**2>=0.000
     243 -> 247       -0.36349
     244 -> 247        0.49187
     245 -> 247       -0.15281
     246 -> 248       -0.27928

 Excited State   5:      Singlet-A      3.5524 eV  349.02 nm  f=0.0730  <S**2>=0.000
     241 -> 247        0.41714
     241 -> 249       -0.32766
     241 -> 250        0.14720
     243 -> 247       -0.34291
     244 -> 247       -0.10919
     245 -> 247        0.10647
     246 -> 248        0.11094

 The electronic state is 1-A.
 Alpha  occ. eigenvalues --  -46.96090 -19.29709 -19.29233 -19.25482 -19.24396
 Alpha  occ. eigenvalues --  -19.24394 -19.23750 -14.47269 -14.47204 -14.45040
 Alpha  occ. eigenvalues --  -14.44245 -10.43701 -10.42319 -10.39841 -10.39397
 Alpha  occ. eigenvalues --  -10.36414 -10.36236 -10.36122 -10.35699 -10.35505
 Alpha  occ. eigenvalues --  -10.35208 -10.34941 -10.34851 -10.34237 -10.33494
 Alpha  occ. eigenvalues --  -10.33395 -10.33348 -10.32722 -10.32520 -10.32442
 Alpha  occ. eigenvalues --  -10.32254 -10.32201 -10.31942 -10.31781 -10.31520
 Alpha  occ. eigenvalues --  -10.31267 -10.31233 -10.31137 -10.31102 -10.30514
 Alpha  occ. eigenvalues --  -10.30366 -10.30238 -10.30214 -10.30192 -10.30109
 Alpha  occ. eigenvalues --  -10.30051 -10.29882 -10.29834 -10.29708 -10.29571
 Alpha  occ. eigenvalues --  -10.29570 -10.29555 -10.29401 -10.29368 -10.28852
 Alpha  occ. eigenvalues --  -10.28809 -10.28581 -10.28315 -10.28274 -10.28191
 Alpha  occ. eigenvalues --  -10.28174 -10.28096 -10.27979 -10.27961 -10.27713
 Alpha  occ. eigenvalues --  -10.27665  -3.21928  -1.95503  -1.95018  -1.94912
 Alpha  occ. eigenvalues --   -1.18349  -1.17451  -1.13654  -1.10692  -1.09963
 Alpha  occ. eigenvalues --   -1.08849  -1.05565  -1.04724  -1.04036  -1.03284
 Alpha  occ. eigenvalues --   -0.94258  -0.92699  -0.91753  -0.91299  -0.90845
 Alpha  occ. eigenvalues --   -0.90252  -0.90013  -0.89338  -0.88787  -0.88653
 Alpha  occ. eigenvalues --   -0.88103  -0.86751  -0.86250  -0.85306  -0.85172
 Alpha  occ. eigenvalues --   -0.84355  -0.83945  -0.83028  -0.82564  -0.81968
 Alpha  occ. eigenvalues --   -0.81809  -0.79972  -0.79564  -0.78977  -0.78187
 Alpha  occ. eigenvalues --   -0.77542  -0.77157  -0.76980  -0.76768  -0.75718
 Alpha  occ. eigenvalues --   -0.75425  -0.74632  -0.73720  -0.72323  -0.71542
 Alpha  occ. eigenvalues --   -0.70565  -0.69588  -0.68670  -0.68361  -0.67472
 Alpha  occ. eigenvalues --   -0.67022  -0.66896  -0.66476  -0.66007  -0.65817
 Alpha  occ. eigenvalues --   -0.65150  -0.64758  -0.64264  -0.64056  -0.61604
 Alpha  occ. eigenvalues --   -0.61535  -0.61039  -0.60672  -0.60055  -0.59756
 Alpha  occ. eigenvalues --   -0.59029  -0.58308  -0.58169  -0.58008  -0.57370
 Alpha  occ. eigenvalues --   -0.56794  -0.56479  -0.56336  -0.55885  -0.55664
 Alpha  occ. eigenvalues --   -0.55627  -0.55184  -0.55043  -0.54913  -0.54672
 Alpha  occ. eigenvalues --   -0.54321  -0.54111  -0.53919  -0.53676  -0.53531
 Alpha  occ. eigenvalues --   -0.53412  -0.53281  -0.53148  -0.52978  -0.52786
 Alpha  occ. eigenvalues --   -0.52655  -0.52046  -0.51929  -0.51801  -0.51579
 Alpha  occ. eigenvalues --   -0.51463  -0.51355  -0.51163  -0.50904  -0.50756
 Alpha  occ. eigenvalues --   -0.50496  -0.50390  -0.50139  -0.49854  -0.49816
 Alpha  occ. eigenvalues --   -0.49478  -0.49389  -0.48946  -0.48811  -0.48491
 Alpha  occ. eigenvalues --   -0.48283  -0.48082  -0.48030  -0.47602  -0.47487
 Alpha  occ. eigenvalues --   -0.47324  -0.47276  -0.47137  -0.46840  -0.46599
 Alpha  occ. eigenvalues --   -0.46542  -0.46377  -0.46166  -0.45633  -0.45531
 Alpha  occ. eigenvalues --   -0.45460  -0.45436  -0.45133  -0.44922  -0.44729
 Alpha  occ. eigenvalues --   -0.44660  -0.44650  -0.44470  -0.44091  -0.44066
 Alpha  occ. eigenvalues --   -0.43968  -0.43864  -0.43499  -0.43129  -0.42865
 Alpha  occ. eigenvalues --   -0.42625  -0.42574  -0.42505  -0.42162  -0.41846
 Alpha  occ. eigenvalues --   -0.41659  -0.41218  -0.41187  -0.40720  -0.40450
 Alpha  occ. eigenvalues --   -0.40191  -0.39906  -0.39531  -0.39371  -0.39315
 Alpha  occ. eigenvalues --   -0.38918  -0.38666  -0.38535  -0.38309  -0.38086
 Alpha  occ. eigenvalues --   -0.37825  -0.37398  -0.36909  -0.36772  -0.36151
 Alpha  occ. eigenvalues --   -0.35222  -0.35078  -0.34972  -0.33786  -0.33474
 Alpha  occ. eigenvalues --   -0.33088  -0.32529  -0.32338  -0.31924  -0.26652
 Alpha  occ. eigenvalues --   -0.22622
 Alpha virt. eigenvalues --   -0.07366  -0.00483   0.02019   0.04249   0.04610
 Alpha virt. eigenvalues --    0.07096   0.07201   0.07503   0.09287   0.09647
 Alpha virt. eigenvalues --    0.10173   0.11086   0.11721   0.12375   0.12692

 Mulliken charges:
               1
     1  Mg   0.962432
     2  C   -0.005895
     3  C   -0.072481
     4  C   -0.055674
     5  C   -0.104853
     6  N   -0.427443
     7  C    0.013219
     8  C   -0.021918
     9  C   -0.114493
    10  C    0.077854
    11  C    0.036955
    12  C   -0.001744
    13  C   -0.062159
    14  C    0.225348
    15  O   -0.237129
    16  O   -0.367645
    17  N   -0.455246
    18  C    0.136251
    19  C   -0.161822
    20  C   -0.099331
    21  C    0.164221
    22  C    0.104914
    23  C    0.045740
    24  O   -0.213971
    25  C   -0.030036
    26  N   -0.363741
    27  C    0.047482
    28  C   -0.122061
    29  C   -0.068842
    30  C    0.063062
    31  C    0.010156
    32  C    0.019351
    33  C   -0.055765
    34  N   -0.390314
    35  C    0.155401
    36  C   -0.189714
    37  C   -0.041200
    38  C    0.107436
    39  C    0.070396
    40  C    0.151488
    41  O   -0.227040
    42  C   -0.087637
    43  C    0.269385
    44  O   -0.228460
    45  O   -0.405320
    46  C    0.137766
    47  C    0.255263
    48  C   -0.106538
    49  C   -0.191533
    50  C    0.027456
    51  C    0.003416
    52  C   -0.017974
    53  C    0.002584
    54  C   -0.199592
    55  C    0.002315
    56  C    0.035206
    57  C   -0.031049
    58  C   -0.001852
    59  C   -0.188971
    60  C    0.000046
    61  C    0.054082
    62  C   -0.066955
    63  C    0.006211
    64  C   -0.201534
    65  C   -0.004486
    66  C   -0.019126
    67  H   -0.000333
    68  H   -0.014955
    69  H    0.005080
    70  H    0.039060
    71  H    0.030987
    72  H    0.045242
    73  H    0.050360
    74  H    0.043141
    75  H    0.039525
    76  H    0.044562
    77  H    0.059708
    78  H    0.058079
    79  H    0.055504
    80  H    0.012189
    81  H    0.068202
    82  H    0.046358
    83  H    0.086739
    84  H    0.054335
    85  H    0.047931
    86  H    0.020970
    87  H    0.041797
    88  H    0.043373
    89  H    0.041048
    90  H    0.034167
    91  H    0.033074
    92  H    0.029804
    93  H    0.046324
    94  H    0.024869
    95  H    0.050481
    96  H    0.052677
    97  H    0.058686
    98  H    0.068935
    99  H    0.061631
   100  H    0.055491
   101  H    0.066080
   102  H    0.052533
   103  H    0.042607
   104  H    0.025068
   105  H    0.058254
   106  H    0.033610
   107  H    0.047977
   108  H    0.021614
   109  H    0.018904
   110  H    0.027091
   111  H    0.020483
   112  H    0.030635
   113  H    0.017554
   114  H    0.022243
   115  H    0.026221
   116  H    0.023361
   117  H    0.016248
   118  H    0.025574
   119  H    0.016704
   120  H    0.020627
   121  H    0.013075
   122  H    0.000289
   123  H    0.004694
   124  H    0.024669
   125  H    0.034805
   126  H    0.013281
   127  H    0.026524
   128  H    0.013953
   129  H    0.017288
   130  H    0.009633
   131  H    0.016663
   132  H    0.015041
   133  H    0.016466
   134  H    0.034409
   135  H    0.022969
   136  H    0.034584
   137  H    0.026280
   138  H    0.027501
   139  H    0.021123
   140  H    0.034431
 Sum of Mulliken charges =  -0.00000

 Dipole moment (field-independent basis, Debye):
    X=              1.5966    Y=              6.1846    Z=              1.5771  Tot=              6.5791
 Quadrupole moment (field-independent basis, Debye-Ang):
   XX=           -358.5465   YY=           -425.6381   ZZ=           -402.1251
   XY=             23.4917   XZ=              1.7288   YZ=             31.8928

 Normal termination of Gaussian 16 at Thu Apr 28 14:06:54 2022.
