 Gaussian 16, Revision A.03,
 Gaussian 16:  ES64L-G16RevA.03 25-Dec-2016

 --------------------
 #p ZINDO=(nstates=5)
 --------------------

 ------------------------------
 step_1601_chromophore_14 ZINDO
 ------------------------------
 Symbolic Z-matrix:
 Charge =  0 Multiplicity = 1

                         Standard orientation:
 ---------------------------------------------------------------------
 Center     Atomic      Atomic             Coordinates (Angstroms)
 Number     Number       Type             X           Y           Z
 ---------------------------------------------------------------------
      1         12           0        5.139695    1.081631   -0.083166
      2          6           0        4.958531   -2.339759    0.537132
      3          6           0        4.394936    0.560616   -3.389165
      4          6           0        3.921041    4.343212   -0.311825
      5          6           0        5.326907    1.522140    3.560630
      6          7           0        4.847294   -0.613936   -1.234728
      7          6           0        4.846646   -1.968673   -0.818678
      8          6           0        4.692957   -2.895217   -2.061282
      9          6           0        4.973353   -1.927463   -3.209603
     10          6           0        4.725905   -0.514081   -2.583520
     11          6           0        6.402612   -1.999110   -3.945783
     12          6           0        3.400725   -3.742795   -2.120802
     13          6           0        2.133836   -3.192561   -1.440478
     14          6           0        0.714577   -3.485431   -2.011117
     15          8           0        0.499819   -4.437560   -2.688969
     16          8           0       -0.193602   -2.509631   -1.758824
     17          7           0        4.406567    2.328888   -1.674965
     18          6           0        4.182733    1.926787   -3.025415
     19          6           0        3.777776    3.103044   -3.803832
     20          6           0        3.699385    4.183171   -2.942306
     21          6           0        4.046184    3.639686   -1.554193
     22          6           0        3.679900    3.152493   -5.337328
     23          6           0        3.337178    5.623851   -3.380586
     24          8           0        2.930619    5.832719   -4.497321
     25          6           0        3.459114    6.746464   -2.407856
     26          7           0        4.833935    2.667152    1.434368
     27          6           0        4.417071    3.978820    0.979942
     28          6           0        4.405313    4.982687    2.217811
     29          6           0        4.710848    3.980083    3.419432
     30          6           0        5.049050    2.654550    2.762011
     31          6           0        5.394122    6.276086    2.105917
     32          6           0        3.741497    4.036436    4.562252
     33          6           0        4.253851    3.727987    5.938901
     34          7           0        5.237843   -0.103434    1.728183
     35          6           0        5.385847    0.193750    3.062907
     36          6           0        5.520173   -1.038366    3.850638
     37          6           0        5.263324   -2.111739    2.940061
     38          6           0        5.193966   -1.460220    1.644988
     39          6           0        5.664970   -1.192733    5.275683
     40          6           0        5.184121   -3.555552    2.733013
     41          8           0        5.257079   -4.501639    3.544488
     42          6           0        4.995106   -3.722820    1.151976
     43          6           0        6.116860   -4.648889    0.634885
     44          8           0        6.020818   -5.659595   -0.019285
     45          8           0        7.370034   -4.119714    0.986506
     46          6           0        8.528617   -5.108796    0.719294
     47          6           0       -1.607731   -2.747104   -2.172843
     48          6           0       -2.627271   -1.948633   -1.359531
     49          6           0       -3.682058   -1.239929   -1.741222
     50          6           0       -4.045538   -0.798241   -3.137592
     51          6           0       -4.527746   -0.476852   -0.716967
     52          6           0       -5.838724   -1.108906   -0.367001
     53          6           0       -6.403174   -0.665328    0.987197
     54          6           0       -7.958261   -0.526876    0.924837
     55          6           0       -8.455550    0.064416    2.271625
     56          6           0       -8.737934   -1.891494    0.658385
     57          6           0       -9.920128   -1.831892   -0.238911
     58          6           0      -11.263297   -2.240888    0.367871
     59          6           0      -12.133438   -1.068210    0.833569
     60          6           0      -12.740233   -1.303589    2.231831
     61          6           0      -13.259778   -0.798104   -0.233563
     62          6           0      -13.133248    0.579324   -0.812490
     63          6           0      -14.442687    1.478186   -0.750354
     64          6           0      -14.705335    1.873554    0.728825
     65          6           0      -15.908396    1.060774    1.298496
     66          6           0      -14.995036    3.453762    0.664652
     67          1           0        4.349798    0.339439   -4.458440
     68          1           0        3.523874    5.360494   -0.333043
     69          1           0        5.592683    1.794740    4.583484
     70          1           0        5.398906   -3.715111   -1.938275
     71          1           0        4.231925   -1.980751   -4.006504
     72          1           0        6.206095   -1.939134   -5.015795
     73          1           0        6.832702   -2.936543   -3.593639
     74          1           0        6.976146   -1.113866   -3.670428
     75          1           0        3.590183   -4.649097   -1.544825
     76          1           0        3.123639   -4.115449   -3.107347
     77          1           0        2.317400   -2.141265   -1.666173
     78          1           0        2.192354   -3.294685   -0.356830
     79          1           0        2.634058    3.009697   -5.607656
     80          1           0        4.160844    2.264558   -5.748425
     81          1           0        4.186836    4.037525   -5.720750
     82          1           0        4.393336    6.665808   -1.852960
     83          1           0        2.638184    6.869546   -1.701122
     84          1           0        3.590133    7.608210   -3.062633
     85          1           0        3.380538    5.344184    2.136326
     86          1           0        5.659046    4.270237    3.870743
     87          1           0        6.217608    6.196198    2.815247
     88          1           0        4.811115    7.179245    2.286899
     89          1           0        5.814684    6.346401    1.102690
     90          1           0        2.982789    3.295030    4.312320
     91          1           0        3.267101    5.017543    4.577832
     92          1           0        5.344024    3.744109    5.946957
     93          1           0        3.809989    2.860982    6.427174
     94          1           0        4.036116    4.503157    6.673154
     95          1           0        6.595885   -0.769417    5.652380
     96          1           0        5.712625   -2.245422    5.553894
     97          1           0        4.718408   -0.818851    5.666474
     98          1           0        4.039848   -4.236221    1.037291
     99          1           0        9.511830   -4.661488    0.868086
    100          1           0        8.457583   -5.419772   -0.322951
    101          1           0        8.446204   -6.014116    1.321718
    102          1           0       -1.808866   -3.795557   -1.953242
    103          1           0       -1.671853   -2.595015   -3.250657
    104          1           0       -2.652831   -2.214827   -0.301988
    105          1           0       -3.411428    0.030083   -3.452089
    106          1           0       -5.043168   -0.360334   -3.134191
    107          1           0       -3.931605   -1.631888   -3.830861
    108          1           0       -4.660731    0.546999   -1.066004
    109          1           0       -3.995141   -0.272522    0.211704
    110          1           0       -5.667348   -2.182998   -0.288164
    111          1           0       -6.619839   -0.942750   -1.108372
    112          1           0       -5.932870    0.202929    1.449581
    113          1           0       -6.266498   -1.542462    1.619533
    114          1           0       -8.095989    0.189615    0.114890
    115          1           0       -9.309830   -0.441817    2.721300
    116          1           0       -8.694195    1.127933    2.291581
    117          1           0       -7.675194    0.043186    3.032103
    118          1           0       -9.063992   -2.392281    1.568618
    119          1           0       -8.055499   -2.491630    0.056381
    120          1           0       -9.819445   -2.444677   -1.134549
    121          1           0      -10.078613   -0.801014   -0.552814
    122          1           0      -11.174354   -2.974479    1.168570
    123          1           0      -11.757363   -2.823578   -0.410160
    124          1           0      -11.384464   -0.292223    0.990022
    125          1           0      -12.601706   -0.477475    2.929252
    126          1           0      -12.297007   -2.183986    2.697919
    127          1           0      -13.803764   -1.539392    2.179005
    128          1           0      -14.298258   -0.931432    0.068767
    129          1           0      -13.165489   -1.463314   -1.091735
    130          1           0      -12.893126    0.548645   -1.875196
    131          1           0      -12.278310    1.062533   -0.340053
    132          1           0      -15.199634    0.865577   -1.240491
    133          1           0      -14.377463    2.330265   -1.426846
    134          1           0      -13.900669    1.575449    1.400938
    135          1           0      -16.515003    1.656855    1.979434
    136          1           0      -15.555381    0.203428    1.873017
    137          1           0      -16.535073    0.827213    0.437752
    138          1           0      -14.382839    3.982989    1.395778
    139          1           0      -16.042712    3.583870    0.935911
    140          1           0      -14.841714    4.045494   -0.237383
 ---------------------------------------------------------------------

 SCF Done:  E(RZINDO/S) =  -473.813833245     A.U. after   20 cycles

 Excitation energies and oscillator strengths:

 Excited State   1:      Singlet-A      1.1993 eV 1033.77 nm  f=0.6315  <S**2>=0.000
     175 ->178        -0.18208
     176 ->177         0.66484
 This state for optimization and/or second-order correction.
 Total Energy, E(CIS/TDA) =  -473.769758306
 Copying the excited state density for this state as the 1-particle RhoCI density.

 Excited State   2:      Singlet-A      1.9008 eV  652.29 nm  f=0.0006  <S**2>=0.000
     175 ->177         0.47571
     176 ->178         0.50258

 Excited State   3:      Singlet-A      2.8678 eV  432.33 nm  f=0.0710  <S**2>=0.000
     176 ->178         0.10287
     176 ->179         0.58225
     176 ->180         0.30248
     176 ->182         0.11943

 Excited State   4:      Singlet-A      2.8898 eV  429.04 nm  f=0.2843  <S**2>=0.000
     175 ->177        -0.26089
     176 ->178         0.25195
     176 ->179        -0.30573
     176 ->180         0.49317

 Excited State   5:      Singlet-A      2.9899 eV  414.67 nm  f=0.8172  <S**2>=0.000
     175 ->177         0.38171
     176 ->178        -0.37838
     176 ->180         0.37700
     176 ->181        -0.17204

 The electronic state is 1-A.
 Alpha  occ. eigenvalues --   -1.81707  -1.78458  -1.76028  -1.72153  -1.69454
 Alpha  occ. eigenvalues --   -1.68322  -1.66925  -1.61671  -1.60951  -1.55430
 Alpha  occ. eigenvalues --   -1.55308  -1.50899  -1.48868  -1.47988  -1.45647
 Alpha  occ. eigenvalues --   -1.44376  -1.42510  -1.39072  -1.38528  -1.37070
 Alpha  occ. eigenvalues --   -1.35096  -1.34657  -1.32222  -1.31240  -1.29431
 Alpha  occ. eigenvalues --   -1.26956  -1.26183  -1.22413  -1.21731  -1.17809
 Alpha  occ. eigenvalues --   -1.16037  -1.15871  -1.14734  -1.13628  -1.13155
 Alpha  occ. eigenvalues --   -1.12613  -1.09798  -1.09348  -1.05677  -1.04393
 Alpha  occ. eigenvalues --   -1.03269  -1.01019  -0.99401  -0.98229  -0.97161
 Alpha  occ. eigenvalues --   -0.94956  -0.94724  -0.93640  -0.92513  -0.91938
 Alpha  occ. eigenvalues --   -0.90982  -0.90526  -0.90084  -0.87719  -0.87535
 Alpha  occ. eigenvalues --   -0.85722  -0.83433  -0.83119  -0.81508  -0.79889
 Alpha  occ. eigenvalues --   -0.79421  -0.77974  -0.77838  -0.77002  -0.76734
 Alpha  occ. eigenvalues --   -0.76402  -0.76131  -0.75301  -0.73588  -0.73204
 Alpha  occ. eigenvalues --   -0.72983  -0.72108  -0.71774  -0.71249  -0.70569
 Alpha  occ. eigenvalues --   -0.70173  -0.70016  -0.69494  -0.67867  -0.67508
 Alpha  occ. eigenvalues --   -0.67052  -0.66572  -0.66018  -0.65707  -0.65514
 Alpha  occ. eigenvalues --   -0.65373  -0.65223  -0.64476  -0.64182  -0.63634
 Alpha  occ. eigenvalues --   -0.63437  -0.63181  -0.62970  -0.62800  -0.62221
 Alpha  occ. eigenvalues --   -0.61750  -0.61433  -0.61034  -0.60716  -0.60240
 Alpha  occ. eigenvalues --   -0.59924  -0.59616  -0.59115  -0.58743  -0.58728
 Alpha  occ. eigenvalues --   -0.58317  -0.58082  -0.57700  -0.56812  -0.56676
 Alpha  occ. eigenvalues --   -0.56396  -0.56292  -0.55003  -0.54734  -0.54655
 Alpha  occ. eigenvalues --   -0.54271  -0.53707  -0.53194  -0.52972  -0.52509
 Alpha  occ. eigenvalues --   -0.52477  -0.52209  -0.52136  -0.51893  -0.51582
 Alpha  occ. eigenvalues --   -0.51296  -0.51145  -0.50915  -0.50674  -0.50406
 Alpha  occ. eigenvalues --   -0.50187  -0.50024  -0.49554  -0.49478  -0.48999
 Alpha  occ. eigenvalues --   -0.48805  -0.48637  -0.48209  -0.47660  -0.47471
 Alpha  occ. eigenvalues --   -0.47411  -0.47334  -0.47225  -0.46983  -0.46649
 Alpha  occ. eigenvalues --   -0.46505  -0.46200  -0.46042  -0.45884  -0.45355
 Alpha  occ. eigenvalues --   -0.44947  -0.44782  -0.44089  -0.44002  -0.43973
 Alpha  occ. eigenvalues --   -0.43727  -0.43216  -0.42944  -0.42545  -0.42458
 Alpha  occ. eigenvalues --   -0.42215  -0.42062  -0.40818  -0.39335  -0.38463
 Alpha  occ. eigenvalues --   -0.38330  -0.37662  -0.36166  -0.35524  -0.34749
 Alpha  occ. eigenvalues --   -0.33996  -0.33058  -0.33012  -0.32542  -0.27605
 Alpha  occ. eigenvalues --   -0.21628
 Alpha virt. eigenvalues --   -0.08831  -0.02885  -0.00903   0.00615   0.01118
 Alpha virt. eigenvalues --    0.02265   0.02637   0.03073   0.04085   0.04696
 Alpha virt. eigenvalues --    0.05560   0.06415   0.06581   0.07488   0.07531

 Mulliken charges:
               1
     1  Mg   0.434724
     2  C   -0.041618
     3  C   -0.071893
     4  C   -0.080707
     5  C   -0.075013
     6  N   -0.287015
     7  C    0.104094
     8  C    0.016088
     9  C   -0.003457
    10  C    0.150011
    11  C   -0.052009
    12  C   -0.020428
    13  C   -0.005203
    14  C    0.472453
    15  O   -0.506243
    16  O   -0.275632
    17  N   -0.325730
    18  C    0.105310
    19  C    0.040961
    20  C   -0.054074
    21  C    0.131590
    22  C   -0.036239
    23  C    0.336713
    24  O   -0.505460
    25  C   -0.030840
    26  N   -0.279503
    27  C    0.107895
    28  C   -0.013164
    29  C    0.011033
    30  C    0.126355
    31  C   -0.052502
    32  C   -0.014089
    33  C   -0.056929
    34  N   -0.321195
    35  C    0.092669
    36  C    0.042220
    37  C   -0.074954
    38  C    0.103618
    39  C   -0.034333
    40  C    0.331111
    41  O   -0.525074
    42  C    0.061974
    43  C    0.483131
    44  O   -0.503655
    45  O   -0.283075
    46  C    0.072599
    47  C    0.107775
    48  C   -0.083807
    49  C    0.003308
    50  C   -0.043708
    51  C   -0.017241
    52  C   -0.025927
    53  C   -0.039386
    54  C   -0.013129
    55  C   -0.064470
    56  C   -0.031535
    57  C   -0.032034
    58  C   -0.038645
    59  C   -0.008189
    60  C   -0.061971
    61  C   -0.028610
    62  C   -0.042851
    63  C   -0.039000
    64  C   -0.011469
    65  C   -0.061863
    66  C   -0.064598
    67  H    0.027327
    68  H    0.030502
    69  H    0.034366
    70  H    0.036828
    71  H    0.023023
    72  H    0.027185
    73  H    0.034497
    74  H    0.028248
    75  H    0.019539
    76  H    0.037092
    77  H    0.026982
    78  H    0.047210
    79  H    0.042062
    80  H    0.012142
    81  H    0.048772
    82  H    0.026307
    83  H    0.051361
    84  H    0.034633
    85  H    0.034070
    86  H    0.022446
    87  H    0.027712
    88  H    0.023058
    89  H    0.023878
    90  H    0.018119
    91  H    0.018548
    92  H    0.020050
    93  H    0.026056
    94  H    0.009501
    95  H    0.034715
    96  H    0.028248
    97  H    0.038066
    98  H    0.054390
    99  H    0.036291
   100  H    0.041038
   101  H    0.050552
   102  H    0.048117
   103  H    0.046657
   104  H    0.026336
   105  H    0.030231
   106  H    0.022822
   107  H    0.026101
   108  H    0.015732
   109  H    0.014290
   110  H    0.018300
   111  H    0.021769
   112  H    0.029879
   113  H    0.013368
   114  H    0.023576
   115  H    0.018217
   116  H    0.013284
   117  H    0.011746
   118  H    0.032042
   119  H    0.014498
   120  H    0.015660
   121  H    0.015222
   122  H    0.015067
   123  H    0.008555
   124  H    0.030510
   125  H    0.018207
   126  H    0.013769
   127  H    0.016319
   128  H    0.026922
   129  H    0.015638
   130  H    0.005062
   131  H    0.016805
   132  H    0.018153
   133  H    0.018078
   134  H    0.032878
   135  H    0.013813
   136  H    0.023168
   137  H    0.022950
   138  H    0.010750
   139  H    0.015894
   140  H    0.027633
 Sum of Mulliken charges =  -0.00000

 Dipole moment (field-independent basis, Debye):
    X=              1.6403    Y=              8.6657    Z=              1.4054  Tot=              8.9309
 N-N= 4.296054329873D+03 E-N= 0.000000000000D+00  KE=-9.265671624512D+03
 Leave Link  601 at Thu Apr 28 14:20:38 2022, MaxMem=  6710886400 cpu:               0.8 elap:               0.1
 (Enter /sw/apps/gaussian-16.0/g16/l9999.exe)
 1\1\GINC-BP1-COMPUTE165\SP\RZINDO CIS\STO-3G\C55H74Mg1N4O6\OF15641\28-
 Apr-2022\0\\#p ZINDO=(nstates=5)\\step_1601_chromophore_14 ZINDO\\0,1\
 Mg,0,47.456,45.138,43.296\C,0,43.984,44.901,43.184\C,0,47.739,41.745,4
 2.892\C,0,50.66,45.572,41.984\C,0,47.006,48.781,43.116\N,0,46.085,43.5
 91,43.179\C,0,44.67,43.669,43.189\C,0,44.069,42.232,43.19\C,0,45.289,4
 1.383,43.543\C,0,46.506,42.3,43.184\C,0,45.416,40.801,45.038\C,0,43.24
 4,41.84,41.942\C,0,43.597,42.499,40.596\C,0,43.432,41.733,39.25\O,0,42

 Normal termination of Gaussian 16 at Thu Apr 28 14:20:38 2022.
