 Gaussian 16, Revision A.03,
 Gaussian 16:  ES64L-G16RevA.03 25-Dec-2016

 ------------------------------
 #p blyp/Def2SVP td=(nstates=5)
 ------------------------------

 --------------------------------------------------
 step_451_chromophore_13 TDDFT with blyp functional
 --------------------------------------------------
 Symbolic Z-matrix:
 Charge =  0 Multiplicity = 1

                         Standard orientation:
 ---------------------------------------------------------------------
 Center     Atomic      Atomic             Coordinates (Angstroms)
 Number     Number       Type             X           Y           Z
 ---------------------------------------------------------------------
      1         12           0        5.765065    0.366048    0.194103
      2          6           0        3.530115   -2.378830   -0.156917
      3          6           0        3.175094    2.343882   -0.959250
      4          6           0        7.955785    2.775466   -0.198164
      5          6           0        8.214451   -1.902033    0.923174
      6          7           0        3.643210   -0.000550   -0.310561
      7          6           0        2.922873   -1.175005   -0.323979
      8          6           0        1.425013   -0.918936   -0.593687
      9          6           0        1.478641    0.545163   -1.238089
     10          6           0        2.863194    1.035095   -0.774762
     11          6           0        1.513212    0.694585   -2.810279
     12          6           0        0.541183   -1.124815    0.645730
     13          6           0       -0.648714   -2.097260    0.520886
     14          6           0       -2.126957   -1.527893    0.757802
     15          8           0       -2.402825   -0.626471    1.568249
     16          8           0       -3.087057   -2.348636    0.092441
     17          7           0        5.573578    2.333284   -0.304530
     18          6           0        4.470608    2.971607   -0.783709
     19          6           0        4.719968    4.425113   -0.942443
     20          6           0        6.128775    4.560166   -0.778079
     21          6           0        6.596400    3.206373   -0.453932
     22          6           0        3.696050    5.471211   -1.059805
     23          6           0        7.036812    5.805749   -0.899073
     24          8           0        8.255693    5.747657   -0.855712
     25          6           0        6.375102    7.114712   -1.160951
     26          7           0        7.817000    0.369965    0.260347
     27          6           0        8.479141    1.533727    0.097524
     28          6           0        9.966976    1.364118    0.454152
     29          6           0       10.051080   -0.070773    1.179541
     30          6           0        8.644709   -0.599788    0.750250
     31          6           0       11.006275    1.560143   -0.737468
     32          6           0       10.267554   -0.096140    2.783425
     33          6           0        9.408770    0.780069    3.705978
     34          7           0        5.911528   -1.763080    0.386959
     35          6           0        6.957492   -2.581048    0.727937
     36          6           0        6.532872   -3.939097    0.846713
     37          6           0        5.125216   -3.931511    0.454562
     38          6           0        4.844354   -2.556589    0.207584
     39          6           0        7.414332   -5.070724    1.281974
     40          6           0        3.976805   -4.742490    0.314433
     41          8           0        3.728829   -5.865023    0.515054
     42          6           0        2.946392   -3.750523   -0.229011
     43          6           0        2.440052   -4.243181   -1.537430
     44          8           0        3.103492   -4.367547   -2.548018
     45          8           0        1.079670   -4.433199   -1.474380
     46          6           0        0.523210   -4.711373   -2.782349
     47          6           0       -4.436559   -2.293394    0.526795
     48          6           0       -5.369264   -1.484824   -0.339127
     49          6           0       -6.703799   -1.269944   -0.171816
     50          6           0       -7.591256   -1.835293    0.838835
     51          6           0       -7.274324   -0.161963   -1.061950
     52          6           0       -7.231970    1.152181   -0.326205
     53          6           0       -8.631420    1.830505   -0.072762
     54          6           0       -8.918516    2.878440    1.032494
     55          6           0       -7.741018    3.956517    1.247063
     56          6           0       -9.069032    2.222684    2.462136
     57          6           0      -10.565890    2.153313    2.883292
     58          6           0      -11.134392    0.791982    2.487195
     59          6           0      -12.562443    0.872873    1.829448
     60          6           0      -13.645645    1.254821    2.823082
     61          6           0      -13.011013   -0.424438    1.258766
     62          6           0      -13.555330   -0.286085   -0.218282
     63          6           0      -12.671606   -0.775078   -1.385783
     64          6           0      -12.176789    0.370467   -2.317181
     65          6           0      -13.170678    0.378073   -3.493925
     66          6           0      -10.747897   -0.011616   -2.863826
     67          1           0        2.420816    2.982479   -1.421436
     68          1           0        8.668671    3.599196   -0.278969
     69          1           0        9.097804   -2.481426    1.200088
     70          1           0        1.179470   -1.543832   -1.452302
     71          1           0        0.732089    1.192473   -0.777907
     72          1           0        0.594222    1.240010   -3.025646
     73          1           0        1.429076   -0.314790   -3.213182
     74          1           0        2.351142    1.256630   -3.223298
     75          1           0        0.064828   -0.232860    1.051928
     76          1           0        1.169687   -1.480562    1.462436
     77          1           0       -0.592538   -2.906927    1.248757
     78          1           0       -0.562107   -2.481132   -0.495683
     79          1           0        3.781851    6.016621   -1.999168
     80          1           0        3.741914    6.142509   -0.202131
     81          1           0        2.678700    5.081261   -1.048400
     82          1           0        5.588279    7.172509   -1.913139
     83          1           0        7.187656    7.716672   -1.567348
     84          1           0        6.071147    7.682813   -0.281963
     85          1           0       10.292104    2.046592    1.239718
     86          1           0       10.824765   -0.774144    0.875250
     87          1           0       11.526558    0.637064   -0.993534
     88          1           0       11.749786    2.301954   -0.445541
     89          1           0       10.532763    2.029616   -1.599526
     90          1           0       11.271494    0.233452    3.051705
     91          1           0       10.179500   -1.150987    3.045437
     92          1           0        9.817559    1.750598    3.987451
     93          1           0        8.923495    0.232940    4.514633
     94          1           0        8.629432    1.199890    3.070647
     95          1           0        7.977253   -5.436069    0.423300
     96          1           0        6.661349   -5.809735    1.552760
     97          1           0        8.128313   -4.802275    2.061559
     98          1           0        2.072774   -3.620995    0.409979
     99          1           0        0.467019   -3.744608   -3.282918
    100          1           0       -0.463427   -5.174551   -2.788865
    101          1           0        1.147467   -5.454349   -3.279055
    102          1           0       -4.440796   -1.767031    1.480937
    103          1           0       -4.782721   -3.300192    0.757446
    104          1           0       -4.873920   -0.952232   -1.151145
    105          1           0       -8.261878   -2.648185    0.562133
    106          1           0       -8.242138   -1.050875    1.226533
    107          1           0       -6.908111   -2.118590    1.639786
    108          1           0       -8.240840   -0.495372   -1.440777
    109          1           0       -6.605118   -0.077879   -1.917890
    110          1           0       -6.580856    1.796620   -0.916141
    111          1           0       -6.889792    1.046594    0.703600
    112          1           0       -9.416775    1.087818    0.068782
    113          1           0       -8.933487    2.299355   -1.009352
    114          1           0       -9.829942    3.314736    0.624538
    115          1           0       -8.170984    4.932116    1.021886
    116          1           0       -6.958911    3.940196    0.488786
    117          1           0       -7.330500    3.996445    2.255719
    118          1           0       -8.592642    2.767673    3.277930
    119          1           0       -8.655081    1.215616    2.422059
    120          1           0      -11.092323    2.901644    2.289978
    121          1           0      -10.546986    2.300533    3.963054
    122          1           0      -11.292009    0.278186    3.435275
    123          1           0      -10.456879    0.221163    1.851798
    124          1           0      -12.392662    1.548723    0.991661
    125          1           0      -13.759438    2.307469    2.563896
    126          1           0      -13.296632    1.082051    3.840821
    127          1           0      -14.624456    0.812091    2.639167
    128          1           0      -13.776042   -1.000494    1.781165
    129          1           0      -12.117339   -1.049394    1.272828
    130          1           0      -14.011725    0.682568   -0.422985
    131          1           0      -14.351943   -1.029336   -0.204386
    132          1           0      -13.270045   -1.516940   -1.914011
    133          1           0      -11.792929   -1.317772   -1.037055
    134          1           0      -12.042447    1.314889   -1.790035
    135          1           0      -12.722779    0.615600   -4.458992
    136          1           0      -13.854375    1.202431   -3.291527
    137          1           0      -13.765511   -0.510513   -3.708922
    138          1           0      -10.069928    0.695327   -2.385443
    139          1           0      -10.661654    0.035781   -3.949014
    140          1           0      -10.412694   -1.021347   -2.626764
 ---------------------------------------------------------------------

 SCF Done:  E(RB-LYP) =  -3007.33247795     A.U. after   21 cycles

 Excitation energies and oscillator strengths:

 Excited State   1:      Singlet-A      1.8274 eV  678.47 nm  f=0.2831  <S**2>=0.000
     244 -> 247        0.15320
     245 -> 247       -0.17245
     245 -> 248        0.14509
     245 -> 249       -0.11447
     246 -> 247        0.65515
     246 <- 247       -0.14787
 This state for optimization and/or second-order correction.
 Total Energy, E(TD-HF/TD-DFT) =  -3007.26532237
 Copying the excited state density for this state as the 1-particle RhoCI density.

 Excited State   2:      Singlet-A      1.8922 eV  655.24 nm  f=0.1138  <S**2>=0.000
     244 -> 247       -0.40853
     245 -> 247        0.50598
     246 -> 247        0.22962
     246 -> 248       -0.10218

 Excited State   3:      Singlet-A      2.0354 eV  609.13 nm  f=0.0509  <S**2>=0.000
     244 -> 247        0.55203
     245 -> 247        0.39877
     246 -> 248       -0.11855
     246 -> 249        0.10187

 Excited State   4:      Singlet-A      2.0589 eV  602.19 nm  f=0.0000  <S**2>=0.000
     243 -> 247        0.70707

 Excited State   5:      Singlet-A      2.2039 eV  562.56 nm  f=0.0020  <S**2>=0.000
     242 -> 247        0.70299

 The electronic state is 1-A.
 Alpha  occ. eigenvalues --  -46.26800 -18.82415 -18.82266 -18.78437 -18.76676
 Alpha  occ. eigenvalues --  -18.76503 -18.75386 -14.03268 -14.02817 -14.01668
 Alpha  occ. eigenvalues --  -14.00252 -10.05489 -10.03704 -10.00764  -9.98606
 Alpha  occ. eigenvalues --   -9.97486  -9.97350  -9.96277  -9.96253  -9.96203
 Alpha  occ. eigenvalues --   -9.96152  -9.96133  -9.96046  -9.95076  -9.94590
 Alpha  occ. eigenvalues --   -9.94556  -9.94380  -9.94330  -9.94143  -9.94106
 Alpha  occ. eigenvalues --   -9.93765  -9.93548  -9.93456  -9.93340  -9.93182
 Alpha  occ. eigenvalues --   -9.93049  -9.92885  -9.92717  -9.92702  -9.92636
 Alpha  occ. eigenvalues --   -9.92526  -9.92411  -9.92386  -9.92260  -9.92255
 Alpha  occ. eigenvalues --   -9.92178  -9.92103  -9.91999  -9.91924  -9.91736
 Alpha  occ. eigenvalues --   -9.91603  -9.91443  -9.91311  -9.91232  -9.91084
 Alpha  occ. eigenvalues --   -9.91035  -9.90887  -9.90873  -9.90857  -9.90836
 Alpha  occ. eigenvalues --   -9.90826  -9.90672  -9.90652  -9.90588  -9.90500
 Alpha  occ. eigenvalues --   -9.90237  -2.91542  -1.71967  -1.71400  -1.71278
 Alpha  occ. eigenvalues --   -0.98374  -0.96931  -0.94122  -0.92483  -0.90305
 Alpha  occ. eigenvalues --   -0.90184  -0.86703  -0.86043  -0.85690  -0.84769
 Alpha  occ. eigenvalues --   -0.76556  -0.73835  -0.73361  -0.72405  -0.72031
 Alpha  occ. eigenvalues --   -0.71707  -0.71255  -0.71035  -0.70842  -0.70576
 Alpha  occ. eigenvalues --   -0.69419  -0.68741  -0.67971  -0.67231  -0.66888
 Alpha  occ. eigenvalues --   -0.66264  -0.66056  -0.65542  -0.65039  -0.64630
 Alpha  occ. eigenvalues --   -0.64155  -0.63171  -0.62475  -0.61722  -0.60842
 Alpha  occ. eigenvalues --   -0.60465  -0.59951  -0.59872  -0.59183  -0.58707
 Alpha  occ. eigenvalues --   -0.58456  -0.57743  -0.56485  -0.55659  -0.55213
 Alpha  occ. eigenvalues --   -0.54153  -0.53773  -0.53119  -0.52876  -0.51537
 Alpha  occ. eigenvalues --   -0.50861  -0.50604  -0.50526  -0.50137  -0.49581
 Alpha  occ. eigenvalues --   -0.49362  -0.49120  -0.48390  -0.47859  -0.47160
 Alpha  occ. eigenvalues --   -0.46660  -0.46098  -0.45985  -0.44974  -0.44657
 Alpha  occ. eigenvalues --   -0.44170  -0.43888  -0.43067  -0.42705  -0.42658
 Alpha  occ. eigenvalues --   -0.42100  -0.41874  -0.41794  -0.41532  -0.41200
 Alpha  occ. eigenvalues --   -0.41048  -0.40539  -0.40407  -0.40298  -0.40148
 Alpha  occ. eigenvalues --   -0.39988  -0.39899  -0.39787  -0.39625  -0.39089
 Alpha  occ. eigenvalues --   -0.39006  -0.38651  -0.38280  -0.38211  -0.38094
 Alpha  occ. eigenvalues --   -0.38047  -0.37957  -0.37844  -0.37553  -0.37424
 Alpha  occ. eigenvalues --   -0.37257  -0.36995  -0.36826  -0.36790  -0.36523
 Alpha  occ. eigenvalues --   -0.36457  -0.36344  -0.36181  -0.36018  -0.35880
 Alpha  occ. eigenvalues --   -0.35641  -0.35435  -0.35366  -0.35113  -0.34748
 Alpha  occ. eigenvalues --   -0.34548  -0.34278  -0.34245  -0.34160  -0.33865
 Alpha  occ. eigenvalues --   -0.33669  -0.33602  -0.33367  -0.33335  -0.33213
 Alpha  occ. eigenvalues --   -0.32873  -0.32859  -0.32598  -0.32368  -0.32268
 Alpha  occ. eigenvalues --   -0.32139  -0.31843  -0.31726  -0.31700  -0.31391
 Alpha  occ. eigenvalues --   -0.31252  -0.31184  -0.31062  -0.30920  -0.30812
 Alpha  occ. eigenvalues --   -0.30735  -0.30580  -0.30499  -0.30357  -0.29933
 Alpha  occ. eigenvalues --   -0.29500  -0.29418  -0.29284  -0.29256  -0.29038
 Alpha  occ. eigenvalues --   -0.28658  -0.28395  -0.28055  -0.27998  -0.27939
 Alpha  occ. eigenvalues --   -0.27625  -0.27616  -0.26650  -0.26385  -0.26250
 Alpha  occ. eigenvalues --   -0.26159  -0.25949  -0.25664  -0.25408  -0.25275
 Alpha  occ. eigenvalues --   -0.24405  -0.24135  -0.23568  -0.23443  -0.23375
 Alpha  occ. eigenvalues --   -0.23193  -0.22980  -0.22618  -0.21639  -0.21175
 Alpha  occ. eigenvalues --   -0.20040  -0.19766  -0.19330  -0.18874  -0.17075
 Alpha  occ. eigenvalues --   -0.16006
 Alpha virt. eigenvalues --   -0.11763  -0.06688  -0.05706  -0.04519  -0.04279
 Alpha virt. eigenvalues --   -0.02689  -0.02256  -0.01485  -0.01388   0.00379
 Alpha virt. eigenvalues --    0.01153   0.01235   0.01711   0.01844   0.02229

 Mulliken charges:
               1
     1  Mg   0.705205
     2  C    0.029404
     3  C   -0.081656
     4  C   -0.062221
     5  C   -0.053491
     6  N   -0.213894
     7  C   -0.165020
     8  C    0.080085
     9  C   -0.061778
    10  C    0.055988
    11  C    0.128508
    12  C    0.156530
    13  C    0.076298
    14  C    0.112213
    15  O   -0.193226
    16  O   -0.277272
    17  N   -0.282747
    18  C    0.113086
    19  C   -0.151515
    20  C    0.036437
    21  C    0.067265
    22  C    0.175766
    23  C   -0.046769
    24  O   -0.150389
    25  C    0.111822
    26  N   -0.243080
    27  C    0.107959
    28  C    0.010213
    29  C    0.027506
    30  C   -0.020837
    31  C    0.120822
    32  C    0.061512
    33  C    0.061099
    34  N   -0.217132
    35  C    0.138032
    36  C   -0.169162
    37  C    0.036445
    38  C    0.094713
    39  C    0.170914
    40  C   -0.074973
    41  O   -0.063174
    42  C    0.076779
    43  C    0.094137
    44  O   -0.171707
    45  O   -0.266057
    46  C    0.218744
    47  C    0.285681
    48  C   -0.079306
    49  C   -0.197069
    50  C    0.176900
    51  C    0.149064
    52  C    0.107785
    53  C    0.006002
    54  C   -0.035606
    55  C    0.093747
    56  C    0.068008
    57  C    0.098509
    58  C    0.057567
    59  C   -0.103031
    60  C    0.140152
    61  C    0.122312
    62  C    0.060908
    63  C    0.111648
    64  C   -0.089332
    65  C    0.104033
    66  C    0.072603
    67  H   -0.058239
    68  H   -0.044812
    69  H   -0.071845
    70  H   -0.030524
    71  H   -0.023151
    72  H   -0.006998
    73  H   -0.004793
    74  H    0.021610
    75  H   -0.010378
    76  H   -0.019522
    77  H    0.025982
    78  H    0.003237
    79  H    0.005804
    80  H    0.012635
    81  H   -0.023193
    82  H   -0.000519
    83  H   -0.014573
    84  H    0.015107
    85  H   -0.020196
    86  H   -0.029659
    87  H   -0.001075
    88  H   -0.011752
    89  H   -0.001548
    90  H   -0.013086
    91  H   -0.021310
    92  H   -0.010002
    93  H    0.005714
    94  H   -0.022997
    95  H    0.004709
    96  H    0.011621
    97  H   -0.002047
    98  H   -0.026584
    99  H    0.005099
   100  H    0.010941
   101  H    0.023675
   102  H   -0.003337
   103  H    0.001577
   104  H   -0.042413
   105  H    0.010372
   106  H   -0.021195
   107  H   -0.020679
   108  H   -0.031926
   109  H   -0.043719
   110  H   -0.019175
   111  H   -0.012380
   112  H   -0.031291
   113  H   -0.024275
   114  H   -0.029119
   115  H   -0.027853
   116  H   -0.022151
   117  H   -0.001003
   118  H   -0.033612
   119  H   -0.019640
   120  H   -0.027980
   121  H   -0.030312
   122  H   -0.042972
   123  H   -0.009339
   124  H   -0.037198
   125  H   -0.022937
   126  H   -0.008080
   127  H   -0.011636
   128  H   -0.035520
   129  H   -0.062787
   130  H   -0.026634
   131  H   -0.051097
   132  H   -0.031924
   133  H   -0.042837
   134  H   -0.022653
   135  H   -0.026562
   136  H   -0.023435
   137  H   -0.008811
   138  H   -0.005299
   139  H   -0.025002
   140  H   -0.004457
 Sum of Mulliken charges =  -0.00000

 Dipole moment (field-independent basis, Debye):
    X=             -2.6467    Y=              3.8028    Z=              0.4473  Tot=              4.6547
 Quadrupole moment (field-independent basis, Debye-Ang):
   XX=           -385.2967   YY=           -423.5880   ZZ=           -404.1238
   XY=              7.8354   XZ=             20.0273   YZ=             -4.6666

 Normal termination of Gaussian 16 at Wed May  4 22:42:51 2022.
