 Gaussian 16, Revision A.03,
 Gaussian 16:  ES64L-G16RevA.03 25-Dec-2016

 -----------------------------------
 #p cam-b3lyp/Def2SVP td=(nstates=5)
 -----------------------------------

 -------------------------------------------------------
 step_451_chromophore_13 TDDFT with cam-b3lyp functional
 -------------------------------------------------------
 Symbolic Z-matrix:
 Charge =  0 Multiplicity = 1

                         Standard orientation:
 ---------------------------------------------------------------------
 Center     Atomic      Atomic             Coordinates (Angstroms)
 Number     Number       Type             X           Y           Z
 ---------------------------------------------------------------------
      1         12           0        5.765065    0.366048    0.194103
      2          6           0        3.530115   -2.378830   -0.156917
      3          6           0        3.175094    2.343882   -0.959250
      4          6           0        7.955785    2.775466   -0.198164
      5          6           0        8.214451   -1.902033    0.923174
      6          7           0        3.643210   -0.000550   -0.310561
      7          6           0        2.922873   -1.175005   -0.323979
      8          6           0        1.425013   -0.918936   -0.593687
      9          6           0        1.478641    0.545163   -1.238089
     10          6           0        2.863194    1.035095   -0.774762
     11          6           0        1.513212    0.694585   -2.810279
     12          6           0        0.541183   -1.124815    0.645730
     13          6           0       -0.648714   -2.097260    0.520886
     14          6           0       -2.126957   -1.527893    0.757802
     15          8           0       -2.402825   -0.626471    1.568249
     16          8           0       -3.087057   -2.348636    0.092441
     17          7           0        5.573578    2.333284   -0.304530
     18          6           0        4.470608    2.971607   -0.783709
     19          6           0        4.719968    4.425113   -0.942443
     20          6           0        6.128775    4.560166   -0.778079
     21          6           0        6.596400    3.206373   -0.453932
     22          6           0        3.696050    5.471211   -1.059805
     23          6           0        7.036812    5.805749   -0.899073
     24          8           0        8.255693    5.747657   -0.855712
     25          6           0        6.375102    7.114712   -1.160951
     26          7           0        7.817000    0.369965    0.260347
     27          6           0        8.479141    1.533727    0.097524
     28          6           0        9.966976    1.364118    0.454152
     29          6           0       10.051080   -0.070773    1.179541
     30          6           0        8.644709   -0.599788    0.750250
     31          6           0       11.006275    1.560143   -0.737468
     32          6           0       10.267554   -0.096140    2.783425
     33          6           0        9.408770    0.780069    3.705978
     34          7           0        5.911528   -1.763080    0.386959
     35          6           0        6.957492   -2.581048    0.727937
     36          6           0        6.532872   -3.939097    0.846713
     37          6           0        5.125216   -3.931511    0.454562
     38          6           0        4.844354   -2.556589    0.207584
     39          6           0        7.414332   -5.070724    1.281974
     40          6           0        3.976805   -4.742490    0.314433
     41          8           0        3.728829   -5.865023    0.515054
     42          6           0        2.946392   -3.750523   -0.229011
     43          6           0        2.440052   -4.243181   -1.537430
     44          8           0        3.103492   -4.367547   -2.548018
     45          8           0        1.079670   -4.433199   -1.474380
     46          6           0        0.523210   -4.711373   -2.782349
     47          6           0       -4.436559   -2.293394    0.526795
     48          6           0       -5.369264   -1.484824   -0.339127
     49          6           0       -6.703799   -1.269944   -0.171816
     50          6           0       -7.591256   -1.835293    0.838835
     51          6           0       -7.274324   -0.161963   -1.061950
     52          6           0       -7.231970    1.152181   -0.326205
     53          6           0       -8.631420    1.830505   -0.072762
     54          6           0       -8.918516    2.878440    1.032494
     55          6           0       -7.741018    3.956517    1.247063
     56          6           0       -9.069032    2.222684    2.462136
     57          6           0      -10.565890    2.153313    2.883292
     58          6           0      -11.134392    0.791982    2.487195
     59          6           0      -12.562443    0.872873    1.829448
     60          6           0      -13.645645    1.254821    2.823082
     61          6           0      -13.011013   -0.424438    1.258766
     62          6           0      -13.555330   -0.286085   -0.218282
     63          6           0      -12.671606   -0.775078   -1.385783
     64          6           0      -12.176789    0.370467   -2.317181
     65          6           0      -13.170678    0.378073   -3.493925
     66          6           0      -10.747897   -0.011616   -2.863826
     67          1           0        2.420816    2.982479   -1.421436
     68          1           0        8.668671    3.599196   -0.278969
     69          1           0        9.097804   -2.481426    1.200088
     70          1           0        1.179470   -1.543832   -1.452302
     71          1           0        0.732089    1.192473   -0.777907
     72          1           0        0.594222    1.240010   -3.025646
     73          1           0        1.429076   -0.314790   -3.213182
     74          1           0        2.351142    1.256630   -3.223298
     75          1           0        0.064828   -0.232860    1.051928
     76          1           0        1.169687   -1.480562    1.462436
     77          1           0       -0.592538   -2.906927    1.248757
     78          1           0       -0.562107   -2.481132   -0.495683
     79          1           0        3.781851    6.016621   -1.999168
     80          1           0        3.741914    6.142509   -0.202131
     81          1           0        2.678700    5.081261   -1.048400
     82          1           0        5.588279    7.172509   -1.913139
     83          1           0        7.187656    7.716672   -1.567348
     84          1           0        6.071147    7.682813   -0.281963
     85          1           0       10.292104    2.046592    1.239718
     86          1           0       10.824765   -0.774144    0.875250
     87          1           0       11.526558    0.637064   -0.993534
     88          1           0       11.749786    2.301954   -0.445541
     89          1           0       10.532763    2.029616   -1.599526
     90          1           0       11.271494    0.233452    3.051705
     91          1           0       10.179500   -1.150987    3.045437
     92          1           0        9.817559    1.750598    3.987451
     93          1           0        8.923495    0.232940    4.514633
     94          1           0        8.629432    1.199890    3.070647
     95          1           0        7.977253   -5.436069    0.423300
     96          1           0        6.661349   -5.809735    1.552760
     97          1           0        8.128313   -4.802275    2.061559
     98          1           0        2.072774   -3.620995    0.409979
     99          1           0        0.467019   -3.744608   -3.282918
    100          1           0       -0.463427   -5.174551   -2.788865
    101          1           0        1.147467   -5.454349   -3.279055
    102          1           0       -4.440796   -1.767031    1.480937
    103          1           0       -4.782721   -3.300192    0.757446
    104          1           0       -4.873920   -0.952232   -1.151145
    105          1           0       -8.261878   -2.648185    0.562133
    106          1           0       -8.242138   -1.050875    1.226533
    107          1           0       -6.908111   -2.118590    1.639786
    108          1           0       -8.240840   -0.495372   -1.440777
    109          1           0       -6.605118   -0.077879   -1.917890
    110          1           0       -6.580856    1.796620   -0.916141
    111          1           0       -6.889792    1.046594    0.703600
    112          1           0       -9.416775    1.087818    0.068782
    113          1           0       -8.933487    2.299355   -1.009352
    114          1           0       -9.829942    3.314736    0.624538
    115          1           0       -8.170984    4.932116    1.021886
    116          1           0       -6.958911    3.940196    0.488786
    117          1           0       -7.330500    3.996445    2.255719
    118          1           0       -8.592642    2.767673    3.277930
    119          1           0       -8.655081    1.215616    2.422059
    120          1           0      -11.092323    2.901644    2.289978
    121          1           0      -10.546986    2.300533    3.963054
    122          1           0      -11.292009    0.278186    3.435275
    123          1           0      -10.456879    0.221163    1.851798
    124          1           0      -12.392662    1.548723    0.991661
    125          1           0      -13.759438    2.307469    2.563896
    126          1           0      -13.296632    1.082051    3.840821
    127          1           0      -14.624456    0.812091    2.639167
    128          1           0      -13.776042   -1.000494    1.781165
    129          1           0      -12.117339   -1.049394    1.272828
    130          1           0      -14.011725    0.682568   -0.422985
    131          1           0      -14.351943   -1.029336   -0.204386
    132          1           0      -13.270045   -1.516940   -1.914011
    133          1           0      -11.792929   -1.317772   -1.037055
    134          1           0      -12.042447    1.314889   -1.790035
    135          1           0      -12.722779    0.615600   -4.458992
    136          1           0      -13.854375    1.202431   -3.291527
    137          1           0      -13.765511   -0.510513   -3.708922
    138          1           0      -10.069928    0.695327   -2.385443
    139          1           0      -10.661654    0.035781   -3.949014
    140          1           0      -10.412694   -1.021347   -2.626764
 ---------------------------------------------------------------------

 SCF Done:  E(RCAM-B3LYP) =  -3007.12977054     A.U. after   18 cycles

 Excitation energies and oscillator strengths:

 Excited State   1:      Singlet-A      1.7219 eV  720.05 nm  f=0.4169  <S**2>=0.000
     245 -> 248        0.15937
     246 -> 247        0.68904
 This state for optimization and/or second-order correction.
 Total Energy, E(TD-HF/TD-DFT) =  -3007.06649234
 Copying the excited state density for this state as the 1-particle RhoCI density.

 Excited State   2:      Singlet-A      2.1748 eV  570.10 nm  f=0.1760  <S**2>=0.000
     245 -> 247        0.66446
     246 -> 248       -0.21769

 Excited State   3:      Singlet-A      3.2551 eV  380.89 nm  f=0.0083  <S**2>=0.000
     243 -> 247        0.68187

 Excited State   4:      Singlet-A      3.5532 eV  348.94 nm  f=0.0028  <S**2>=0.000
     240 -> 247        0.18417
     241 -> 247        0.47916
     242 -> 247        0.42398
     246 -> 248        0.13539

 Excited State   5:      Singlet-A      3.6107 eV  343.38 nm  f=0.0717  <S**2>=0.000
     241 -> 247       -0.36554
     242 -> 247        0.41648
     242 -> 249       -0.17435
     242 -> 250        0.15497
     246 -> 248       -0.31138

 The electronic state is 1-A.
 Alpha  occ. eigenvalues --  -46.88304 -19.25287 -19.25068 -19.21419 -19.20101
 Alpha  occ. eigenvalues --  -19.19697 -19.18318 -14.42120 -14.41689 -14.40372
 Alpha  occ. eigenvalues --  -14.38474 -10.40982 -10.39025 -10.36345 -10.33546
 Alpha  occ. eigenvalues --  -10.31384 -10.31261 -10.31059 -10.30932 -10.30901
 Alpha  occ. eigenvalues --  -10.30676 -10.30436 -10.30387 -10.29423 -10.28914
 Alpha  occ. eigenvalues --  -10.28627 -10.28579 -10.28385 -10.28233 -10.28133
 Alpha  occ. eigenvalues --  -10.27864 -10.27788 -10.27687 -10.27610 -10.27205
 Alpha  occ. eigenvalues --  -10.26918 -10.26878 -10.26689 -10.26650 -10.26620
 Alpha  occ. eigenvalues --  -10.26531 -10.26418 -10.26411 -10.26354 -10.26161
 Alpha  occ. eigenvalues --  -10.26107 -10.25901 -10.25878 -10.25466 -10.25412
 Alpha  occ. eigenvalues --  -10.25272 -10.25251 -10.25032 -10.24928 -10.24742
 Alpha  occ. eigenvalues --  -10.24733 -10.24534 -10.24514 -10.24506 -10.24503
 Alpha  occ. eigenvalues --  -10.24503 -10.24421 -10.24252 -10.24141 -10.24132
 Alpha  occ. eigenvalues --  -10.23875  -3.16956  -1.91855  -1.91394  -1.91283
 Alpha  occ. eigenvalues --   -1.16858  -1.15278  -1.12436  -1.11262  -1.08128
 Alpha  occ. eigenvalues --   -1.08066  -1.04578  -1.03644  -1.03335  -1.02214
 Alpha  occ. eigenvalues --   -0.93591  -0.90740  -0.90195  -0.89139  -0.88968
 Alpha  occ. eigenvalues --   -0.88384  -0.88112  -0.87627  -0.87419  -0.87152
 Alpha  occ. eigenvalues --   -0.85710  -0.85099  -0.84232  -0.83310  -0.83099
 Alpha  occ. eigenvalues --   -0.82426  -0.82227  -0.81536  -0.80841  -0.80463
 Alpha  occ. eigenvalues --   -0.79935  -0.79161  -0.78073  -0.77155  -0.76242
 Alpha  occ. eigenvalues --   -0.75782  -0.75307  -0.75185  -0.74441  -0.73878
 Alpha  occ. eigenvalues --   -0.73535  -0.72691  -0.71396  -0.70468  -0.69809
 Alpha  occ. eigenvalues --   -0.68746  -0.68308  -0.67698  -0.67470  -0.65658
 Alpha  occ. eigenvalues --   -0.65012  -0.64788  -0.64487  -0.64100  -0.63561
 Alpha  occ. eigenvalues --   -0.63167  -0.62942  -0.62073  -0.61640  -0.61051
 Alpha  occ. eigenvalues --   -0.60168  -0.59709  -0.59568  -0.58386  -0.58200
 Alpha  occ. eigenvalues --   -0.57560  -0.57415  -0.56510  -0.55824  -0.55762
 Alpha  occ. eigenvalues --   -0.55233  -0.55002  -0.54745  -0.54696  -0.54026
 Alpha  occ. eigenvalues --   -0.53826  -0.53360  -0.53230  -0.53134  -0.53124
 Alpha  occ. eigenvalues --   -0.52579  -0.52441  -0.52340  -0.52219  -0.51816
 Alpha  occ. eigenvalues --   -0.51478  -0.51194  -0.50903  -0.50811  -0.50650
 Alpha  occ. eigenvalues --   -0.50478  -0.50339  -0.50202  -0.50109  -0.49868
 Alpha  occ. eigenvalues --   -0.49781  -0.49573  -0.49383  -0.48958  -0.48844
 Alpha  occ. eigenvalues --   -0.48756  -0.48596  -0.48553  -0.48340  -0.47880
 Alpha  occ. eigenvalues --   -0.47823  -0.47667  -0.47305  -0.47009  -0.46726
 Alpha  occ. eigenvalues --   -0.46451  -0.46168  -0.46057  -0.46028  -0.45714
 Alpha  occ. eigenvalues --   -0.45475  -0.45375  -0.45199  -0.45005  -0.44868
 Alpha  occ. eigenvalues --   -0.44603  -0.44447  -0.44153  -0.44066  -0.43947
 Alpha  occ. eigenvalues --   -0.43634  -0.43500  -0.43274  -0.43147  -0.43131
 Alpha  occ. eigenvalues --   -0.42711  -0.42625  -0.42502  -0.42435  -0.42257
 Alpha  occ. eigenvalues --   -0.42193  -0.42010  -0.41843  -0.41699  -0.41377
 Alpha  occ. eigenvalues --   -0.41203  -0.41002  -0.40461  -0.40411  -0.40220
 Alpha  occ. eigenvalues --   -0.39810  -0.39370  -0.39042  -0.38989  -0.38828
 Alpha  occ. eigenvalues --   -0.38726  -0.38464  -0.37858  -0.37286  -0.37104
 Alpha  occ. eigenvalues --   -0.37014  -0.36745  -0.36661  -0.36596  -0.35915
 Alpha  occ. eigenvalues --   -0.35100  -0.34932  -0.34643  -0.34518  -0.34275
 Alpha  occ. eigenvalues --   -0.33862  -0.33585  -0.32732  -0.32310  -0.31522
 Alpha  occ. eigenvalues --   -0.30946  -0.30469  -0.28967  -0.28853  -0.23877
 Alpha  occ. eigenvalues --   -0.21427
 Alpha virt. eigenvalues --   -0.09075  -0.01038   0.00491   0.02406   0.02699
 Alpha virt. eigenvalues --    0.03718   0.05214   0.05695   0.05969   0.06685
 Alpha virt. eigenvalues --    0.07334   0.07719   0.07825   0.08107   0.08907

 Mulliken charges:
               1
     1  Mg   0.839132
     2  C   -0.002397
     3  C   -0.093778
     4  C   -0.077212
     5  C   -0.056482
     6  N   -0.284531
     7  C   -0.119640
     8  C    0.028098
     9  C   -0.106309
    10  C    0.070668
    11  C    0.070750
    12  C    0.097224
    13  C    0.013314
    14  C    0.195393
    15  O   -0.235563
    16  O   -0.343680
    17  N   -0.370200
    18  C    0.123971
    19  C   -0.152422
    20  C   -0.030823
    21  C    0.091516
    22  C    0.110927
    23  C    0.037568
    24  O   -0.189461
    25  C    0.025363
    26  N   -0.316293
    27  C    0.118453
    28  C   -0.047528
    29  C   -0.017324
    30  C   -0.008131
    31  C    0.065815
    32  C    0.012587
    33  C   -0.002095
    34  N   -0.303811
    35  C    0.131344
    36  C   -0.161610
    37  C   -0.043073
    38  C    0.129851
    39  C    0.122184
    40  C    0.019224
    41  O   -0.105399
    42  C    0.003673
    43  C    0.183079
    44  O   -0.208448
    45  O   -0.329524
    46  C    0.175596
    47  C    0.253406
    48  C   -0.103819
    49  C   -0.214466
    50  C    0.122006
    51  C    0.087561
    52  C    0.053711
    53  C   -0.031527
    54  C   -0.086041
    55  C    0.033957
    56  C    0.016059
    57  C    0.041067
    58  C    0.014737
    59  C   -0.152291
    60  C    0.078512
    61  C    0.066244
    62  C    0.004592
    63  C    0.060183
    64  C   -0.151217
    65  C    0.045644
    66  C    0.022592
    67  H   -0.023724
    68  H   -0.003624
    69  H   -0.038215
    70  H    0.001118
    71  H    0.011875
    72  H    0.017182
    73  H    0.019417
    74  H    0.046940
    75  H    0.023948
    76  H    0.014306
    77  H    0.055879
    78  H    0.034655
    79  H    0.032815
    80  H    0.040471
    81  H    0.008084
    82  H    0.028737
    83  H    0.022277
    84  H    0.045988
    85  H    0.014665
    86  H    0.005239
    87  H    0.023210
    88  H    0.012425
    89  H    0.023203
    90  H    0.013913
    91  H    0.006301
    92  H    0.013777
    93  H    0.030741
    94  H   -0.003249
    95  H    0.030435
    96  H    0.036242
    97  H    0.021074
    98  H    0.016156
    99  H    0.025086
   100  H    0.035092
   101  H    0.049371
   102  H    0.028022
   103  H    0.028433
   104  H   -0.008258
   105  H    0.035896
   106  H   -0.004275
   107  H    0.003159
   108  H   -0.005349
   109  H   -0.010580
   110  H    0.008362
   111  H    0.013676
   112  H   -0.013436
   113  H    0.001729
   114  H    0.001003
   115  H   -0.002794
   116  H    0.001852
   117  H    0.022064
   118  H   -0.003128
   119  H    0.003877
   120  H   -0.000981
   121  H   -0.000248
   122  H   -0.013710
   123  H    0.009975
   124  H   -0.011054
   125  H    0.001341
   126  H    0.015428
   127  H    0.013077
   128  H   -0.004965
   129  H   -0.032106
   130  H   -0.000162
   131  H   -0.019196
   132  H   -0.002757
   133  H   -0.015811
   134  H    0.006573
   135  H   -0.001706
   136  H    0.000967
   137  H    0.014760
   138  H    0.010810
   139  H    0.000234
   140  H    0.016567
 Sum of Mulliken charges =  -0.00000

 Dipole moment (field-independent basis, Debye):
    X=             -2.5870    Y=              5.0166    Z=              0.1959  Tot=              5.6478
 Quadrupole moment (field-independent basis, Debye-Ang):
   XX=           -384.4614   YY=           -418.6444   ZZ=           -403.9415
   XY=             14.7429   XZ=             20.1628   YZ=             -6.1534

 Normal termination of Gaussian 16 at Wed May  4 21:01:28 2022.
