 Gaussian 16, Revision A.03,
 Gaussian 16:  ES64L-G16RevA.03 25-Dec-2016

 ---------------------------------
 #p PBE1PBE/Def2SVP td=(nstates=5)
 ---------------------------------

 -----------------------------------------------------
 step_451_chromophore_13 TDDFT with PBE1PBE functional
 -----------------------------------------------------
 Symbolic Z-matrix:
 Charge =  0 Multiplicity = 1

                         Standard orientation:
 ---------------------------------------------------------------------
 Center     Atomic      Atomic             Coordinates (Angstroms)
 Number     Number       Type             X           Y           Z
 ---------------------------------------------------------------------
      1         12           0        5.765065    0.366048    0.194103
      2          6           0        3.530115   -2.378830   -0.156917
      3          6           0        3.175094    2.343882   -0.959250
      4          6           0        7.955785    2.775466   -0.198164
      5          6           0        8.214451   -1.902033    0.923174
      6          7           0        3.643210   -0.000550   -0.310561
      7          6           0        2.922873   -1.175005   -0.323979
      8          6           0        1.425013   -0.918936   -0.593687
      9          6           0        1.478641    0.545163   -1.238089
     10          6           0        2.863194    1.035095   -0.774762
     11          6           0        1.513212    0.694585   -2.810279
     12          6           0        0.541183   -1.124815    0.645730
     13          6           0       -0.648714   -2.097260    0.520886
     14          6           0       -2.126957   -1.527893    0.757802
     15          8           0       -2.402825   -0.626471    1.568249
     16          8           0       -3.087057   -2.348636    0.092441
     17          7           0        5.573578    2.333284   -0.304530
     18          6           0        4.470608    2.971607   -0.783709
     19          6           0        4.719968    4.425113   -0.942443
     20          6           0        6.128775    4.560166   -0.778079
     21          6           0        6.596400    3.206373   -0.453932
     22          6           0        3.696050    5.471211   -1.059805
     23          6           0        7.036812    5.805749   -0.899073
     24          8           0        8.255693    5.747657   -0.855712
     25          6           0        6.375102    7.114712   -1.160951
     26          7           0        7.817000    0.369965    0.260347
     27          6           0        8.479141    1.533727    0.097524
     28          6           0        9.966976    1.364118    0.454152
     29          6           0       10.051080   -0.070773    1.179541
     30          6           0        8.644709   -0.599788    0.750250
     31          6           0       11.006275    1.560143   -0.737468
     32          6           0       10.267554   -0.096140    2.783425
     33          6           0        9.408770    0.780069    3.705978
     34          7           0        5.911528   -1.763080    0.386959
     35          6           0        6.957492   -2.581048    0.727937
     36          6           0        6.532872   -3.939097    0.846713
     37          6           0        5.125216   -3.931511    0.454562
     38          6           0        4.844354   -2.556589    0.207584
     39          6           0        7.414332   -5.070724    1.281974
     40          6           0        3.976805   -4.742490    0.314433
     41          8           0        3.728829   -5.865023    0.515054
     42          6           0        2.946392   -3.750523   -0.229011
     43          6           0        2.440052   -4.243181   -1.537430
     44          8           0        3.103492   -4.367547   -2.548018
     45          8           0        1.079670   -4.433199   -1.474380
     46          6           0        0.523210   -4.711373   -2.782349
     47          6           0       -4.436559   -2.293394    0.526795
     48          6           0       -5.369264   -1.484824   -0.339127
     49          6           0       -6.703799   -1.269944   -0.171816
     50          6           0       -7.591256   -1.835293    0.838835
     51          6           0       -7.274324   -0.161963   -1.061950
     52          6           0       -7.231970    1.152181   -0.326205
     53          6           0       -8.631420    1.830505   -0.072762
     54          6           0       -8.918516    2.878440    1.032494
     55          6           0       -7.741018    3.956517    1.247063
     56          6           0       -9.069032    2.222684    2.462136
     57          6           0      -10.565890    2.153313    2.883292
     58          6           0      -11.134392    0.791982    2.487195
     59          6           0      -12.562443    0.872873    1.829448
     60          6           0      -13.645645    1.254821    2.823082
     61          6           0      -13.011013   -0.424438    1.258766
     62          6           0      -13.555330   -0.286085   -0.218282
     63          6           0      -12.671606   -0.775078   -1.385783
     64          6           0      -12.176789    0.370467   -2.317181
     65          6           0      -13.170678    0.378073   -3.493925
     66          6           0      -10.747897   -0.011616   -2.863826
     67          1           0        2.420816    2.982479   -1.421436
     68          1           0        8.668671    3.599196   -0.278969
     69          1           0        9.097804   -2.481426    1.200088
     70          1           0        1.179470   -1.543832   -1.452302
     71          1           0        0.732089    1.192473   -0.777907
     72          1           0        0.594222    1.240010   -3.025646
     73          1           0        1.429076   -0.314790   -3.213182
     74          1           0        2.351142    1.256630   -3.223298
     75          1           0        0.064828   -0.232860    1.051928
     76          1           0        1.169687   -1.480562    1.462436
     77          1           0       -0.592538   -2.906927    1.248757
     78          1           0       -0.562107   -2.481132   -0.495683
     79          1           0        3.781851    6.016621   -1.999168
     80          1           0        3.741914    6.142509   -0.202131
     81          1           0        2.678700    5.081261   -1.048400
     82          1           0        5.588279    7.172509   -1.913139
     83          1           0        7.187656    7.716672   -1.567348
     84          1           0        6.071147    7.682813   -0.281963
     85          1           0       10.292104    2.046592    1.239718
     86          1           0       10.824765   -0.774144    0.875250
     87          1           0       11.526558    0.637064   -0.993534
     88          1           0       11.749786    2.301954   -0.445541
     89          1           0       10.532763    2.029616   -1.599526
     90          1           0       11.271494    0.233452    3.051705
     91          1           0       10.179500   -1.150987    3.045437
     92          1           0        9.817559    1.750598    3.987451
     93          1           0        8.923495    0.232940    4.514633
     94          1           0        8.629432    1.199890    3.070647
     95          1           0        7.977253   -5.436069    0.423300
     96          1           0        6.661349   -5.809735    1.552760
     97          1           0        8.128313   -4.802275    2.061559
     98          1           0        2.072774   -3.620995    0.409979
     99          1           0        0.467019   -3.744608   -3.282918
    100          1           0       -0.463427   -5.174551   -2.788865
    101          1           0        1.147467   -5.454349   -3.279055
    102          1           0       -4.440796   -1.767031    1.480937
    103          1           0       -4.782721   -3.300192    0.757446
    104          1           0       -4.873920   -0.952232   -1.151145
    105          1           0       -8.261878   -2.648185    0.562133
    106          1           0       -8.242138   -1.050875    1.226533
    107          1           0       -6.908111   -2.118590    1.639786
    108          1           0       -8.240840   -0.495372   -1.440777
    109          1           0       -6.605118   -0.077879   -1.917890
    110          1           0       -6.580856    1.796620   -0.916141
    111          1           0       -6.889792    1.046594    0.703600
    112          1           0       -9.416775    1.087818    0.068782
    113          1           0       -8.933487    2.299355   -1.009352
    114          1           0       -9.829942    3.314736    0.624538
    115          1           0       -8.170984    4.932116    1.021886
    116          1           0       -6.958911    3.940196    0.488786
    117          1           0       -7.330500    3.996445    2.255719
    118          1           0       -8.592642    2.767673    3.277930
    119          1           0       -8.655081    1.215616    2.422059
    120          1           0      -11.092323    2.901644    2.289978
    121          1           0      -10.546986    2.300533    3.963054
    122          1           0      -11.292009    0.278186    3.435275
    123          1           0      -10.456879    0.221163    1.851798
    124          1           0      -12.392662    1.548723    0.991661
    125          1           0      -13.759438    2.307469    2.563896
    126          1           0      -13.296632    1.082051    3.840821
    127          1           0      -14.624456    0.812091    2.639167
    128          1           0      -13.776042   -1.000494    1.781165
    129          1           0      -12.117339   -1.049394    1.272828
    130          1           0      -14.011725    0.682568   -0.422985
    131          1           0      -14.351943   -1.029336   -0.204386
    132          1           0      -13.270045   -1.516940   -1.914011
    133          1           0      -11.792929   -1.317772   -1.037055
    134          1           0      -12.042447    1.314889   -1.790035
    135          1           0      -12.722779    0.615600   -4.458992
    136          1           0      -13.854375    1.202431   -3.291527
    137          1           0      -13.765511   -0.510513   -3.708922
    138          1           0      -10.069928    0.695327   -2.385443
    139          1           0      -10.661654    0.035781   -3.949014
    140          1           0      -10.412694   -1.021347   -2.626764
 ---------------------------------------------------------------------

 SCF Done:  E(RPBE1PBE) =  -3005.31956247     A.U. after   15 cycles

 Excitation energies and oscillator strengths:

 Excited State   1:      Singlet-A      1.8734 eV  661.82 nm  f=0.4010  <S**2>=0.000
     245 -> 248        0.14683
     246 -> 247        0.69602
     246 <- 247       -0.11509
 This state for optimization and/or second-order correction.
 Total Energy, E(TD-HF/TD-DFT) =  -3005.25071648
 Copying the excited state density for this state as the 1-particle RhoCI density.

 Excited State   2:      Singlet-A      2.1739 eV  570.34 nm  f=0.1603  <S**2>=0.000
     245 -> 247        0.67178
     246 -> 248       -0.18569

 Excited State   3:      Singlet-A      2.9144 eV  425.42 nm  f=0.0126  <S**2>=0.000
     243 -> 247        0.69474

 Excited State   4:      Singlet-A      3.0105 eV  411.84 nm  f=0.0009  <S**2>=0.000
     242 -> 247        0.68048
     242 -> 249        0.10978

 Excited State   5:      Singlet-A      3.1618 eV  392.13 nm  f=0.0000  <S**2>=0.000
     244 -> 247        0.70706

 The electronic state is 1-A.
 Alpha  occ. eigenvalues --  -46.91711 -19.25981 -19.25835 -19.21764 -19.20115
 Alpha  occ. eigenvalues --  -19.19983 -19.18671 -14.41665 -14.41176 -14.39881
 Alpha  occ. eigenvalues --  -14.38248 -10.38122 -10.36099 -10.33277 -10.30774
 Alpha  occ. eigenvalues --  -10.28815 -10.28526 -10.28519 -10.28464 -10.28410
 Alpha  occ. eigenvalues --  -10.28292 -10.28279 -10.28257 -10.26894 -10.26823
 Alpha  occ. eigenvalues --  -10.26488 -10.26480 -10.26031 -10.25937 -10.25929
 Alpha  occ. eigenvalues --  -10.25628 -10.25622 -10.25348 -10.24856 -10.24856
 Alpha  occ. eigenvalues --  -10.24574 -10.24522 -10.24488 -10.24338 -10.24282
 Alpha  occ. eigenvalues --  -10.24120 -10.24111 -10.24021 -10.23802 -10.23729
 Alpha  occ. eigenvalues --  -10.23554 -10.23352 -10.23243 -10.23046 -10.22987
 Alpha  occ. eigenvalues --  -10.22811 -10.22697 -10.22623 -10.22497 -10.22427
 Alpha  occ. eigenvalues --  -10.22403 -10.22352 -10.22102 -10.22092 -10.22081
 Alpha  occ. eigenvalues --  -10.22074 -10.21936 -10.21657 -10.21570 -10.21520
 Alpha  occ. eigenvalues --  -10.21445  -3.13940  -1.86781  -1.86298  -1.86190
 Alpha  occ. eigenvalues --   -1.11681  -1.10136  -1.07369  -1.05803  -1.03050
 Alpha  occ. eigenvalues --   -1.02944  -0.99110  -0.98347  -0.97939  -0.96923
 Alpha  occ. eigenvalues --   -0.88089  -0.84868  -0.84312  -0.83382  -0.83142
 Alpha  occ. eigenvalues --   -0.82492  -0.82310  -0.81907  -0.81542  -0.81430
 Alpha  occ. eigenvalues --   -0.80176  -0.79344  -0.78421  -0.77649  -0.77299
 Alpha  occ. eigenvalues --   -0.76521  -0.76418  -0.75806  -0.75092  -0.74844
 Alpha  occ. eigenvalues --   -0.74111  -0.73344  -0.72370  -0.71497  -0.70419
 Alpha  occ. eigenvalues --   -0.70152  -0.69516  -0.69391  -0.68577  -0.68086
 Alpha  occ. eigenvalues --   -0.67850  -0.67192  -0.65776  -0.64772  -0.64177
 Alpha  occ. eigenvalues --   -0.63257  -0.62623  -0.62012  -0.61712  -0.60168
 Alpha  occ. eigenvalues --   -0.59508  -0.59018  -0.58991  -0.58630  -0.57691
 Alpha  occ. eigenvalues --   -0.57606  -0.57244  -0.56701  -0.55889  -0.55463
 Alpha  occ. eigenvalues --   -0.54534  -0.54275  -0.54101  -0.52937  -0.52729
 Alpha  occ. eigenvalues --   -0.52180  -0.51877  -0.51010  -0.50323  -0.50209
 Alpha  occ. eigenvalues --   -0.49814  -0.49646  -0.49307  -0.49071  -0.48588
 Alpha  occ. eigenvalues --   -0.48319  -0.47941  -0.47816  -0.47570  -0.47392
 Alpha  occ. eigenvalues --   -0.47194  -0.47056  -0.46847  -0.46780  -0.46420
 Alpha  occ. eigenvalues --   -0.45975  -0.45845  -0.45469  -0.45396  -0.45039
 Alpha  occ. eigenvalues --   -0.44996  -0.44916  -0.44773  -0.44632  -0.44524
 Alpha  occ. eigenvalues --   -0.44405  -0.44119  -0.43927  -0.43554  -0.43435
 Alpha  occ. eigenvalues --   -0.43346  -0.43223  -0.43113  -0.42891  -0.42509
 Alpha  occ. eigenvalues --   -0.42413  -0.42262  -0.41953  -0.41609  -0.41379
 Alpha  occ. eigenvalues --   -0.41172  -0.40898  -0.40809  -0.40750  -0.40486
 Alpha  occ. eigenvalues --   -0.40280  -0.40067  -0.39999  -0.39773  -0.39564
 Alpha  occ. eigenvalues --   -0.39391  -0.39144  -0.38892  -0.38829  -0.38729
 Alpha  occ. eigenvalues --   -0.38430  -0.38299  -0.38122  -0.37921  -0.37828
 Alpha  occ. eigenvalues --   -0.37373  -0.37322  -0.37195  -0.37131  -0.37088
 Alpha  occ. eigenvalues --   -0.37036  -0.36820  -0.36668  -0.36530  -0.36253
 Alpha  occ. eigenvalues --   -0.36098  -0.35855  -0.35318  -0.35176  -0.34984
 Alpha  occ. eigenvalues --   -0.34780  -0.34150  -0.33992  -0.33835  -0.33791
 Alpha  occ. eigenvalues --   -0.33630  -0.33278  -0.32867  -0.32227  -0.31987
 Alpha  occ. eigenvalues --   -0.31939  -0.31726  -0.31677  -0.31605  -0.30800
 Alpha  occ. eigenvalues --   -0.30070  -0.29847  -0.29617  -0.29529  -0.29337
 Alpha  occ. eigenvalues --   -0.28744  -0.28559  -0.28321  -0.27083  -0.26913
 Alpha  occ. eigenvalues --   -0.26353  -0.25582  -0.24824  -0.24179  -0.20792
 Alpha  occ. eigenvalues --   -0.19002
 Alpha virt. eigenvalues --   -0.11453  -0.04739  -0.03610  -0.01981  -0.01008
 Alpha virt. eigenvalues --   -0.00106   0.00548   0.01366   0.01518   0.03227
 Alpha virt. eigenvalues --    0.03879   0.03979   0.04428   0.04888   0.04952

 Mulliken charges:
               1
     1  Mg   0.990266
     2  C   -0.013891
     3  C   -0.076981
     4  C   -0.062270
     5  C   -0.061165
     6  N   -0.387874
     7  C   -0.040377
     8  C   -0.049318
     9  C   -0.173229
    10  C    0.095514
    11  C    0.012670
    12  C    0.053921
    13  C   -0.065738
    14  C    0.255991
    15  O   -0.265236
    16  O   -0.375119
    17  N   -0.484427
    18  C    0.143600
    19  C   -0.179776
    20  C   -0.073294
    21  C    0.117929
    22  C    0.048727
    23  C    0.086195
    24  O   -0.229066
    25  C   -0.043452
    26  N   -0.424691
    27  C    0.136842
    28  C   -0.119409
    29  C   -0.084964
    30  C    0.032444
    31  C    0.009669
    32  C   -0.047260
    33  C   -0.076935
    34  N   -0.428733
    35  C    0.153688
    36  C   -0.173064
    37  C   -0.082513
    38  C    0.175787
    39  C    0.070444
    40  C    0.106619
    41  O   -0.156257
    42  C   -0.108291
    43  C    0.274422
    44  O   -0.243281
    45  O   -0.362204
    46  C    0.118407
    47  C    0.218861
    48  C   -0.112469
    49  C   -0.260738
    50  C    0.050242
    51  C    0.014405
    52  C   -0.010922
    53  C   -0.088833
    54  C   -0.164452
    55  C   -0.025017
    56  C   -0.046086
    57  C   -0.023049
    58  C   -0.045360
    59  C   -0.240470
    60  C    0.020866
    61  C    0.013722
    62  C   -0.059817
    63  C    0.010017
    64  C   -0.250655
    65  C   -0.009940
    66  C   -0.039916
    67  H    0.006943
    68  H    0.028180
    69  H   -0.005498
    70  H    0.044899
    71  H    0.047360
    72  H    0.045064
    73  H    0.046812
    74  H    0.074530
    75  H    0.055502
    76  H    0.047025
    77  H    0.086540
    78  H    0.069080
    79  H    0.059305
    80  H    0.067398
    81  H    0.034708
    82  H    0.054066
    83  H    0.049261
    84  H    0.071631
    85  H    0.052589
    86  H    0.040815
    87  H    0.049477
    88  H    0.039489
    89  H    0.050814
    90  H    0.047206
    91  H    0.038631
    92  H    0.040926
    93  H    0.058096
    94  H    0.030689
    95  H    0.059895
    96  H    0.065232
    97  H    0.048153
    98  H    0.060875
    99  H    0.048058
   100  H    0.057433
   101  H    0.070991
   102  H    0.054940
   103  H    0.055196
   104  H    0.021422
   105  H    0.062613
   106  H    0.031668
   107  H    0.031658
   108  H    0.032690
   109  H    0.022764
   110  H    0.039829
   111  H    0.048151
   112  H    0.026240
   113  H    0.035491
   114  H    0.035783
   115  H    0.025774
   116  H    0.029490
   117  H    0.047584
   118  H    0.029052
   119  H    0.041126
   120  H    0.032444
   121  H    0.032399
   122  H    0.021011
   123  H    0.045799
   124  H    0.028850
   125  H    0.029065
   126  H    0.041879
   127  H    0.040566
   128  H    0.026593
   129  H    0.001029
   130  H    0.031314
   131  H    0.015358
   132  H    0.028826
   133  H    0.015591
   134  H    0.042498
   135  H    0.025605
   136  H    0.029350
   137  H    0.040432
   138  H    0.043799
   139  H    0.027648
   140  H    0.041589
 Sum of Mulliken charges =  -0.00000

 Dipole moment (field-independent basis, Debye):
    X=             -2.5636    Y=              4.5539    Z=              0.3636  Tot=              5.2385
 Quadrupole moment (field-independent basis, Debye-Ang):
   XX=           -378.6676   YY=           -416.4151   ZZ=           -401.2861
   XY=             11.6166   XZ=             21.6076   YZ=             -6.2461

 Normal termination of Gaussian 16 at Wed May  4 21:30:28 2022.
