 Gaussian 16, Revision A.03,
 Gaussian 16:  ES64L-G16RevA.03 25-Dec-2016

 --------------------------------
 #p wB97XD/Def2SVP td=(nstates=5)
 --------------------------------

 ----------------------------------------------------
 step_451_chromophore_13 TDDFT with wB97XD functional
 ----------------------------------------------------
 Symbolic Z-matrix:
 Charge =  0 Multiplicity = 1

                         Standard orientation:
 ---------------------------------------------------------------------
 Center     Atomic      Atomic             Coordinates (Angstroms)
 Number     Number       Type             X           Y           Z
 ---------------------------------------------------------------------
      1         12           0        5.765065    0.366048    0.194103
      2          6           0        3.530115   -2.378830   -0.156917
      3          6           0        3.175094    2.343882   -0.959250
      4          6           0        7.955785    2.775466   -0.198164
      5          6           0        8.214451   -1.902033    0.923174
      6          7           0        3.643210   -0.000550   -0.310561
      7          6           0        2.922873   -1.175005   -0.323979
      8          6           0        1.425013   -0.918936   -0.593687
      9          6           0        1.478641    0.545163   -1.238089
     10          6           0        2.863194    1.035095   -0.774762
     11          6           0        1.513212    0.694585   -2.810279
     12          6           0        0.541183   -1.124815    0.645730
     13          6           0       -0.648714   -2.097260    0.520886
     14          6           0       -2.126957   -1.527893    0.757802
     15          8           0       -2.402825   -0.626471    1.568249
     16          8           0       -3.087057   -2.348636    0.092441
     17          7           0        5.573578    2.333284   -0.304530
     18          6           0        4.470608    2.971607   -0.783709
     19          6           0        4.719968    4.425113   -0.942443
     20          6           0        6.128775    4.560166   -0.778079
     21          6           0        6.596400    3.206373   -0.453932
     22          6           0        3.696050    5.471211   -1.059805
     23          6           0        7.036812    5.805749   -0.899073
     24          8           0        8.255693    5.747657   -0.855712
     25          6           0        6.375102    7.114712   -1.160951
     26          7           0        7.817000    0.369965    0.260347
     27          6           0        8.479141    1.533727    0.097524
     28          6           0        9.966976    1.364118    0.454152
     29          6           0       10.051080   -0.070773    1.179541
     30          6           0        8.644709   -0.599788    0.750250
     31          6           0       11.006275    1.560143   -0.737468
     32          6           0       10.267554   -0.096140    2.783425
     33          6           0        9.408770    0.780069    3.705978
     34          7           0        5.911528   -1.763080    0.386959
     35          6           0        6.957492   -2.581048    0.727937
     36          6           0        6.532872   -3.939097    0.846713
     37          6           0        5.125216   -3.931511    0.454562
     38          6           0        4.844354   -2.556589    0.207584
     39          6           0        7.414332   -5.070724    1.281974
     40          6           0        3.976805   -4.742490    0.314433
     41          8           0        3.728829   -5.865023    0.515054
     42          6           0        2.946392   -3.750523   -0.229011
     43          6           0        2.440052   -4.243181   -1.537430
     44          8           0        3.103492   -4.367547   -2.548018
     45          8           0        1.079670   -4.433199   -1.474380
     46          6           0        0.523210   -4.711373   -2.782349
     47          6           0       -4.436559   -2.293394    0.526795
     48          6           0       -5.369264   -1.484824   -0.339127
     49          6           0       -6.703799   -1.269944   -0.171816
     50          6           0       -7.591256   -1.835293    0.838835
     51          6           0       -7.274324   -0.161963   -1.061950
     52          6           0       -7.231970    1.152181   -0.326205
     53          6           0       -8.631420    1.830505   -0.072762
     54          6           0       -8.918516    2.878440    1.032494
     55          6           0       -7.741018    3.956517    1.247063
     56          6           0       -9.069032    2.222684    2.462136
     57          6           0      -10.565890    2.153313    2.883292
     58          6           0      -11.134392    0.791982    2.487195
     59          6           0      -12.562443    0.872873    1.829448
     60          6           0      -13.645645    1.254821    2.823082
     61          6           0      -13.011013   -0.424438    1.258766
     62          6           0      -13.555330   -0.286085   -0.218282
     63          6           0      -12.671606   -0.775078   -1.385783
     64          6           0      -12.176789    0.370467   -2.317181
     65          6           0      -13.170678    0.378073   -3.493925
     66          6           0      -10.747897   -0.011616   -2.863826
     67          1           0        2.420816    2.982479   -1.421436
     68          1           0        8.668671    3.599196   -0.278969
     69          1           0        9.097804   -2.481426    1.200088
     70          1           0        1.179470   -1.543832   -1.452302
     71          1           0        0.732089    1.192473   -0.777907
     72          1           0        0.594222    1.240010   -3.025646
     73          1           0        1.429076   -0.314790   -3.213182
     74          1           0        2.351142    1.256630   -3.223298
     75          1           0        0.064828   -0.232860    1.051928
     76          1           0        1.169687   -1.480562    1.462436
     77          1           0       -0.592538   -2.906927    1.248757
     78          1           0       -0.562107   -2.481132   -0.495683
     79          1           0        3.781851    6.016621   -1.999168
     80          1           0        3.741914    6.142509   -0.202131
     81          1           0        2.678700    5.081261   -1.048400
     82          1           0        5.588279    7.172509   -1.913139
     83          1           0        7.187656    7.716672   -1.567348
     84          1           0        6.071147    7.682813   -0.281963
     85          1           0       10.292104    2.046592    1.239718
     86          1           0       10.824765   -0.774144    0.875250
     87          1           0       11.526558    0.637064   -0.993534
     88          1           0       11.749786    2.301954   -0.445541
     89          1           0       10.532763    2.029616   -1.599526
     90          1           0       11.271494    0.233452    3.051705
     91          1           0       10.179500   -1.150987    3.045437
     92          1           0        9.817559    1.750598    3.987451
     93          1           0        8.923495    0.232940    4.514633
     94          1           0        8.629432    1.199890    3.070647
     95          1           0        7.977253   -5.436069    0.423300
     96          1           0        6.661349   -5.809735    1.552760
     97          1           0        8.128313   -4.802275    2.061559
     98          1           0        2.072774   -3.620995    0.409979
     99          1           0        0.467019   -3.744608   -3.282918
    100          1           0       -0.463427   -5.174551   -2.788865
    101          1           0        1.147467   -5.454349   -3.279055
    102          1           0       -4.440796   -1.767031    1.480937
    103          1           0       -4.782721   -3.300192    0.757446
    104          1           0       -4.873920   -0.952232   -1.151145
    105          1           0       -8.261878   -2.648185    0.562133
    106          1           0       -8.242138   -1.050875    1.226533
    107          1           0       -6.908111   -2.118590    1.639786
    108          1           0       -8.240840   -0.495372   -1.440777
    109          1           0       -6.605118   -0.077879   -1.917890
    110          1           0       -6.580856    1.796620   -0.916141
    111          1           0       -6.889792    1.046594    0.703600
    112          1           0       -9.416775    1.087818    0.068782
    113          1           0       -8.933487    2.299355   -1.009352
    114          1           0       -9.829942    3.314736    0.624538
    115          1           0       -8.170984    4.932116    1.021886
    116          1           0       -6.958911    3.940196    0.488786
    117          1           0       -7.330500    3.996445    2.255719
    118          1           0       -8.592642    2.767673    3.277930
    119          1           0       -8.655081    1.215616    2.422059
    120          1           0      -11.092323    2.901644    2.289978
    121          1           0      -10.546986    2.300533    3.963054
    122          1           0      -11.292009    0.278186    3.435275
    123          1           0      -10.456879    0.221163    1.851798
    124          1           0      -12.392662    1.548723    0.991661
    125          1           0      -13.759438    2.307469    2.563896
    126          1           0      -13.296632    1.082051    3.840821
    127          1           0      -14.624456    0.812091    2.639167
    128          1           0      -13.776042   -1.000494    1.781165
    129          1           0      -12.117339   -1.049394    1.272828
    130          1           0      -14.011725    0.682568   -0.422985
    131          1           0      -14.351943   -1.029336   -0.204386
    132          1           0      -13.270045   -1.516940   -1.914011
    133          1           0      -11.792929   -1.317772   -1.037055
    134          1           0      -12.042447    1.314889   -1.790035
    135          1           0      -12.722779    0.615600   -4.458992
    136          1           0      -13.854375    1.202431   -3.291527
    137          1           0      -13.765511   -0.510513   -3.708922
    138          1           0      -10.069928    0.695327   -2.385443
    139          1           0      -10.661654    0.035781   -3.949014
    140          1           0      -10.412694   -1.021347   -2.626764
 ---------------------------------------------------------------------

 SCF Done:  E(RwB97XD) =  -3007.83241757     A.U. after   19 cycles

 Excitation energies and oscillator strengths:

 Excited State   1:      Singlet-A      1.6697 eV  742.54 nm  f=0.4156  <S**2>=0.000
     245 -> 248        0.16501
     246 -> 247        0.68667
     245 <- 248        0.10585
 This state for optimization and/or second-order correction.
 Total Energy, E(TD-HF/TD-DFT) =  -3007.77105618
 Copying the excited state density for this state as the 1-particle RhoCI density.

 Excited State   2:      Singlet-A      2.1219 eV  584.30 nm  f=0.1707  <S**2>=0.000
     245 -> 247        0.66179
     246 -> 248       -0.22251

 Excited State   3:      Singlet-A      3.3049 eV  375.15 nm  f=0.0064  <S**2>=0.000
     241 -> 247       -0.13682
     243 -> 247        0.66916

 Excited State   4:      Singlet-A      3.5762 eV  346.70 nm  f=0.0081  <S**2>=0.000
     240 -> 247        0.19602
     241 -> 247        0.55846
     242 -> 247        0.25712
     243 -> 247        0.10919
     246 -> 248        0.21240

 Excited State   5:      Singlet-A      3.6651 eV  338.28 nm  f=0.1264  <S**2>=0.000
     241 -> 247       -0.16384
     242 -> 247        0.48660
     242 -> 249       -0.20468
     242 -> 250        0.19545
     245 -> 247       -0.11809
     246 -> 248       -0.32861

 The electronic state is 1-A.
 Alpha  occ. eigenvalues --  -46.94650 -19.30490 -19.30350 -19.26395 -19.25177
 Alpha  occ. eigenvalues --  -19.24612 -19.23288 -14.46729 -14.46284 -14.45003
 Alpha  occ. eigenvalues --  -14.43038 -10.44863 -10.42846 -10.40366 -10.37468
 Alpha  occ. eigenvalues --  -10.35267 -10.35184 -10.35042 -10.34984 -10.34957
 Alpha  occ. eigenvalues --  -10.34729 -10.34411 -10.34361 -10.33646 -10.32868
 Alpha  occ. eigenvalues --  -10.32701 -10.32646 -10.32320 -10.32299 -10.32195
 Alpha  occ. eigenvalues --  -10.32042 -10.31758 -10.31719 -10.31587 -10.31179
 Alpha  occ. eigenvalues --  -10.30992 -10.30820 -10.30739 -10.30621 -10.30557
 Alpha  occ. eigenvalues --  -10.30530 -10.30428 -10.30346 -10.30324 -10.30245
 Alpha  occ. eigenvalues --  -10.30068 -10.29762 -10.29691 -10.29365 -10.29293
 Alpha  occ. eigenvalues --  -10.29198 -10.29083 -10.29002 -10.28876 -10.28699
 Alpha  occ. eigenvalues --  -10.28683 -10.28458 -10.28451 -10.28430 -10.28424
 Alpha  occ. eigenvalues --  -10.28423 -10.28357 -10.28077 -10.27996 -10.27954
 Alpha  occ. eigenvalues --  -10.27792  -3.20726  -1.94318  -1.93835  -1.93725
 Alpha  occ. eigenvalues --   -1.19005  -1.17485  -1.14620  -1.13526  -1.10363
 Alpha  occ. eigenvalues --   -1.10238  -1.06637  -1.05657  -1.05330  -1.04225
 Alpha  occ. eigenvalues --   -0.95543  -0.92537  -0.91965  -0.90998  -0.90937
 Alpha  occ. eigenvalues --   -0.90155  -0.90090  -0.89509  -0.89200  -0.89046
 Alpha  occ. eigenvalues --   -0.87615  -0.86999  -0.86082  -0.85227  -0.85004
 Alpha  occ. eigenvalues --   -0.84342  -0.84084  -0.83439  -0.82723  -0.82428
 Alpha  occ. eigenvalues --   -0.81765  -0.81161  -0.79976  -0.79062  -0.78083
 Alpha  occ. eigenvalues --   -0.77701  -0.77134  -0.77092  -0.76253  -0.75731
 Alpha  occ. eigenvalues --   -0.75449  -0.74651  -0.73354  -0.72393  -0.71722
 Alpha  occ. eigenvalues --   -0.70736  -0.70212  -0.69695  -0.69364  -0.67622
 Alpha  occ. eigenvalues --   -0.67019  -0.66646  -0.66440  -0.66079  -0.65360
 Alpha  occ. eigenvalues --   -0.65074  -0.64856  -0.64047  -0.63509  -0.63087
 Alpha  occ. eigenvalues --   -0.62056  -0.61695  -0.61501  -0.60345  -0.60131
 Alpha  occ. eigenvalues --   -0.59555  -0.59352  -0.58520  -0.57680  -0.57665
 Alpha  occ. eigenvalues --   -0.57182  -0.56943  -0.56703  -0.56556  -0.55951
 Alpha  occ. eigenvalues --   -0.55753  -0.55325  -0.55189  -0.55089  -0.54991
 Alpha  occ. eigenvalues --   -0.54482  -0.54360  -0.54214  -0.54093  -0.53762
 Alpha  occ. eigenvalues --   -0.53364  -0.53111  -0.52820  -0.52756  -0.52646
 Alpha  occ. eigenvalues --   -0.52358  -0.52244  -0.52115  -0.51982  -0.51828
 Alpha  occ. eigenvalues --   -0.51703  -0.51451  -0.51294  -0.50917  -0.50716
 Alpha  occ. eigenvalues --   -0.50653  -0.50498  -0.50423  -0.50301  -0.49843
 Alpha  occ. eigenvalues --   -0.49688  -0.49588  -0.49192  -0.48864  -0.48661
 Alpha  occ. eigenvalues --   -0.48370  -0.48071  -0.47958  -0.47948  -0.47631
 Alpha  occ. eigenvalues --   -0.47385  -0.47270  -0.47138  -0.46919  -0.46726
 Alpha  occ. eigenvalues --   -0.46508  -0.46314  -0.46043  -0.45988  -0.45890
 Alpha  occ. eigenvalues --   -0.45534  -0.45425  -0.45214  -0.45075  -0.45005
 Alpha  occ. eigenvalues --   -0.44730  -0.44495  -0.44360  -0.44297  -0.44167
 Alpha  occ. eigenvalues --   -0.44062  -0.43909  -0.43740  -0.43628  -0.43325
 Alpha  occ. eigenvalues --   -0.43132  -0.42947  -0.42346  -0.42290  -0.42089
 Alpha  occ. eigenvalues --   -0.41712  -0.41224  -0.40938  -0.40872  -0.40739
 Alpha  occ. eigenvalues --   -0.40636  -0.40318  -0.39773  -0.39247  -0.39036
 Alpha  occ. eigenvalues --   -0.38955  -0.38758  -0.38598  -0.38518  -0.37767
 Alpha  occ. eigenvalues --   -0.36984  -0.36876  -0.36497  -0.36484  -0.36246
 Alpha  occ. eigenvalues --   -0.35695  -0.35430  -0.34965  -0.34313  -0.33717
 Alpha  occ. eigenvalues --   -0.33146  -0.32459  -0.31107  -0.30891  -0.25798
 Alpha  occ. eigenvalues --   -0.23234
 Alpha virt. eigenvalues --   -0.07424   0.00899   0.02509   0.04535   0.05767
 Alpha virt. eigenvalues --    0.05976   0.07424   0.08061   0.08209   0.09547
 Alpha virt. eigenvalues --    0.10484   0.10532   0.10876   0.11431   0.11824

 Mulliken charges:
               1
     1  Mg   0.978438
     2  C   -0.016517
     3  C   -0.101183
     4  C   -0.081448
     5  C   -0.067363
     6  N   -0.354884
     7  C   -0.075971
     8  C   -0.015363
     9  C   -0.151626
    10  C    0.091382
    11  C    0.023155
    12  C    0.059143
    13  C   -0.044990
    14  C    0.247650
    15  O   -0.263805
    16  O   -0.374893
    17  N   -0.453695
    18  C    0.140283
    19  C   -0.168116
    20  C   -0.070234
    21  C    0.113358
    22  C    0.059959
    23  C    0.084858
    24  O   -0.221443
    25  C   -0.036532
    26  N   -0.389765
    27  C    0.129869
    28  C   -0.098525
    29  C   -0.059469
    30  C    0.013802
    31  C    0.020056
    32  C   -0.034828
    33  C   -0.056623
    34  N   -0.389744
    35  C    0.140072
    36  C   -0.172052
    37  C   -0.085392
    38  C    0.159254
    39  C    0.079531
    40  C    0.095976
    41  O   -0.147693
    42  C   -0.059965
    43  C    0.248838
    44  O   -0.238418
    45  O   -0.360045
    46  C    0.134363
    47  C    0.231751
    48  C   -0.124638
    49  C   -0.243513
    50  C    0.072847
    51  C    0.042854
    52  C    0.007198
    53  C   -0.061918
    54  C   -0.141788
    55  C   -0.011768
    56  C   -0.020622
    57  C   -0.005833
    58  C   -0.019630
    59  C   -0.204543
    60  C    0.030463
    61  C    0.029088
    62  C   -0.044560
    63  C    0.026512
    64  C   -0.219811
    65  C    0.000481
    66  C   -0.017892
    67  H    0.000343
    68  H    0.023548
    69  H   -0.012379
    70  H    0.022140
    71  H    0.038709
    72  H    0.039698
    73  H    0.041954
    74  H    0.067749
    75  H    0.047994
    76  H    0.040048
    77  H    0.082074
    78  H    0.058312
    79  H    0.055183
    80  H    0.063577
    81  H    0.031930
    82  H    0.049474
    83  H    0.048076
    84  H    0.069749
    85  H    0.041868
    86  H    0.032423
    87  H    0.044838
    88  H    0.034117
    89  H    0.044493
    90  H    0.039215
    91  H    0.030472
    92  H    0.035665
    93  H    0.054347
    94  H    0.014993
    95  H    0.054081
    96  H    0.060016
    97  H    0.042574
    98  H    0.045565
    99  H    0.043160
   100  H    0.054112
   101  H    0.066327
   102  H    0.048200
   103  H    0.051507
   104  H    0.017783
   105  H    0.059069
   106  H    0.015419
   107  H    0.025089
   108  H    0.016020
   109  H    0.015289
   110  H    0.033462
   111  H    0.034099
   112  H    0.001033
   113  H    0.026280
   114  H    0.025232
   115  H    0.019748
   116  H    0.022825
   117  H    0.041770
   118  H    0.020977
   119  H    0.024246
   120  H    0.019537
   121  H    0.026382
   122  H    0.010864
   123  H    0.025212
   124  H    0.009450
   125  H    0.022951
   126  H    0.036129
   127  H    0.034602
   128  H    0.019111
   129  H   -0.009884
   130  H    0.022121
   131  H    0.007879
   132  H    0.020162
   133  H    0.003872
   134  H    0.032412
   135  H    0.019147
   136  H    0.023193
   137  H    0.034604
   138  H    0.026438
   139  H    0.022171
   140  H    0.035070
 Sum of Mulliken charges =  -0.00000

 Dipole moment (field-independent basis, Debye):
    X=             -2.5974    Y=              5.2561    Z=              0.2124  Tot=              5.8667
 Quadrupole moment (field-independent basis, Debye-Ang):
   XX=           -379.5631   YY=           -414.0927   ZZ=           -400.8609
   XY=             15.8232   XZ=             20.6801   YZ=             -6.6146

 Normal termination of Gaussian 16 at Wed May  4 22:21:40 2022.
