 Gaussian 16, Revision A.03,
 Gaussian 16:  ES64L-G16RevA.03 25-Dec-2016

 --------------------
 #p ZINDO=(nstates=5)
 --------------------

 -----------------------------
 step_451_chromophore_13 ZINDO
 -----------------------------
 Symbolic Z-matrix:
 Charge =  0 Multiplicity = 1

                         Standard orientation:
 ---------------------------------------------------------------------
 Center     Atomic      Atomic             Coordinates (Angstroms)
 Number     Number       Type             X           Y           Z
 ---------------------------------------------------------------------
      1         12           0        5.765065    0.366048    0.194103
      2          6           0        3.530115   -2.378830   -0.156917
      3          6           0        3.175094    2.343882   -0.959250
      4          6           0        7.955785    2.775466   -0.198164
      5          6           0        8.214451   -1.902033    0.923174
      6          7           0        3.643210   -0.000550   -0.310561
      7          6           0        2.922873   -1.175005   -0.323979
      8          6           0        1.425013   -0.918936   -0.593687
      9          6           0        1.478641    0.545163   -1.238089
     10          6           0        2.863194    1.035095   -0.774762
     11          6           0        1.513212    0.694585   -2.810279
     12          6           0        0.541183   -1.124815    0.645730
     13          6           0       -0.648714   -2.097260    0.520886
     14          6           0       -2.126957   -1.527893    0.757802
     15          8           0       -2.402825   -0.626471    1.568249
     16          8           0       -3.087057   -2.348636    0.092441
     17          7           0        5.573578    2.333284   -0.304530
     18          6           0        4.470608    2.971607   -0.783709
     19          6           0        4.719968    4.425113   -0.942443
     20          6           0        6.128775    4.560166   -0.778079
     21          6           0        6.596400    3.206373   -0.453932
     22          6           0        3.696050    5.471211   -1.059805
     23          6           0        7.036812    5.805749   -0.899073
     24          8           0        8.255693    5.747657   -0.855712
     25          6           0        6.375102    7.114712   -1.160951
     26          7           0        7.817000    0.369965    0.260347
     27          6           0        8.479141    1.533727    0.097524
     28          6           0        9.966976    1.364118    0.454152
     29          6           0       10.051080   -0.070773    1.179541
     30          6           0        8.644709   -0.599788    0.750250
     31          6           0       11.006275    1.560143   -0.737468
     32          6           0       10.267554   -0.096140    2.783425
     33          6           0        9.408770    0.780069    3.705978
     34          7           0        5.911528   -1.763080    0.386959
     35          6           0        6.957492   -2.581048    0.727937
     36          6           0        6.532872   -3.939097    0.846713
     37          6           0        5.125216   -3.931511    0.454562
     38          6           0        4.844354   -2.556589    0.207584
     39          6           0        7.414332   -5.070724    1.281974
     40          6           0        3.976805   -4.742490    0.314433
     41          8           0        3.728829   -5.865023    0.515054
     42          6           0        2.946392   -3.750523   -0.229011
     43          6           0        2.440052   -4.243181   -1.537430
     44          8           0        3.103492   -4.367547   -2.548018
     45          8           0        1.079670   -4.433199   -1.474380
     46          6           0        0.523210   -4.711373   -2.782349
     47          6           0       -4.436559   -2.293394    0.526795
     48          6           0       -5.369264   -1.484824   -0.339127
     49          6           0       -6.703799   -1.269944   -0.171816
     50          6           0       -7.591256   -1.835293    0.838835
     51          6           0       -7.274324   -0.161963   -1.061950
     52          6           0       -7.231970    1.152181   -0.326205
     53          6           0       -8.631420    1.830505   -0.072762
     54          6           0       -8.918516    2.878440    1.032494
     55          6           0       -7.741018    3.956517    1.247063
     56          6           0       -9.069032    2.222684    2.462136
     57          6           0      -10.565890    2.153313    2.883292
     58          6           0      -11.134392    0.791982    2.487195
     59          6           0      -12.562443    0.872873    1.829448
     60          6           0      -13.645645    1.254821    2.823082
     61          6           0      -13.011013   -0.424438    1.258766
     62          6           0      -13.555330   -0.286085   -0.218282
     63          6           0      -12.671606   -0.775078   -1.385783
     64          6           0      -12.176789    0.370467   -2.317181
     65          6           0      -13.170678    0.378073   -3.493925
     66          6           0      -10.747897   -0.011616   -2.863826
     67          1           0        2.420816    2.982479   -1.421436
     68          1           0        8.668671    3.599196   -0.278969
     69          1           0        9.097804   -2.481426    1.200088
     70          1           0        1.179470   -1.543832   -1.452302
     71          1           0        0.732089    1.192473   -0.777907
     72          1           0        0.594222    1.240010   -3.025646
     73          1           0        1.429076   -0.314790   -3.213182
     74          1           0        2.351142    1.256630   -3.223298
     75          1           0        0.064828   -0.232860    1.051928
     76          1           0        1.169687   -1.480562    1.462436
     77          1           0       -0.592538   -2.906927    1.248757
     78          1           0       -0.562107   -2.481132   -0.495683
     79          1           0        3.781851    6.016621   -1.999168
     80          1           0        3.741914    6.142509   -0.202131
     81          1           0        2.678700    5.081261   -1.048400
     82          1           0        5.588279    7.172509   -1.913139
     83          1           0        7.187656    7.716672   -1.567348
     84          1           0        6.071147    7.682813   -0.281963
     85          1           0       10.292104    2.046592    1.239718
     86          1           0       10.824765   -0.774144    0.875250
     87          1           0       11.526558    0.637064   -0.993534
     88          1           0       11.749786    2.301954   -0.445541
     89          1           0       10.532763    2.029616   -1.599526
     90          1           0       11.271494    0.233452    3.051705
     91          1           0       10.179500   -1.150987    3.045437
     92          1           0        9.817559    1.750598    3.987451
     93          1           0        8.923495    0.232940    4.514633
     94          1           0        8.629432    1.199890    3.070647
     95          1           0        7.977253   -5.436069    0.423300
     96          1           0        6.661349   -5.809735    1.552760
     97          1           0        8.128313   -4.802275    2.061559
     98          1           0        2.072774   -3.620995    0.409979
     99          1           0        0.467019   -3.744608   -3.282918
    100          1           0       -0.463427   -5.174551   -2.788865
    101          1           0        1.147467   -5.454349   -3.279055
    102          1           0       -4.440796   -1.767031    1.480937
    103          1           0       -4.782721   -3.300192    0.757446
    104          1           0       -4.873920   -0.952232   -1.151145
    105          1           0       -8.261878   -2.648185    0.562133
    106          1           0       -8.242138   -1.050875    1.226533
    107          1           0       -6.908111   -2.118590    1.639786
    108          1           0       -8.240840   -0.495372   -1.440777
    109          1           0       -6.605118   -0.077879   -1.917890
    110          1           0       -6.580856    1.796620   -0.916141
    111          1           0       -6.889792    1.046594    0.703600
    112          1           0       -9.416775    1.087818    0.068782
    113          1           0       -8.933487    2.299355   -1.009352
    114          1           0       -9.829942    3.314736    0.624538
    115          1           0       -8.170984    4.932116    1.021886
    116          1           0       -6.958911    3.940196    0.488786
    117          1           0       -7.330500    3.996445    2.255719
    118          1           0       -8.592642    2.767673    3.277930
    119          1           0       -8.655081    1.215616    2.422059
    120          1           0      -11.092323    2.901644    2.289978
    121          1           0      -10.546986    2.300533    3.963054
    122          1           0      -11.292009    0.278186    3.435275
    123          1           0      -10.456879    0.221163    1.851798
    124          1           0      -12.392662    1.548723    0.991661
    125          1           0      -13.759438    2.307469    2.563896
    126          1           0      -13.296632    1.082051    3.840821
    127          1           0      -14.624456    0.812091    2.639167
    128          1           0      -13.776042   -1.000494    1.781165
    129          1           0      -12.117339   -1.049394    1.272828
    130          1           0      -14.011725    0.682568   -0.422985
    131          1           0      -14.351943   -1.029336   -0.204386
    132          1           0      -13.270045   -1.516940   -1.914011
    133          1           0      -11.792929   -1.317772   -1.037055
    134          1           0      -12.042447    1.314889   -1.790035
    135          1           0      -12.722779    0.615600   -4.458992
    136          1           0      -13.854375    1.202431   -3.291527
    137          1           0      -13.765511   -0.510513   -3.708922
    138          1           0      -10.069928    0.695327   -2.385443
    139          1           0      -10.661654    0.035781   -3.949014
    140          1           0      -10.412694   -1.021347   -2.626764
 ---------------------------------------------------------------------

 SCF Done:  E(RZINDO/S) =  -474.383462968     A.U. after   19 cycles

 Excitation energies and oscillator strengths:

 Excited State   1:      Singlet-A      1.2640 eV  980.88 nm  f=0.6477  <S**2>=0.000
     175 ->178         0.17483
     176 ->177         0.66718
 This state for optimization and/or second-order correction.
 Total Energy, E(CIS/TDA) =  -474.337011547
 Copying the excited state density for this state as the 1-particle RhoCI density.

 Excited State   2:      Singlet-A      1.9297 eV  642.51 nm  f=0.1169  <S**2>=0.000
     175 ->177         0.58788
     176 ->178        -0.35679

 Excited State   3:      Singlet-A      3.0341 eV  408.63 nm  f=0.0665  <S**2>=0.000
     167 ->179         0.13133
     168 ->177        -0.27964
     168 ->178         0.17783
     168 ->179         0.41965
     168 ->181        -0.22290
     168 ->186         0.20892
     176 ->178         0.16961

 Excited State   4:      Singlet-A      3.0667 eV  404.29 nm  f=0.5097  <S**2>=0.000
     168 ->179        -0.10880
     170 ->177        -0.18345
     170 ->179        -0.15359
     170 ->181        -0.19877
     172 ->177        -0.12163
     173 ->177         0.12953
     175 ->177         0.24910
     176 ->178         0.42544
     176 ->179        -0.11028

 Excited State   5:      Singlet-A      3.1015 eV  399.76 nm  f=0.2918  <S**2>=0.000
     169 ->179         0.11048
     169 ->181         0.12023
     170 ->177         0.25511
     170 ->179         0.19673
     170 ->181         0.25261
     170 ->186         0.12414
     170 ->188         0.12108
     173 ->177         0.15950
     175 ->177         0.17634
     176 ->178         0.31598

 The electronic state is 1-A.
 Alpha  occ. eigenvalues --   -1.84598  -1.81670  -1.79756  -1.74437  -1.71005
 Alpha  occ. eigenvalues --   -1.69927  -1.67038  -1.62300  -1.60458  -1.59933
 Alpha  occ. eigenvalues --   -1.56473  -1.51660  -1.50130  -1.49136  -1.45001
 Alpha  occ. eigenvalues --   -1.44511  -1.42492  -1.40387  -1.39244  -1.38194
 Alpha  occ. eigenvalues --   -1.36423  -1.32803  -1.32401  -1.31746  -1.28754
 Alpha  occ. eigenvalues --   -1.26822  -1.24142  -1.22489  -1.20441  -1.18992
 Alpha  occ. eigenvalues --   -1.18031  -1.17081  -1.15622  -1.14640  -1.13207
 Alpha  occ. eigenvalues --   -1.11743  -1.11472  -1.10225  -1.05196  -1.04166
 Alpha  occ. eigenvalues --   -1.02913  -1.01007  -0.99760  -0.98403  -0.97722
 Alpha  occ. eigenvalues --   -0.97083  -0.94745  -0.93233  -0.92911  -0.92307
 Alpha  occ. eigenvalues --   -0.89718  -0.89360  -0.88716  -0.87620  -0.86127
 Alpha  occ. eigenvalues --   -0.84539  -0.83029  -0.82374  -0.81774  -0.81193
 Alpha  occ. eigenvalues --   -0.80897  -0.79145  -0.77928  -0.76779  -0.76186
 Alpha  occ. eigenvalues --   -0.75813  -0.75544  -0.74951  -0.73846  -0.73192
 Alpha  occ. eigenvalues --   -0.72529  -0.72457  -0.72291  -0.72060  -0.70668
 Alpha  occ. eigenvalues --   -0.69933  -0.69260  -0.68886  -0.68577  -0.68091
 Alpha  occ. eigenvalues --   -0.67778  -0.67332  -0.67091  -0.66988  -0.66514
 Alpha  occ. eigenvalues --   -0.65494  -0.65422  -0.64458  -0.64065  -0.63457
 Alpha  occ. eigenvalues --   -0.63236  -0.62872  -0.62662  -0.61912  -0.61665
 Alpha  occ. eigenvalues --   -0.61513  -0.61173  -0.61101  -0.60519  -0.60405
 Alpha  occ. eigenvalues --   -0.59917  -0.59775  -0.59208  -0.58885  -0.58800
 Alpha  occ. eigenvalues --   -0.58036  -0.57650  -0.56828  -0.56591  -0.56533
 Alpha  occ. eigenvalues --   -0.56174  -0.55565  -0.55138  -0.54557  -0.54469
 Alpha  occ. eigenvalues --   -0.54245  -0.53930  -0.53075  -0.52666  -0.52556
 Alpha  occ. eigenvalues --   -0.52242  -0.52012  -0.51904  -0.51814  -0.51506
 Alpha  occ. eigenvalues --   -0.51279  -0.51177  -0.50641  -0.50054  -0.49889
 Alpha  occ. eigenvalues --   -0.49720  -0.49467  -0.49328  -0.49247  -0.48991
 Alpha  occ. eigenvalues --   -0.48763  -0.48473  -0.48200  -0.47835  -0.47591
 Alpha  occ. eigenvalues --   -0.47461  -0.47430  -0.46843  -0.46703  -0.46498
 Alpha  occ. eigenvalues --   -0.46351  -0.46117  -0.45998  -0.45503  -0.45323
 Alpha  occ. eigenvalues --   -0.44895  -0.44564  -0.44341  -0.44160  -0.43669
 Alpha  occ. eigenvalues --   -0.43508  -0.42376  -0.42070  -0.41853  -0.41695
 Alpha  occ. eigenvalues --   -0.41326  -0.40987  -0.40695  -0.39766  -0.38934
 Alpha  occ. eigenvalues --   -0.37977  -0.37021  -0.36427  -0.34302  -0.33859
 Alpha  occ. eigenvalues --   -0.33751  -0.32694  -0.31384  -0.31123  -0.26557
 Alpha  occ. eigenvalues --   -0.21945
 Alpha virt. eigenvalues --   -0.08824  -0.01400  -0.00401   0.00744   0.01470
 Alpha virt. eigenvalues --    0.02439   0.02846   0.03104   0.04828   0.05088
 Alpha virt. eigenvalues --    0.06414   0.06789   0.07279   0.07488   0.08269

 Mulliken charges:
               1
     1  Mg   0.427246
     2  C   -0.025914
     3  C   -0.094412
     4  C   -0.072457
     5  C   -0.054478
     6  N   -0.302132
     7  C    0.108402
     8  C    0.003866
     9  C   -0.011345
    10  C    0.159342
    11  C   -0.046843
    12  C   -0.018031
    13  C    0.006464
    14  C    0.452570
    15  O   -0.505166
    16  O   -0.278174
    17  N   -0.304957
    18  C    0.123251
    19  C    0.020996
    20  C   -0.053197
    21  C    0.143541
    22  C   -0.031760
    23  C    0.341228
    24  O   -0.506006
    25  C   -0.037826
    26  N   -0.260513
    27  C    0.160751
    28  C    0.003309
    29  C   -0.007240
    30  C    0.099042
    31  C   -0.052289
    32  C   -0.028962
    33  C   -0.062614
    34  N   -0.325599
    35  C    0.077809
    36  C    0.017162
    37  C   -0.083330
    38  C    0.116872
    39  C   -0.041261
    40  C    0.353862
    41  O   -0.512698
    42  C    0.049312
    43  C    0.492847
    44  O   -0.515763
    45  O   -0.271608
    46  C    0.073843
    47  C    0.108174
    48  C   -0.094454
    49  C   -0.005658
    50  C   -0.037643
    51  C   -0.021305
    52  C   -0.021451
    53  C   -0.043520
    54  C   -0.013519
    55  C   -0.068691
    56  C   -0.041720
    57  C   -0.045978
    58  C   -0.042278
    59  C   -0.012307
    60  C   -0.054809
    61  C   -0.033761
    62  C   -0.048176
    63  C   -0.031558
    64  C   -0.009870
    65  C   -0.054375
    66  C   -0.068966
    67  H    0.026319
    68  H    0.042666
    69  H    0.009803
    70  H    0.031147
    71  H    0.032307
    72  H    0.016076
    73  H    0.027459
    74  H    0.038453
    75  H    0.036229
    76  H    0.024450
    77  H    0.051975
    78  H    0.039037
    79  H    0.033872
    80  H    0.034440
    81  H    0.020336
    82  H    0.035732
    83  H    0.027887
    84  H    0.045174
    85  H    0.030411
    86  H    0.032858
    87  H    0.028222
    88  H    0.018535
    89  H    0.026883
    90  H    0.015360
    91  H    0.021718
    92  H    0.025735
    93  H    0.029619
    94  H    0.010290
    95  H    0.033413
    96  H    0.034831
    97  H    0.031147
    98  H    0.037407
    99  H    0.037372
   100  H    0.029343
   101  H    0.051387
   102  H    0.046945
   103  H    0.040976
   104  H    0.032039
   105  H    0.038063
   106  H    0.022682
   107  H    0.020703
   108  H    0.024698
   109  H    0.015593
   110  H    0.026028
   111  H    0.026978
   112  H    0.013163
   113  H    0.003857
   114  H    0.031714
   115  H    0.007049
   116  H    0.019600
   117  H    0.031487
   118  H    0.019010
   119  H    0.021940
   120  H    0.026075
   121  H    0.023991
   122  H    0.012486
   123  H    0.026352
   124  H    0.022647
   125  H    0.010508
   126  H    0.029291
   127  H    0.022627
   128  H    0.021840
   129  H    0.007060
   130  H    0.027132
   131  H    0.002818
   132  H    0.020974
   133  H    0.014782
   134  H    0.036382
   135  H    0.010729
   136  H    0.007996
   137  H    0.026938
   138  H    0.016348
   139  H    0.018590
   140  H    0.018740
 Sum of Mulliken charges =  -0.00000

 Dipole moment (field-independent basis, Debye):
    X=             -4.4585    Y=              7.6586    Z=             -0.1261  Tot=              8.8627
 N-N= 4.334477660436D+03 E-N= 0.000000000000D+00  KE=-9.343426164795D+03
 Leave Link  601 at Wed May  4 22:42:59 2022, MaxMem=  6710886400 cpu:               0.7 elap:               0.0
 (Enter /sw/apps/gaussian-16.0/g16/l9999.exe)
 1\1\GINC-BP1-COMPUTE196\SP\RZINDO CIS\STO-3G\C55H74Mg1N4O6\OF15641\04-
 May-2022\0\\#p ZINDO=(nstates=5)\\step_451_chromophore_13 ZINDO\\0,1\M
 g,0,47.596,24.785,28.245\C,0,48.318,26.968,30.959\C,0,46.959,22.372,30
 .637\C,0,47.634,22.568,25.828\C,0,48.671,27.261,26.15\N,0,47.511,24.78
 ,30.455\C,0,47.777,25.787,31.357\C,0,47.432,25.362,32.8\C,0,47.401,23.
 769,32.648\C,0,47.239,23.608,31.125\C,0,48.697,22.936,32.997\C,0,46.17
 7,26.054,33.353\C,0,46.308,26.807,34.692\C,0,45.407,26.329,35.927\O,0,

 Normal termination of Gaussian 16 at Wed May  4 22:43:00 2022.
