 Gaussian 16, Revision A.03,
 Gaussian 16:  ES64L-G16RevA.03 25-Dec-2016

 ------------------------------
 #p blyp/Def2SVP td=(nstates=5)
 ------------------------------

 -------------------------------------------------
 step_51_chromophore_15 TDDFT with blyp functional
 -------------------------------------------------
 Symbolic Z-matrix:
 Charge =  0 Multiplicity = 1

                         Standard orientation:
 ---------------------------------------------------------------------
 Center     Atomic      Atomic             Coordinates (Angstroms)
 Number     Number       Type             X           Y           Z
 ---------------------------------------------------------------------
      1         12           0       -4.831059    1.029187   -0.038096
      2          6           0       -4.257342   -2.366711    0.766665
      3          6           0       -1.444521    1.257161   -0.143606
      4          6           0       -5.253756    4.418753    0.181325
      5          6           0       -8.245483    0.536196    0.158066
      6          7           0       -3.107462   -0.432007    0.328476
      7          6           0       -3.086512   -1.761523    0.468328
      8          6           0       -1.685350   -2.359933    0.059845
      9          6           0       -0.753772   -1.194065    0.216663
     10          6           0       -1.838534   -0.052831    0.126033
     11          6           0        0.002051   -1.139455    1.606371
     12          6           0       -1.666910   -2.845223   -1.456650
     13          6           0       -0.808169   -4.076451   -1.897418
     14          6           0        0.423262   -4.377706   -0.975477
     15          8           0        0.372782   -4.993577    0.098654
     16          8           0        1.565894   -3.797420   -1.474350
     17          7           0       -3.501386    2.600735    0.125710
     18          6           0       -2.173552    2.513707   -0.083243
     19          6           0       -1.572708    3.797480   -0.128898
     20          6           0       -2.636947    4.717707   -0.091213
     21          6           0       -3.903134    3.890442    0.108060
     22          6           0       -0.078651    4.074788   -0.293863
     23          6           0       -2.589513    6.263212   -0.227773
     24          8           0       -3.552369    6.987514   -0.107234
     25          6           0       -1.284241    6.969868   -0.641420
     26          7           0       -6.536601    2.315488    0.361819
     27          6           0       -6.456391    3.653420    0.210961
     28          6           0       -7.826396    4.330150    0.200842
     29          6           0       -8.809434    3.058052    0.035962
     30          6           0       -7.827810    1.907843    0.072003
     31          6           0       -8.234734    5.365347    1.358185
     32          6           0       -9.869105    3.037117   -1.135170
     33          6           0      -11.272368    2.465678   -0.947738
     34          7           0       -6.008869   -0.524918    0.455319
     35          6           0       -7.413724   -0.576252    0.368257
     36          6           0       -7.887485   -1.942542    0.630628
     37          6           0       -6.702478   -2.612458    0.830583
     38          6           0       -5.543756   -1.747886    0.698446
     39          6           0       -9.228822   -2.511133    0.673887
     40          6           0       -6.144520   -3.879500    1.051008
     41          8           0       -6.747910   -4.892468    1.276975
     42          6           0       -4.634790   -3.767423    1.166524
     43          6           0       -4.087992   -4.888115    0.279485
     44          8           0       -4.265417   -5.021135   -0.905695
     45          8           0       -3.293211   -5.725736    0.978819
     46          6           0       -2.605900   -6.857294    0.341537
     47          6           0        2.708678   -3.868206   -0.562934
     48          6           0        3.855373   -3.277701   -1.334307
     49          6           0        5.215626   -3.383686   -1.128118
     50          6           0        5.926997   -4.229400   -0.092837
     51          6           0        6.209249   -2.678870   -2.109519
     52          6           0        7.098499   -1.502293   -1.697077
     53          6           0        7.185278   -0.474041   -2.795422
     54          6           0        7.378873    0.910886   -2.243681
     55          6           0        6.454149    2.064979   -2.694640
     56          6           0        8.881833    1.328241   -2.427533
     57          6           0        9.834717    1.050715   -1.263868
     58          6           0       11.318769    1.056897   -1.567573
     59          6           0       12.093967    2.200731   -0.884624
     60          6           0       13.175942    2.734047   -1.841374
     61          6           0       12.647788    1.802092    0.534829
     62          6           0       11.666352    2.025936    1.708801
     63          6           0       11.295145    0.792266    2.598424
     64          6           0       11.492354    1.007071    4.082056
     65          6           0       12.833145    0.538247    4.544899
     66          6           0       10.298507    0.374980    4.825280
     67          1           0       -0.372077    1.316546   -0.339896
     68          1           0       -5.486200    5.483561    0.110510
     69          1           0       -9.324402    0.374629    0.198170
     70          1           0       -1.368721   -3.230633    0.634641
     71          1           0        0.098078   -1.105013   -0.457419
     72          1           0        1.086316   -1.100466    1.503044
     73          1           0       -0.297140   -1.997343    2.208282
     74          1           0       -0.230016   -0.248733    2.190777
     75          1           0       -1.460540   -1.966739   -2.067400
     76          1           0       -2.714723   -3.146888   -1.484176
     77          1           0       -0.446651   -3.956163   -2.918901
     78          1           0       -1.461380   -4.943382   -1.805271
     79          1           0        0.124171    4.860098   -1.023019
     80          1           0        0.451515    3.156144   -0.544960
     81          1           0        0.307642    4.558201    0.603428
     82          1           0       -1.525412    8.029863   -0.578064
     83          1           0       -1.105125    6.760993   -1.696686
     84          1           0       -0.390632    6.685221   -0.086374
     85          1           0       -7.938003    4.844352   -0.752906
     86          1           0       -9.354175    2.834304    0.953025
     87          1           0       -7.595772    5.246019    2.233216
     88          1           0       -9.265585    5.205564    1.673657
     89          1           0       -8.112772    6.387170    0.997009
     90          1           0       -9.487117    2.375600   -1.912041
     91          1           0       -9.983635    4.000601   -1.632016
     92          1           0      -11.353806    2.169298    0.098063
     93          1           0      -11.451655    1.585287   -1.563391
     94          1           0      -12.094999    3.166590   -1.092331
     95          1           0       -9.762860   -1.606006    0.965828
     96          1           0       -9.297588   -3.295520    1.426904
     97          1           0       -9.492957   -2.826306   -0.335604
     98          1           0       -4.314127   -3.879713    2.202618
     99          1           0       -3.007440   -7.774623    0.771925
    100          1           0       -1.517492   -6.841528    0.381465
    101          1           0       -2.853924   -6.910702   -0.719225
    102          1           0        2.902437   -4.911517   -0.311611
    103          1           0        2.519934   -3.388061    0.397378
    104          1           0        3.459262   -2.643587   -2.127219
    105          1           0        6.390656   -5.098336   -0.561039
    106          1           0        5.267225   -4.489668    0.734298
    107          1           0        6.820467   -3.800585    0.360746
    108          1           0        5.664743   -2.534941   -3.041881
    109          1           0        6.877935   -3.479695   -2.425666
    110          1           0        8.058029   -1.962020   -1.459684
    111          1           0        6.693031   -1.137521   -0.752796
    112          1           0        6.290365   -0.441388   -3.416410
    113          1           0        8.070006   -0.760236   -3.365111
    114          1           0        7.232874    0.902447   -1.163596
    115          1           0        6.753747    2.639303   -3.571803
    116          1           0        6.358023    2.784604   -1.881474
    117          1           0        5.427829    1.781984   -2.929131
    118          1           0        8.962217    2.396816   -2.630648
    119          1           0        9.309261    0.943935   -3.353453
    120          1           0        9.588801    0.064622   -0.871648
    121          1           0        9.558868    1.735382   -0.461218
    122          1           0       11.520435    1.020172   -2.637838
    123          1           0       11.809354    0.161953   -1.185119
    124          1           0       11.437910    3.042267   -0.659866
    125          1           0       12.780402    3.654027   -2.272416
    126          1           0       13.366328    2.097868   -2.705293
    127          1           0       14.108161    2.963950   -1.325844
    128          1           0       13.559964    2.375254    0.696933
    129          1           0       12.834687    0.730365    0.469766
    130          1           0       10.717229    2.389714    1.315606
    131          1           0       12.127990    2.673007    2.454274
    132          1           0       11.805809   -0.046568    2.127160
    133          1           0       10.223242    0.655301    2.450884
    134          1           0       11.429695    2.078707    4.275530
    135          1           0       12.985763   -0.241807    5.291596
    136          1           0       13.369776    1.394472    4.951395
    137          1           0       13.340315    0.268475    3.618662
    138          1           0       10.113505   -0.663274    4.550650
    139          1           0        9.341847    0.836902    4.582325
    140          1           0       10.305357    0.634789    5.883329
 ---------------------------------------------------------------------

 SCF Done:  E(RB-LYP) =  -3007.36848327     A.U. after   20 cycles

 Excitation energies and oscillator strengths:

 Excited State   1:      Singlet-A      1.7707 eV  700.20 nm  f=0.1986  <S**2>=0.000
     244 -> 247       -0.28855
     245 -> 247        0.16366
     245 -> 248        0.16301
     246 -> 247        0.60950
     246 <- 247       -0.12980
 This state for optimization and/or second-order correction.
 Total Energy, E(TD-HF/TD-DFT) =  -3007.30341115
 Copying the excited state density for this state as the 1-particle RhoCI density.

 Excited State   2:      Singlet-A      1.8017 eV  688.16 nm  f=0.0862  <S**2>=0.000
     244 -> 247        0.56687
     245 -> 247       -0.25822
     246 -> 247        0.32345

 Excited State   3:      Singlet-A      2.0376 eV  608.48 nm  f=0.0026  <S**2>=0.000
     243 -> 247        0.70022

 Excited State   4:      Singlet-A      2.0849 eV  594.67 nm  f=0.0865  <S**2>=0.000
     244 -> 247        0.28979
     245 -> 247        0.56740
     246 -> 248       -0.26866

 Excited State   5:      Singlet-A      2.4992 eV  496.09 nm  f=0.0001  <S**2>=0.000
     241 -> 247        0.17763
     242 -> 247        0.68440

 The electronic state is 1-A.
 Alpha  occ. eigenvalues --  -46.27457 -18.83507 -18.81309 -18.78128 -18.76113
 Alpha  occ. eigenvalues --  -18.75753 -18.74392 -14.03052 -14.03006 -14.01526
 Alpha  occ. eigenvalues --  -14.00928 -10.05179 -10.03556 -10.00027  -9.98522
 Alpha  occ. eigenvalues --   -9.97709  -9.96694  -9.96608  -9.96472  -9.96239
 Alpha  occ. eigenvalues --   -9.96231  -9.96172  -9.95747  -9.95634  -9.94521
 Alpha  occ. eigenvalues --   -9.94373  -9.94245  -9.94177  -9.94162  -9.93984
 Alpha  occ. eigenvalues --   -9.93978  -9.93435  -9.93316  -9.93251  -9.93207
 Alpha  occ. eigenvalues --   -9.93203  -9.93100  -9.93015  -9.92931  -9.92879
 Alpha  occ. eigenvalues --   -9.92754  -9.92712  -9.92697  -9.92647  -9.92624
 Alpha  occ. eigenvalues --   -9.92204  -9.92160  -9.92061  -9.92031  -9.91930
 Alpha  occ. eigenvalues --   -9.91892  -9.91824  -9.91777  -9.91686  -9.91414
 Alpha  occ. eigenvalues --   -9.91364  -9.91179  -9.91143  -9.91110  -9.91037
 Alpha  occ. eigenvalues --   -9.91029  -9.90770  -9.90681  -9.90610  -9.90559
 Alpha  occ. eigenvalues --   -9.89716  -2.92176  -1.72559  -1.72089  -1.71880
 Alpha  occ. eigenvalues --   -0.98662  -0.97792  -0.92216  -0.91733  -0.90485
 Alpha  occ. eigenvalues --   -0.89487  -0.87597  -0.86297  -0.85821  -0.85090
 Alpha  occ. eigenvalues --   -0.75597  -0.74076  -0.73266  -0.72820  -0.72386
 Alpha  occ. eigenvalues --   -0.71915  -0.71602  -0.71211  -0.70840  -0.70271
 Alpha  occ. eigenvalues --   -0.69883  -0.69220  -0.68114  -0.67210  -0.67039
 Alpha  occ. eigenvalues --   -0.66522  -0.65712  -0.65355  -0.64797  -0.64727
 Alpha  occ. eigenvalues --   -0.64118  -0.62697  -0.62165  -0.61914  -0.60994
 Alpha  occ. eigenvalues --   -0.60931  -0.60876  -0.59986  -0.59662  -0.59219
 Alpha  occ. eigenvalues --   -0.58433  -0.57962  -0.56423  -0.55594  -0.54642
 Alpha  occ. eigenvalues --   -0.53659  -0.53330  -0.52526  -0.52314  -0.51492
 Alpha  occ. eigenvalues --   -0.51261  -0.51187  -0.50909  -0.50667  -0.50300
 Alpha  occ. eigenvalues --   -0.50154  -0.49608  -0.49312  -0.48398  -0.46950
 Alpha  occ. eigenvalues --   -0.46428  -0.46184  -0.45552  -0.45076  -0.44231
 Alpha  occ. eigenvalues --   -0.43526  -0.43053  -0.42782  -0.42770  -0.42583
 Alpha  occ. eigenvalues --   -0.42104  -0.41872  -0.41632  -0.41312  -0.41162
 Alpha  occ. eigenvalues --   -0.40843  -0.40642  -0.40259  -0.40156  -0.40053
 Alpha  occ. eigenvalues --   -0.39927  -0.39790  -0.39366  -0.39238  -0.39195
 Alpha  occ. eigenvalues --   -0.39055  -0.38918  -0.38797  -0.38758  -0.38530
 Alpha  occ. eigenvalues --   -0.38256  -0.38024  -0.37611  -0.37382  -0.37226
 Alpha  occ. eigenvalues --   -0.37163  -0.36957  -0.36847  -0.36765  -0.36552
 Alpha  occ. eigenvalues --   -0.36477  -0.36124  -0.36014  -0.35845  -0.35541
 Alpha  occ. eigenvalues --   -0.35491  -0.35345  -0.35246  -0.35222  -0.34931
 Alpha  occ. eigenvalues --   -0.34803  -0.34626  -0.34400  -0.34275  -0.34112
 Alpha  occ. eigenvalues --   -0.33897  -0.33737  -0.33447  -0.33307  -0.33040
 Alpha  occ. eigenvalues --   -0.32941  -0.32804  -0.32591  -0.32550  -0.32478
 Alpha  occ. eigenvalues --   -0.32232  -0.32067  -0.32001  -0.31753  -0.31706
 Alpha  occ. eigenvalues --   -0.31562  -0.31473  -0.31031  -0.30849  -0.30641
 Alpha  occ. eigenvalues --   -0.30611  -0.30201  -0.30194  -0.30086  -0.29891
 Alpha  occ. eigenvalues --   -0.29471  -0.29402  -0.29068  -0.28904  -0.28890
 Alpha  occ. eigenvalues --   -0.28437  -0.28056  -0.28018  -0.27883  -0.27634
 Alpha  occ. eigenvalues --   -0.27505  -0.27459  -0.27055  -0.26725  -0.26698
 Alpha  occ. eigenvalues --   -0.26490  -0.26286  -0.26243  -0.25863  -0.25587
 Alpha  occ. eigenvalues --   -0.25583  -0.24757  -0.24452  -0.24436  -0.23558
 Alpha  occ. eigenvalues --   -0.23462  -0.22663  -0.22062  -0.21551  -0.20998
 Alpha  occ. eigenvalues --   -0.20561  -0.20532  -0.18758  -0.17919  -0.17108
 Alpha  occ. eigenvalues --   -0.15572
 Alpha virt. eigenvalues --   -0.11350  -0.06804  -0.05316  -0.04328  -0.04165
 Alpha virt. eigenvalues --   -0.03700  -0.02643  -0.01745  -0.01445   0.00540
 Alpha virt. eigenvalues --    0.00964   0.02195   0.02459   0.02650   0.02752

 Mulliken charges:
               1
     1  Mg   0.702377
     2  C    0.038527
     3  C   -0.073380
     4  C   -0.017849
     5  C   -0.093582
     6  N   -0.147687
     7  C   -0.103237
     8  C    0.008541
     9  C   -0.014755
    10  C    0.018164
    11  C    0.109329
    12  C    0.077672
    13  C    0.199906
    14  C    0.067664
    15  O   -0.213392
    16  O   -0.267223
    17  N   -0.259994
    18  C    0.121728
    19  C   -0.129344
    20  C    0.007679
    21  C    0.103489
    22  C    0.174944
    23  C   -0.064586
    24  O   -0.148747
    25  C    0.103819
    26  N   -0.222029
    27  C   -0.016489
    28  C    0.041140
    29  C    0.017286
    30  C    0.014217
    31  C    0.121111
    32  C    0.088766
    33  C    0.056252
    34  N   -0.281651
    35  C    0.134790
    36  C   -0.207635
    37  C    0.163103
    38  C    0.024474
    39  C    0.191562
    40  C   -0.125189
    41  O   -0.122430
    42  C    0.120597
    43  C    0.085846
    44  O   -0.174591
    45  O   -0.253993
    46  C    0.192869
    47  C    0.299162
    48  C   -0.119328
    49  C   -0.099608
    50  C    0.132571
    51  C    0.087546
    52  C    0.074981
    53  C    0.181082
    54  C   -0.052637
    55  C    0.095690
    56  C    0.068819
    57  C    0.071973
    58  C    0.151487
    59  C   -0.116465
    60  C    0.108892
    61  C    0.119333
    62  C    0.063047
    63  C    0.090358
    64  C   -0.070201
    65  C    0.134861
    66  C    0.100641
    67  H   -0.079919
    68  H   -0.044012
    69  H   -0.060213
    70  H   -0.023437
    71  H   -0.026219
    72  H   -0.008879
    73  H   -0.002056
    74  H   -0.011236
    75  H   -0.013811
    76  H    0.006946
    77  H   -0.004706
    78  H   -0.005041
    79  H   -0.010397
    80  H   -0.008233
    81  H    0.003391
    82  H   -0.008496
    83  H    0.013093
    84  H    0.000177
    85  H   -0.024188
    86  H   -0.015663
    87  H    0.001451
    88  H   -0.004464
    89  H    0.004941
    90  H   -0.026916
    91  H   -0.018939
    92  H   -0.017027
    93  H   -0.000679
    94  H   -0.007435
    95  H   -0.012304
    96  H    0.018593
    97  H    0.017613
    98  H    0.002109
    99  H    0.011968
   100  H    0.034957
   101  H    0.014252
   102  H    0.000791
   103  H    0.012324
   104  H   -0.026009
   105  H   -0.000303
   106  H   -0.007390
   107  H   -0.013718
   108  H   -0.037216
   109  H   -0.042901
   110  H   -0.018617
   111  H   -0.025469
   112  H   -0.034776
   113  H   -0.029986
   114  H   -0.038491
   115  H   -0.015395
   116  H   -0.018358
   117  H   -0.030536
   118  H   -0.052459
   119  H   -0.043986
   120  H   -0.042837
   121  H   -0.025719
   122  H   -0.037806
   123  H   -0.048593
   124  H   -0.035862
   125  H   -0.019723
   126  H   -0.017197
   127  H   -0.022769
   128  H   -0.034477
   129  H   -0.039040
   130  H   -0.023248
   131  H   -0.033558
   132  H   -0.036494
   133  H   -0.051583
   134  H   -0.036635
   135  H   -0.010329
   136  H   -0.027169
   137  H   -0.026962
   138  H   -0.011023
   139  H   -0.036593
   140  H   -0.025381
 Sum of Mulliken charges =  -0.00000

 Dipole moment (field-independent basis, Debye):
    X=              3.9156    Y=              2.3264    Z=             -2.1273  Tot=              5.0269
 Quadrupole moment (field-independent basis, Debye-Ang):
   XX=           -377.6282   YY=           -438.1469   ZZ=           -406.7634
   XY=            -31.3458   XZ=              8.2138   YZ=              2.5666

 Normal termination of Gaussian 16 at Sat Apr 30 00:44:46 2022.
