 Gaussian 16, Revision A.03,
 Gaussian 16:  ES64L-G16RevA.03 25-Dec-2016

 -----------------------------------
 #p cam-b3lyp/Def2SVP td=(nstates=5)
 -----------------------------------

 ------------------------------------------------------
 step_51_chromophore_15 TDDFT with cam-b3lyp functional
 ------------------------------------------------------
 Symbolic Z-matrix:
 Charge =  0 Multiplicity = 1

                         Standard orientation:
 ---------------------------------------------------------------------
 Center     Atomic      Atomic             Coordinates (Angstroms)
 Number     Number       Type             X           Y           Z
 ---------------------------------------------------------------------
      1         12           0       -4.831059    1.029187   -0.038096
      2          6           0       -4.257342   -2.366711    0.766665
      3          6           0       -1.444521    1.257161   -0.143606
      4          6           0       -5.253756    4.418753    0.181325
      5          6           0       -8.245483    0.536196    0.158066
      6          7           0       -3.107462   -0.432007    0.328476
      7          6           0       -3.086512   -1.761523    0.468328
      8          6           0       -1.685350   -2.359933    0.059845
      9          6           0       -0.753772   -1.194065    0.216663
     10          6           0       -1.838534   -0.052831    0.126033
     11          6           0        0.002051   -1.139455    1.606371
     12          6           0       -1.666910   -2.845223   -1.456650
     13          6           0       -0.808169   -4.076451   -1.897418
     14          6           0        0.423262   -4.377706   -0.975477
     15          8           0        0.372782   -4.993577    0.098654
     16          8           0        1.565894   -3.797420   -1.474350
     17          7           0       -3.501386    2.600735    0.125710
     18          6           0       -2.173552    2.513707   -0.083243
     19          6           0       -1.572708    3.797480   -0.128898
     20          6           0       -2.636947    4.717707   -0.091213
     21          6           0       -3.903134    3.890442    0.108060
     22          6           0       -0.078651    4.074788   -0.293863
     23          6           0       -2.589513    6.263212   -0.227773
     24          8           0       -3.552369    6.987514   -0.107234
     25          6           0       -1.284241    6.969868   -0.641420
     26          7           0       -6.536601    2.315488    0.361819
     27          6           0       -6.456391    3.653420    0.210961
     28          6           0       -7.826396    4.330150    0.200842
     29          6           0       -8.809434    3.058052    0.035962
     30          6           0       -7.827810    1.907843    0.072003
     31          6           0       -8.234734    5.365347    1.358185
     32          6           0       -9.869105    3.037117   -1.135170
     33          6           0      -11.272368    2.465678   -0.947738
     34          7           0       -6.008869   -0.524918    0.455319
     35          6           0       -7.413724   -0.576252    0.368257
     36          6           0       -7.887485   -1.942542    0.630628
     37          6           0       -6.702478   -2.612458    0.830583
     38          6           0       -5.543756   -1.747886    0.698446
     39          6           0       -9.228822   -2.511133    0.673887
     40          6           0       -6.144520   -3.879500    1.051008
     41          8           0       -6.747910   -4.892468    1.276975
     42          6           0       -4.634790   -3.767423    1.166524
     43          6           0       -4.087992   -4.888115    0.279485
     44          8           0       -4.265417   -5.021135   -0.905695
     45          8           0       -3.293211   -5.725736    0.978819
     46          6           0       -2.605900   -6.857294    0.341537
     47          6           0        2.708678   -3.868206   -0.562934
     48          6           0        3.855373   -3.277701   -1.334307
     49          6           0        5.215626   -3.383686   -1.128118
     50          6           0        5.926997   -4.229400   -0.092837
     51          6           0        6.209249   -2.678870   -2.109519
     52          6           0        7.098499   -1.502293   -1.697077
     53          6           0        7.185278   -0.474041   -2.795422
     54          6           0        7.378873    0.910886   -2.243681
     55          6           0        6.454149    2.064979   -2.694640
     56          6           0        8.881833    1.328241   -2.427533
     57          6           0        9.834717    1.050715   -1.263868
     58          6           0       11.318769    1.056897   -1.567573
     59          6           0       12.093967    2.200731   -0.884624
     60          6           0       13.175942    2.734047   -1.841374
     61          6           0       12.647788    1.802092    0.534829
     62          6           0       11.666352    2.025936    1.708801
     63          6           0       11.295145    0.792266    2.598424
     64          6           0       11.492354    1.007071    4.082056
     65          6           0       12.833145    0.538247    4.544899
     66          6           0       10.298507    0.374980    4.825280
     67          1           0       -0.372077    1.316546   -0.339896
     68          1           0       -5.486200    5.483561    0.110510
     69          1           0       -9.324402    0.374629    0.198170
     70          1           0       -1.368721   -3.230633    0.634641
     71          1           0        0.098078   -1.105013   -0.457419
     72          1           0        1.086316   -1.100466    1.503044
     73          1           0       -0.297140   -1.997343    2.208282
     74          1           0       -0.230016   -0.248733    2.190777
     75          1           0       -1.460540   -1.966739   -2.067400
     76          1           0       -2.714723   -3.146888   -1.484176
     77          1           0       -0.446651   -3.956163   -2.918901
     78          1           0       -1.461380   -4.943382   -1.805271
     79          1           0        0.124171    4.860098   -1.023019
     80          1           0        0.451515    3.156144   -0.544960
     81          1           0        0.307642    4.558201    0.603428
     82          1           0       -1.525412    8.029863   -0.578064
     83          1           0       -1.105125    6.760993   -1.696686
     84          1           0       -0.390632    6.685221   -0.086374
     85          1           0       -7.938003    4.844352   -0.752906
     86          1           0       -9.354175    2.834304    0.953025
     87          1           0       -7.595772    5.246019    2.233216
     88          1           0       -9.265585    5.205564    1.673657
     89          1           0       -8.112772    6.387170    0.997009
     90          1           0       -9.487117    2.375600   -1.912041
     91          1           0       -9.983635    4.000601   -1.632016
     92          1           0      -11.353806    2.169298    0.098063
     93          1           0      -11.451655    1.585287   -1.563391
     94          1           0      -12.094999    3.166590   -1.092331
     95          1           0       -9.762860   -1.606006    0.965828
     96          1           0       -9.297588   -3.295520    1.426904
     97          1           0       -9.492957   -2.826306   -0.335604
     98          1           0       -4.314127   -3.879713    2.202618
     99          1           0       -3.007440   -7.774623    0.771925
    100          1           0       -1.517492   -6.841528    0.381465
    101          1           0       -2.853924   -6.910702   -0.719225
    102          1           0        2.902437   -4.911517   -0.311611
    103          1           0        2.519934   -3.388061    0.397378
    104          1           0        3.459262   -2.643587   -2.127219
    105          1           0        6.390656   -5.098336   -0.561039
    106          1           0        5.267225   -4.489668    0.734298
    107          1           0        6.820467   -3.800585    0.360746
    108          1           0        5.664743   -2.534941   -3.041881
    109          1           0        6.877935   -3.479695   -2.425666
    110          1           0        8.058029   -1.962020   -1.459684
    111          1           0        6.693031   -1.137521   -0.752796
    112          1           0        6.290365   -0.441388   -3.416410
    113          1           0        8.070006   -0.760236   -3.365111
    114          1           0        7.232874    0.902447   -1.163596
    115          1           0        6.753747    2.639303   -3.571803
    116          1           0        6.358023    2.784604   -1.881474
    117          1           0        5.427829    1.781984   -2.929131
    118          1           0        8.962217    2.396816   -2.630648
    119          1           0        9.309261    0.943935   -3.353453
    120          1           0        9.588801    0.064622   -0.871648
    121          1           0        9.558868    1.735382   -0.461218
    122          1           0       11.520435    1.020172   -2.637838
    123          1           0       11.809354    0.161953   -1.185119
    124          1           0       11.437910    3.042267   -0.659866
    125          1           0       12.780402    3.654027   -2.272416
    126          1           0       13.366328    2.097868   -2.705293
    127          1           0       14.108161    2.963950   -1.325844
    128          1           0       13.559964    2.375254    0.696933
    129          1           0       12.834687    0.730365    0.469766
    130          1           0       10.717229    2.389714    1.315606
    131          1           0       12.127990    2.673007    2.454274
    132          1           0       11.805809   -0.046568    2.127160
    133          1           0       10.223242    0.655301    2.450884
    134          1           0       11.429695    2.078707    4.275530
    135          1           0       12.985763   -0.241807    5.291596
    136          1           0       13.369776    1.394472    4.951395
    137          1           0       13.340315    0.268475    3.618662
    138          1           0       10.113505   -0.663274    4.550650
    139          1           0        9.341847    0.836902    4.582325
    140          1           0       10.305357    0.634789    5.883329
 ---------------------------------------------------------------------

 SCF Done:  E(RCAM-B3LYP) =  -3007.16700488     A.U. after   19 cycles

 Excitation energies and oscillator strengths:

 Excited State   1:      Singlet-A      1.6626 eV  745.71 nm  f=0.3535  <S**2>=0.000
     245 -> 248       -0.17587
     246 -> 247        0.68668
     245 <- 248       -0.10935
 This state for optimization and/or second-order correction.
 Total Energy, E(TD-HF/TD-DFT) =  -3007.10590396
 Copying the excited state density for this state as the 1-particle RhoCI density.

 Excited State   2:      Singlet-A      2.2513 eV  550.73 nm  f=0.1147  <S**2>=0.000
     245 -> 247        0.63218
     246 -> 248        0.30743

 Excited State   3:      Singlet-A      3.4290 eV  361.58 nm  f=0.0422  <S**2>=0.000
     241 -> 247        0.13802
     243 -> 247        0.55961
     243 -> 249        0.14354
     243 -> 250       -0.20462
     243 -> 251        0.16907
     246 -> 248       -0.15402

 Excited State   4:      Singlet-A      3.5317 eV  351.06 nm  f=0.6757  <S**2>=0.000
     241 -> 247       -0.17612
     243 -> 247        0.19612
     245 -> 247       -0.27738
     246 -> 248        0.58220
     245 <- 247        0.10628

 Excited State   5:      Singlet-A      3.5529 eV  348.96 nm  f=0.0277  <S**2>=0.000
     244 -> 247        0.65798
     246 -> 248       -0.12841

 The electronic state is 1-A.
 Alpha  occ. eigenvalues --  -46.89045 -19.26392 -19.24154 -19.21108 -19.19128
 Alpha  occ. eigenvalues --  -19.19034 -19.17550 -14.41979 -14.41774 -14.40007
 Alpha  occ. eigenvalues --  -14.39372 -10.40554 -10.38910 -10.35291 -10.32831
 Alpha  occ. eigenvalues --  -10.32559 -10.31058 -10.30938 -10.30696 -10.30676
 Alpha  occ. eigenvalues --  -10.30667 -10.30612 -10.30031 -10.29947 -10.28860
 Alpha  occ. eigenvalues --  -10.28391 -10.28361 -10.28277 -10.28136 -10.28059
 Alpha  occ. eigenvalues --  -10.27982 -10.27969 -10.27606 -10.27489 -10.27348
 Alpha  occ. eigenvalues --  -10.27296 -10.27186 -10.27168 -10.27154 -10.26860
 Alpha  occ. eigenvalues --  -10.26678 -10.26675 -10.26662 -10.26535 -10.26440
 Alpha  occ. eigenvalues --  -10.25917 -10.25899 -10.25880 -10.25722 -10.25700
 Alpha  occ. eigenvalues --  -10.25641 -10.25568 -10.25468 -10.25422 -10.25013
 Alpha  occ. eigenvalues --  -10.24997 -10.24845 -10.24826 -10.24771 -10.24721
 Alpha  occ. eigenvalues --  -10.24711 -10.24371 -10.24288 -10.24272 -10.24090
 Alpha  occ. eigenvalues --  -10.23741  -3.17666  -1.92522  -1.92129  -1.91970
 Alpha  occ. eigenvalues --   -1.17079  -1.16323  -1.10718  -1.10173  -1.08339
 Alpha  occ. eigenvalues --   -1.07360  -1.05354  -1.03945  -1.03459  -1.02634
 Alpha  occ. eigenvalues --   -0.92728  -0.90939  -0.90081  -0.89577  -0.89112
 Alpha  occ. eigenvalues --   -0.88602  -0.88227  -0.87826  -0.87507  -0.86788
 Alpha  occ. eigenvalues --   -0.86487  -0.85527  -0.84393  -0.83333  -0.83153
 Alpha  occ. eigenvalues --   -0.82600  -0.81632  -0.81325  -0.80673  -0.80616
 Alpha  occ. eigenvalues --   -0.80098  -0.78380  -0.77784  -0.77503  -0.76403
 Alpha  occ. eigenvalues --   -0.76343  -0.76300  -0.75277  -0.74955  -0.74481
 Alpha  occ. eigenvalues --   -0.73474  -0.73002  -0.71291  -0.70385  -0.69230
 Alpha  occ. eigenvalues --   -0.68220  -0.67920  -0.66954  -0.66708  -0.65604
 Alpha  occ. eigenvalues --   -0.65462  -0.65280  -0.64856  -0.64613  -0.64340
 Alpha  occ. eigenvalues --   -0.64195  -0.63621  -0.63274  -0.62047  -0.60584
 Alpha  occ. eigenvalues --   -0.59980  -0.59724  -0.59016  -0.58555  -0.57760
 Alpha  occ. eigenvalues --   -0.56884  -0.56355  -0.56092  -0.55902  -0.55568
 Alpha  occ. eigenvalues --   -0.55359  -0.55203  -0.54707  -0.54203  -0.53989
 Alpha  occ. eigenvalues --   -0.53571  -0.53409  -0.53064  -0.52960  -0.52803
 Alpha  occ. eigenvalues --   -0.52670  -0.52415  -0.52281  -0.51882  -0.51671
 Alpha  occ. eigenvalues --   -0.51547  -0.51463  -0.51273  -0.51202  -0.50997
 Alpha  occ. eigenvalues --   -0.50713  -0.50353  -0.49962  -0.49702  -0.49543
 Alpha  occ. eigenvalues --   -0.49523  -0.49370  -0.49262  -0.49071  -0.48915
 Alpha  occ. eigenvalues --   -0.48692  -0.48467  -0.48240  -0.48093  -0.48008
 Alpha  occ. eigenvalues --   -0.47794  -0.47318  -0.47178  -0.47072  -0.46985
 Alpha  occ. eigenvalues --   -0.46773  -0.46632  -0.46405  -0.45983  -0.45979
 Alpha  occ. eigenvalues --   -0.45822  -0.45426  -0.45270  -0.45085  -0.44929
 Alpha  occ. eigenvalues --   -0.44596  -0.44516  -0.44285  -0.44183  -0.43959
 Alpha  occ. eigenvalues --   -0.43933  -0.43762  -0.43620  -0.43412  -0.43260
 Alpha  occ. eigenvalues --   -0.43101  -0.43002  -0.42575  -0.42343  -0.42186
 Alpha  occ. eigenvalues --   -0.42030  -0.41518  -0.41459  -0.41390  -0.41185
 Alpha  occ. eigenvalues --   -0.40834  -0.40469  -0.40339  -0.39970  -0.39941
 Alpha  occ. eigenvalues --   -0.39796  -0.39434  -0.39110  -0.39001  -0.38517
 Alpha  occ. eigenvalues --   -0.38486  -0.38310  -0.37958  -0.37829  -0.37504
 Alpha  occ. eigenvalues --   -0.37448  -0.37328  -0.37003  -0.36966  -0.36447
 Alpha  occ. eigenvalues --   -0.36224  -0.35740  -0.35235  -0.34913  -0.34529
 Alpha  occ. eigenvalues --   -0.34419  -0.34102  -0.32684  -0.31232  -0.30902
 Alpha  occ. eigenvalues --   -0.30457  -0.30067  -0.29989  -0.29933  -0.23850
 Alpha  occ. eigenvalues --   -0.20843
 Alpha virt. eigenvalues --   -0.08434  -0.01592   0.00810   0.01631   0.02770
 Alpha virt. eigenvalues --    0.03665   0.04909   0.05509   0.06352   0.07251
 Alpha virt. eigenvalues --    0.08169   0.08410   0.08770   0.09036   0.09287

 Mulliken charges:
               1
     1  Mg   0.832047
     2  C    0.001880
     3  C   -0.085438
     4  C   -0.031874
     5  C   -0.097938
     6  N   -0.215656
     7  C   -0.059155
     8  C   -0.044603
     9  C   -0.063911
    10  C    0.029316
    11  C    0.055958
    12  C    0.031811
    13  C    0.137481
    14  C    0.142484
    15  O   -0.255679
    16  O   -0.331564
    17  N   -0.349089
    18  C    0.133350
    19  C   -0.139148
    20  C   -0.059613
    21  C    0.125989
    22  C    0.119865
    23  C    0.013004
    24  O   -0.189681
    25  C    0.024932
    26  N   -0.288651
    27  C    0.000749
    28  C   -0.014915
    29  C   -0.038522
    30  C    0.034778
    31  C    0.064625
    32  C    0.029530
    33  C   -0.005845
    34  N   -0.373116
    35  C    0.138010
    36  C   -0.198437
    37  C    0.076749
    38  C    0.067334
    39  C    0.139839
    40  C   -0.026328
    41  O   -0.161286
    42  C    0.046063
    43  C    0.170764
    44  O   -0.214372
    45  O   -0.318025
    46  C    0.157290
    47  C    0.269359
    48  C   -0.139121
    49  C   -0.125067
    50  C    0.071437
    51  C    0.033555
    52  C    0.021438
    53  C    0.118228
    54  C   -0.116448
    55  C    0.041235
    56  C    0.020924
    57  C    0.023123
    58  C    0.092188
    59  C   -0.171214
    60  C    0.051579
    61  C    0.068992
    62  C    0.010124
    63  C    0.033846
    64  C   -0.133758
    65  C    0.071024
    66  C    0.040285
    67  H   -0.046338
    68  H   -0.003012
    69  H   -0.025511
    70  H    0.012921
    71  H    0.008986
    72  H    0.013480
    73  H    0.022442
    74  H    0.016227
    75  H    0.014825
    76  H    0.037776
    77  H    0.030109
    78  H    0.024676
    79  H    0.015941
    80  H    0.018973
    81  H    0.030174
    82  H    0.027064
    83  H    0.040154
    84  H    0.026607
    85  H    0.010556
    86  H    0.018139
    87  H    0.026480
    88  H    0.019305
    89  H    0.027650
    90  H    0.003894
    91  H    0.010038
    92  H    0.004442
    93  H    0.022620
    94  H    0.017890
    95  H    0.009499
    96  H    0.046947
    97  H    0.044680
    98  H    0.047325
    99  H    0.035340
   100  H    0.055929
   101  H    0.038545
   102  H    0.029419
   103  H    0.037336
   104  H    0.008519
   105  H    0.025050
   106  H    0.016156
   107  H    0.011301
   108  H   -0.006650
   109  H   -0.013112
   110  H    0.007444
   111  H    0.002920
   112  H   -0.004452
   113  H    0.000100
   114  H   -0.005691
   115  H    0.008204
   116  H    0.005538
   117  H   -0.005523
   118  H   -0.022723
   119  H   -0.015964
   120  H   -0.016941
   121  H   -0.002025
   122  H   -0.007758
   123  H   -0.017747
   124  H   -0.004423
   125  H    0.004794
   126  H    0.006356
   127  H    0.001774
   128  H   -0.004660
   129  H   -0.013538
   130  H    0.002389
   131  H   -0.004640
   132  H   -0.008229
   133  H   -0.020534
   134  H   -0.003223
   135  H    0.015645
   136  H   -0.002288
   137  H   -0.002906
   138  H    0.012843
   139  H   -0.010954
   140  H    0.000687
 Sum of Mulliken charges =  -0.00000

 Dipole moment (field-independent basis, Debye):
    X=              4.2025    Y=              2.7318    Z=             -2.3308  Tot=              5.5278
 Quadrupole moment (field-independent basis, Debye-Ang):
   XX=           -376.6778   YY=           -435.0496   ZZ=           -406.7426
   XY=            -31.9740   XZ=              8.7001   YZ=              2.1469

 Normal termination of Gaussian 16 at Fri Apr 29 23:46:34 2022.
