 Gaussian 16, Revision A.03,
 Gaussian 16:  ES64L-G16RevA.03 25-Dec-2016

 ---------------------------------
 #p PBE1PBE/Def2SVP td=(nstates=5)
 ---------------------------------

 ----------------------------------------------------
 step_51_chromophore_15 TDDFT with PBE1PBE functional
 ----------------------------------------------------
 Symbolic Z-matrix:
 Charge =  0 Multiplicity = 1

                         Standard orientation:
 ---------------------------------------------------------------------
 Center     Atomic      Atomic             Coordinates (Angstroms)
 Number     Number       Type             X           Y           Z
 ---------------------------------------------------------------------
      1         12           0       -4.831059    1.029187   -0.038096
      2          6           0       -4.257342   -2.366711    0.766665
      3          6           0       -1.444521    1.257161   -0.143606
      4          6           0       -5.253756    4.418753    0.181325
      5          6           0       -8.245483    0.536196    0.158066
      6          7           0       -3.107462   -0.432007    0.328476
      7          6           0       -3.086512   -1.761523    0.468328
      8          6           0       -1.685350   -2.359933    0.059845
      9          6           0       -0.753772   -1.194065    0.216663
     10          6           0       -1.838534   -0.052831    0.126033
     11          6           0        0.002051   -1.139455    1.606371
     12          6           0       -1.666910   -2.845223   -1.456650
     13          6           0       -0.808169   -4.076451   -1.897418
     14          6           0        0.423262   -4.377706   -0.975477
     15          8           0        0.372782   -4.993577    0.098654
     16          8           0        1.565894   -3.797420   -1.474350
     17          7           0       -3.501386    2.600735    0.125710
     18          6           0       -2.173552    2.513707   -0.083243
     19          6           0       -1.572708    3.797480   -0.128898
     20          6           0       -2.636947    4.717707   -0.091213
     21          6           0       -3.903134    3.890442    0.108060
     22          6           0       -0.078651    4.074788   -0.293863
     23          6           0       -2.589513    6.263212   -0.227773
     24          8           0       -3.552369    6.987514   -0.107234
     25          6           0       -1.284241    6.969868   -0.641420
     26          7           0       -6.536601    2.315488    0.361819
     27          6           0       -6.456391    3.653420    0.210961
     28          6           0       -7.826396    4.330150    0.200842
     29          6           0       -8.809434    3.058052    0.035962
     30          6           0       -7.827810    1.907843    0.072003
     31          6           0       -8.234734    5.365347    1.358185
     32          6           0       -9.869105    3.037117   -1.135170
     33          6           0      -11.272368    2.465678   -0.947738
     34          7           0       -6.008869   -0.524918    0.455319
     35          6           0       -7.413724   -0.576252    0.368257
     36          6           0       -7.887485   -1.942542    0.630628
     37          6           0       -6.702478   -2.612458    0.830583
     38          6           0       -5.543756   -1.747886    0.698446
     39          6           0       -9.228822   -2.511133    0.673887
     40          6           0       -6.144520   -3.879500    1.051008
     41          8           0       -6.747910   -4.892468    1.276975
     42          6           0       -4.634790   -3.767423    1.166524
     43          6           0       -4.087992   -4.888115    0.279485
     44          8           0       -4.265417   -5.021135   -0.905695
     45          8           0       -3.293211   -5.725736    0.978819
     46          6           0       -2.605900   -6.857294    0.341537
     47          6           0        2.708678   -3.868206   -0.562934
     48          6           0        3.855373   -3.277701   -1.334307
     49          6           0        5.215626   -3.383686   -1.128118
     50          6           0        5.926997   -4.229400   -0.092837
     51          6           0        6.209249   -2.678870   -2.109519
     52          6           0        7.098499   -1.502293   -1.697077
     53          6           0        7.185278   -0.474041   -2.795422
     54          6           0        7.378873    0.910886   -2.243681
     55          6           0        6.454149    2.064979   -2.694640
     56          6           0        8.881833    1.328241   -2.427533
     57          6           0        9.834717    1.050715   -1.263868
     58          6           0       11.318769    1.056897   -1.567573
     59          6           0       12.093967    2.200731   -0.884624
     60          6           0       13.175942    2.734047   -1.841374
     61          6           0       12.647788    1.802092    0.534829
     62          6           0       11.666352    2.025936    1.708801
     63          6           0       11.295145    0.792266    2.598424
     64          6           0       11.492354    1.007071    4.082056
     65          6           0       12.833145    0.538247    4.544899
     66          6           0       10.298507    0.374980    4.825280
     67          1           0       -0.372077    1.316546   -0.339896
     68          1           0       -5.486200    5.483561    0.110510
     69          1           0       -9.324402    0.374629    0.198170
     70          1           0       -1.368721   -3.230633    0.634641
     71          1           0        0.098078   -1.105013   -0.457419
     72          1           0        1.086316   -1.100466    1.503044
     73          1           0       -0.297140   -1.997343    2.208282
     74          1           0       -0.230016   -0.248733    2.190777
     75          1           0       -1.460540   -1.966739   -2.067400
     76          1           0       -2.714723   -3.146888   -1.484176
     77          1           0       -0.446651   -3.956163   -2.918901
     78          1           0       -1.461380   -4.943382   -1.805271
     79          1           0        0.124171    4.860098   -1.023019
     80          1           0        0.451515    3.156144   -0.544960
     81          1           0        0.307642    4.558201    0.603428
     82          1           0       -1.525412    8.029863   -0.578064
     83          1           0       -1.105125    6.760993   -1.696686
     84          1           0       -0.390632    6.685221   -0.086374
     85          1           0       -7.938003    4.844352   -0.752906
     86          1           0       -9.354175    2.834304    0.953025
     87          1           0       -7.595772    5.246019    2.233216
     88          1           0       -9.265585    5.205564    1.673657
     89          1           0       -8.112772    6.387170    0.997009
     90          1           0       -9.487117    2.375600   -1.912041
     91          1           0       -9.983635    4.000601   -1.632016
     92          1           0      -11.353806    2.169298    0.098063
     93          1           0      -11.451655    1.585287   -1.563391
     94          1           0      -12.094999    3.166590   -1.092331
     95          1           0       -9.762860   -1.606006    0.965828
     96          1           0       -9.297588   -3.295520    1.426904
     97          1           0       -9.492957   -2.826306   -0.335604
     98          1           0       -4.314127   -3.879713    2.202618
     99          1           0       -3.007440   -7.774623    0.771925
    100          1           0       -1.517492   -6.841528    0.381465
    101          1           0       -2.853924   -6.910702   -0.719225
    102          1           0        2.902437   -4.911517   -0.311611
    103          1           0        2.519934   -3.388061    0.397378
    104          1           0        3.459262   -2.643587   -2.127219
    105          1           0        6.390656   -5.098336   -0.561039
    106          1           0        5.267225   -4.489668    0.734298
    107          1           0        6.820467   -3.800585    0.360746
    108          1           0        5.664743   -2.534941   -3.041881
    109          1           0        6.877935   -3.479695   -2.425666
    110          1           0        8.058029   -1.962020   -1.459684
    111          1           0        6.693031   -1.137521   -0.752796
    112          1           0        6.290365   -0.441388   -3.416410
    113          1           0        8.070006   -0.760236   -3.365111
    114          1           0        7.232874    0.902447   -1.163596
    115          1           0        6.753747    2.639303   -3.571803
    116          1           0        6.358023    2.784604   -1.881474
    117          1           0        5.427829    1.781984   -2.929131
    118          1           0        8.962217    2.396816   -2.630648
    119          1           0        9.309261    0.943935   -3.353453
    120          1           0        9.588801    0.064622   -0.871648
    121          1           0        9.558868    1.735382   -0.461218
    122          1           0       11.520435    1.020172   -2.637838
    123          1           0       11.809354    0.161953   -1.185119
    124          1           0       11.437910    3.042267   -0.659866
    125          1           0       12.780402    3.654027   -2.272416
    126          1           0       13.366328    2.097868   -2.705293
    127          1           0       14.108161    2.963950   -1.325844
    128          1           0       13.559964    2.375254    0.696933
    129          1           0       12.834687    0.730365    0.469766
    130          1           0       10.717229    2.389714    1.315606
    131          1           0       12.127990    2.673007    2.454274
    132          1           0       11.805809   -0.046568    2.127160
    133          1           0       10.223242    0.655301    2.450884
    134          1           0       11.429695    2.078707    4.275530
    135          1           0       12.985763   -0.241807    5.291596
    136          1           0       13.369776    1.394472    4.951395
    137          1           0       13.340315    0.268475    3.618662
    138          1           0       10.113505   -0.663274    4.550650
    139          1           0        9.341847    0.836902    4.582325
    140          1           0       10.305357    0.634789    5.883329
 ---------------------------------------------------------------------

 SCF Done:  E(RPBE1PBE) =  -3005.35523109     A.U. after   15 cycles

 Excitation energies and oscillator strengths:

 Excited State   1:      Singlet-A      1.8235 eV  679.94 nm  f=0.3397  <S**2>=0.000
     245 -> 248       -0.16810
     246 -> 247        0.69366
     246 <- 247       -0.10706
 This state for optimization and/or second-order correction.
 Total Energy, E(TD-HF/TD-DFT) =  -3005.28821977
 Copying the excited state density for this state as the 1-particle RhoCI density.

 Excited State   2:      Singlet-A      2.2698 eV  546.23 nm  f=0.1180  <S**2>=0.000
     245 -> 247        0.64306
     246 -> 248        0.28270

 Excited State   3:      Singlet-A      2.8772 eV  430.92 nm  f=0.0008  <S**2>=0.000
     244 -> 247        0.67832
     244 -> 249        0.13317
     244 -> 250       -0.10145

 Excited State   4:      Singlet-A      3.1584 eV  392.55 nm  f=0.0003  <S**2>=0.000
     241 -> 247        0.65346
     241 -> 249       -0.12160
     242 -> 247       -0.17221

 Excited State   5:      Singlet-A      3.2002 eV  387.43 nm  f=0.0004  <S**2>=0.000
     241 -> 247        0.16324
     242 -> 247        0.67561

 The electronic state is 1-A.
 Alpha  occ. eigenvalues --  -46.92443 -19.27073 -19.24815 -19.21390 -19.19367
 Alpha  occ. eigenvalues --  -19.19202 -19.17759 -14.41458 -14.41306 -14.39622
 Alpha  occ. eigenvalues --  -14.39028 -10.37625 -10.35932 -10.32415 -10.29946
 Alpha  occ. eigenvalues --  -10.29942 -10.28849 -10.28664 -10.28403 -10.28394
 Alpha  occ. eigenvalues --  -10.28336 -10.27927 -10.27795 -10.27613 -10.26569
 Alpha  occ. eigenvalues --  -10.26210 -10.26077 -10.26012 -10.25866 -10.25776
 Alpha  occ. eigenvalues --  -10.25773 -10.25623 -10.25209 -10.25171 -10.25118
 Alpha  occ. eigenvalues --  -10.24912 -10.24909 -10.24817 -10.24584 -10.24512
 Alpha  occ. eigenvalues --  -10.24387 -10.24306 -10.24235 -10.23937 -10.23920
 Alpha  occ. eigenvalues --  -10.23586 -10.23312 -10.23219 -10.23195 -10.23191
 Alpha  occ. eigenvalues --  -10.23141 -10.23137 -10.23110 -10.23103 -10.22558
 Alpha  occ. eigenvalues --  -10.22427 -10.22399 -10.22340 -10.22325 -10.22281
 Alpha  occ. eigenvalues --  -10.22277 -10.21839 -10.21763 -10.21694 -10.21455
 Alpha  occ. eigenvalues --  -10.21440  -3.14641  -1.87435  -1.87022  -1.86868
 Alpha  occ. eigenvalues --   -1.11883  -1.11105  -1.05433  -1.04921  -1.03188
 Alpha  occ. eigenvalues --   -1.02204  -0.99992  -0.98609  -0.98112  -0.97309
 Alpha  occ. eigenvalues --   -0.87102  -0.85044  -0.84185  -0.83795  -0.83261
 Alpha  occ. eigenvalues --   -0.82894  -0.82372  -0.82141  -0.81790  -0.81114
 Alpha  occ. eigenvalues --   -0.80763  -0.79744  -0.78581  -0.77619  -0.77414
 Alpha  occ. eigenvalues --   -0.76837  -0.75884  -0.75571  -0.74871  -0.74799
 Alpha  occ. eigenvalues --   -0.74365  -0.72676  -0.72035  -0.71800  -0.70708
 Alpha  occ. eigenvalues --   -0.70497  -0.70420  -0.69629  -0.69115  -0.68663
 Alpha  occ. eigenvalues --   -0.67806  -0.67429  -0.65715  -0.64706  -0.63591
 Alpha  occ. eigenvalues --   -0.62561  -0.62300  -0.61395  -0.60982  -0.60046
 Alpha  occ. eigenvalues --   -0.59761  -0.59675  -0.59329  -0.59156  -0.58762
 Alpha  occ. eigenvalues --   -0.58481  -0.57729  -0.57452  -0.56647  -0.55055
 Alpha  occ. eigenvalues --   -0.54511  -0.54248  -0.53618  -0.53090  -0.52225
 Alpha  occ. eigenvalues --   -0.51523  -0.50815  -0.50595  -0.50473  -0.49954
 Alpha  occ. eigenvalues --   -0.49841  -0.49802  -0.49200  -0.48682  -0.48397
 Alpha  occ. eigenvalues --   -0.48174  -0.47905  -0.47644  -0.47559  -0.47310
 Alpha  occ. eigenvalues --   -0.47179  -0.46922  -0.46852  -0.46387  -0.46204
 Alpha  occ. eigenvalues --   -0.46048  -0.45935  -0.45766  -0.45726  -0.45631
 Alpha  occ. eigenvalues --   -0.45344  -0.44962  -0.44539  -0.44261  -0.44113
 Alpha  occ. eigenvalues --   -0.44101  -0.43967  -0.43822  -0.43664  -0.43510
 Alpha  occ. eigenvalues --   -0.43281  -0.43064  -0.42897  -0.42781  -0.42591
 Alpha  occ. eigenvalues --   -0.42406  -0.41941  -0.41843  -0.41679  -0.41632
 Alpha  occ. eigenvalues --   -0.41452  -0.41275  -0.41088  -0.40752  -0.40616
 Alpha  occ. eigenvalues --   -0.40539  -0.40078  -0.39969  -0.39828  -0.39713
 Alpha  occ. eigenvalues --   -0.39345  -0.39184  -0.39083  -0.38949  -0.38732
 Alpha  occ. eigenvalues --   -0.38677  -0.38535  -0.38329  -0.38204  -0.38116
 Alpha  occ. eigenvalues --   -0.37952  -0.37808  -0.37374  -0.37078  -0.36946
 Alpha  occ. eigenvalues --   -0.36890  -0.36417  -0.36279  -0.36185  -0.36093
 Alpha  occ. eigenvalues --   -0.35682  -0.35236  -0.35220  -0.34856  -0.34728
 Alpha  occ. eigenvalues --   -0.34684  -0.34185  -0.34066  -0.33810  -0.33451
 Alpha  occ. eigenvalues --   -0.33260  -0.33059  -0.32913  -0.32685  -0.32361
 Alpha  occ. eigenvalues --   -0.32290  -0.32267  -0.32043  -0.31825  -0.31472
 Alpha  occ. eigenvalues --   -0.31062  -0.30739  -0.30157  -0.29816  -0.29710
 Alpha  occ. eigenvalues --   -0.29319  -0.29022  -0.28221  -0.26817  -0.26043
 Alpha  occ. eigenvalues --   -0.25672  -0.25563  -0.25385  -0.24820  -0.20806
 Alpha  occ. eigenvalues --   -0.18490
 Alpha virt. eigenvalues --   -0.10916  -0.05114  -0.03008  -0.01744  -0.01445
 Alpha virt. eigenvalues --   -0.00908   0.00399   0.01135   0.01700   0.03633
 Alpha virt. eigenvalues --    0.03904   0.05103   0.05212   0.05633   0.05708

 Mulliken charges:
               1
     1  Mg   0.975220
     2  C   -0.018059
     3  C   -0.072611
     4  C   -0.019392
     5  C   -0.086161
     6  N   -0.315008
     7  C    0.016684
     8  C   -0.119464
     9  C   -0.133502
    10  C    0.058511
    11  C    0.005547
    12  C   -0.011113
    13  C    0.057804
    14  C    0.203063
    15  O   -0.287117
    16  O   -0.362117
    17  N   -0.471491
    18  C    0.157457
    19  C   -0.163571
    20  C   -0.109534
    21  C    0.159757
    22  C    0.059522
    23  C    0.063817
    24  O   -0.226433
    25  C   -0.050991
    26  N   -0.384546
    27  C    0.032064
    28  C   -0.089746
    29  C   -0.111796
    30  C    0.068820
    31  C    0.003284
    32  C   -0.030174
    33  C   -0.077553
    34  N   -0.505696
    35  C    0.153750
    36  C   -0.210683
    37  C    0.011522
    38  C    0.133303
    39  C    0.081642
    40  C    0.078242
    41  O   -0.208554
    42  C   -0.065294
    43  C    0.264592
    44  O   -0.251246
    45  O   -0.353729
    46  C    0.103763
    47  C    0.232010
    48  C   -0.152580
    49  C   -0.173075
    50  C    0.011193
    51  C   -0.022442
    52  C   -0.043513
    53  C    0.059530
    54  C   -0.205609
    55  C   -0.017876
    56  C   -0.029079
    57  C   -0.044298
    58  C    0.040042
    59  C   -0.259378
    60  C   -0.007202
    61  C    0.016598
    62  C   -0.052415
    63  C   -0.022750
    64  C   -0.231708
    65  C    0.015114
    66  C   -0.023097
    67  H   -0.012434
    68  H    0.028544
    69  H    0.007985
    70  H    0.051750
    71  H    0.043639
    72  H    0.040290
    73  H    0.049329
    74  H    0.043883
    75  H    0.046148
    76  H    0.075112
    77  H    0.061654
    78  H    0.060898
    79  H    0.044044
    80  H    0.046872
    81  H    0.058551
    82  H    0.054941
    83  H    0.067439
    84  H    0.052533
    85  H    0.049653
    86  H    0.056863
    87  H    0.054268
    88  H    0.046693
    89  H    0.054076
    90  H    0.037748
    91  H    0.042007
    92  H    0.031301
    93  H    0.049383
    94  H    0.045763
    95  H    0.037943
    96  H    0.073684
    97  H    0.072650
    98  H    0.084131
    99  H    0.058193
   100  H    0.078375
   101  H    0.058146
   102  H    0.055906
   103  H    0.064210
   104  H    0.037849
   105  H    0.052468
   106  H    0.043210
   107  H    0.038607
   108  H    0.024131
   109  H    0.021379
   110  H    0.038788
   111  H    0.035711
   112  H    0.027693
   113  H    0.033405
   114  H    0.032992
   115  H    0.035286
   116  H    0.033464
   117  H    0.022423
   118  H    0.011166
   119  H    0.015995
   120  H    0.019094
   121  H    0.031715
   122  H    0.023534
   123  H    0.015040
   124  H    0.034528
   125  H    0.032925
   126  H    0.033177
   127  H    0.028599
   128  H    0.027461
   129  H    0.018554
   130  H    0.034771
   131  H    0.029190
   132  H    0.023512
   133  H    0.013798
   134  H    0.034576
   135  H    0.041810
   136  H    0.025266
   137  H    0.025720
   138  H    0.040704
   139  H    0.017815
   140  H    0.029216
 Sum of Mulliken charges =  -0.00000

 Dipole moment (field-independent basis, Debye):
    X=              4.1323    Y=              2.7279    Z=             -2.3593  Tot=              5.4849
 Quadrupole moment (field-independent basis, Debye-Ang):
   XX=           -370.5953   YY=           -432.1657   ZZ=           -404.3317
   XY=            -32.7846   XZ=              8.7821   YZ=              1.9756

 Normal termination of Gaussian 16 at Sat Apr 30 00:02:38 2022.
