 Gaussian 16, Revision A.03,
 Gaussian 16:  ES64L-G16RevA.03 25-Dec-2016

 --------------------------------
 #p wB97XD/Def2SVP td=(nstates=5)
 --------------------------------

 ---------------------------------------------------
 step_51_chromophore_15 TDDFT with wB97XD functional
 ---------------------------------------------------
 Symbolic Z-matrix:
 Charge =  0 Multiplicity = 1

                         Standard orientation:
 ---------------------------------------------------------------------
 Center     Atomic      Atomic             Coordinates (Angstroms)
 Number     Number       Type             X           Y           Z
 ---------------------------------------------------------------------
      1         12           0       -4.831059    1.029187   -0.038096
      2          6           0       -4.257342   -2.366711    0.766665
      3          6           0       -1.444521    1.257161   -0.143606
      4          6           0       -5.253756    4.418753    0.181325
      5          6           0       -8.245483    0.536196    0.158066
      6          7           0       -3.107462   -0.432007    0.328476
      7          6           0       -3.086512   -1.761523    0.468328
      8          6           0       -1.685350   -2.359933    0.059845
      9          6           0       -0.753772   -1.194065    0.216663
     10          6           0       -1.838534   -0.052831    0.126033
     11          6           0        0.002051   -1.139455    1.606371
     12          6           0       -1.666910   -2.845223   -1.456650
     13          6           0       -0.808169   -4.076451   -1.897418
     14          6           0        0.423262   -4.377706   -0.975477
     15          8           0        0.372782   -4.993577    0.098654
     16          8           0        1.565894   -3.797420   -1.474350
     17          7           0       -3.501386    2.600735    0.125710
     18          6           0       -2.173552    2.513707   -0.083243
     19          6           0       -1.572708    3.797480   -0.128898
     20          6           0       -2.636947    4.717707   -0.091213
     21          6           0       -3.903134    3.890442    0.108060
     22          6           0       -0.078651    4.074788   -0.293863
     23          6           0       -2.589513    6.263212   -0.227773
     24          8           0       -3.552369    6.987514   -0.107234
     25          6           0       -1.284241    6.969868   -0.641420
     26          7           0       -6.536601    2.315488    0.361819
     27          6           0       -6.456391    3.653420    0.210961
     28          6           0       -7.826396    4.330150    0.200842
     29          6           0       -8.809434    3.058052    0.035962
     30          6           0       -7.827810    1.907843    0.072003
     31          6           0       -8.234734    5.365347    1.358185
     32          6           0       -9.869105    3.037117   -1.135170
     33          6           0      -11.272368    2.465678   -0.947738
     34          7           0       -6.008869   -0.524918    0.455319
     35          6           0       -7.413724   -0.576252    0.368257
     36          6           0       -7.887485   -1.942542    0.630628
     37          6           0       -6.702478   -2.612458    0.830583
     38          6           0       -5.543756   -1.747886    0.698446
     39          6           0       -9.228822   -2.511133    0.673887
     40          6           0       -6.144520   -3.879500    1.051008
     41          8           0       -6.747910   -4.892468    1.276975
     42          6           0       -4.634790   -3.767423    1.166524
     43          6           0       -4.087992   -4.888115    0.279485
     44          8           0       -4.265417   -5.021135   -0.905695
     45          8           0       -3.293211   -5.725736    0.978819
     46          6           0       -2.605900   -6.857294    0.341537
     47          6           0        2.708678   -3.868206   -0.562934
     48          6           0        3.855373   -3.277701   -1.334307
     49          6           0        5.215626   -3.383686   -1.128118
     50          6           0        5.926997   -4.229400   -0.092837
     51          6           0        6.209249   -2.678870   -2.109519
     52          6           0        7.098499   -1.502293   -1.697077
     53          6           0        7.185278   -0.474041   -2.795422
     54          6           0        7.378873    0.910886   -2.243681
     55          6           0        6.454149    2.064979   -2.694640
     56          6           0        8.881833    1.328241   -2.427533
     57          6           0        9.834717    1.050715   -1.263868
     58          6           0       11.318769    1.056897   -1.567573
     59          6           0       12.093967    2.200731   -0.884624
     60          6           0       13.175942    2.734047   -1.841374
     61          6           0       12.647788    1.802092    0.534829
     62          6           0       11.666352    2.025936    1.708801
     63          6           0       11.295145    0.792266    2.598424
     64          6           0       11.492354    1.007071    4.082056
     65          6           0       12.833145    0.538247    4.544899
     66          6           0       10.298507    0.374980    4.825280
     67          1           0       -0.372077    1.316546   -0.339896
     68          1           0       -5.486200    5.483561    0.110510
     69          1           0       -9.324402    0.374629    0.198170
     70          1           0       -1.368721   -3.230633    0.634641
     71          1           0        0.098078   -1.105013   -0.457419
     72          1           0        1.086316   -1.100466    1.503044
     73          1           0       -0.297140   -1.997343    2.208282
     74          1           0       -0.230016   -0.248733    2.190777
     75          1           0       -1.460540   -1.966739   -2.067400
     76          1           0       -2.714723   -3.146888   -1.484176
     77          1           0       -0.446651   -3.956163   -2.918901
     78          1           0       -1.461380   -4.943382   -1.805271
     79          1           0        0.124171    4.860098   -1.023019
     80          1           0        0.451515    3.156144   -0.544960
     81          1           0        0.307642    4.558201    0.603428
     82          1           0       -1.525412    8.029863   -0.578064
     83          1           0       -1.105125    6.760993   -1.696686
     84          1           0       -0.390632    6.685221   -0.086374
     85          1           0       -7.938003    4.844352   -0.752906
     86          1           0       -9.354175    2.834304    0.953025
     87          1           0       -7.595772    5.246019    2.233216
     88          1           0       -9.265585    5.205564    1.673657
     89          1           0       -8.112772    6.387170    0.997009
     90          1           0       -9.487117    2.375600   -1.912041
     91          1           0       -9.983635    4.000601   -1.632016
     92          1           0      -11.353806    2.169298    0.098063
     93          1           0      -11.451655    1.585287   -1.563391
     94          1           0      -12.094999    3.166590   -1.092331
     95          1           0       -9.762860   -1.606006    0.965828
     96          1           0       -9.297588   -3.295520    1.426904
     97          1           0       -9.492957   -2.826306   -0.335604
     98          1           0       -4.314127   -3.879713    2.202618
     99          1           0       -3.007440   -7.774623    0.771925
    100          1           0       -1.517492   -6.841528    0.381465
    101          1           0       -2.853924   -6.910702   -0.719225
    102          1           0        2.902437   -4.911517   -0.311611
    103          1           0        2.519934   -3.388061    0.397378
    104          1           0        3.459262   -2.643587   -2.127219
    105          1           0        6.390656   -5.098336   -0.561039
    106          1           0        5.267225   -4.489668    0.734298
    107          1           0        6.820467   -3.800585    0.360746
    108          1           0        5.664743   -2.534941   -3.041881
    109          1           0        6.877935   -3.479695   -2.425666
    110          1           0        8.058029   -1.962020   -1.459684
    111          1           0        6.693031   -1.137521   -0.752796
    112          1           0        6.290365   -0.441388   -3.416410
    113          1           0        8.070006   -0.760236   -3.365111
    114          1           0        7.232874    0.902447   -1.163596
    115          1           0        6.753747    2.639303   -3.571803
    116          1           0        6.358023    2.784604   -1.881474
    117          1           0        5.427829    1.781984   -2.929131
    118          1           0        8.962217    2.396816   -2.630648
    119          1           0        9.309261    0.943935   -3.353453
    120          1           0        9.588801    0.064622   -0.871648
    121          1           0        9.558868    1.735382   -0.461218
    122          1           0       11.520435    1.020172   -2.637838
    123          1           0       11.809354    0.161953   -1.185119
    124          1           0       11.437910    3.042267   -0.659866
    125          1           0       12.780402    3.654027   -2.272416
    126          1           0       13.366328    2.097868   -2.705293
    127          1           0       14.108161    2.963950   -1.325844
    128          1           0       13.559964    2.375254    0.696933
    129          1           0       12.834687    0.730365    0.469766
    130          1           0       10.717229    2.389714    1.315606
    131          1           0       12.127990    2.673007    2.454274
    132          1           0       11.805809   -0.046568    2.127160
    133          1           0       10.223242    0.655301    2.450884
    134          1           0       11.429695    2.078707    4.275530
    135          1           0       12.985763   -0.241807    5.291596
    136          1           0       13.369776    1.394472    4.951395
    137          1           0       13.340315    0.268475    3.618662
    138          1           0       10.113505   -0.663274    4.550650
    139          1           0        9.341847    0.836902    4.582325
    140          1           0       10.305357    0.634789    5.883329
 ---------------------------------------------------------------------

 SCF Done:  E(RwB97XD) =  -3007.86363356     A.U. after   19 cycles

 Excitation energies and oscillator strengths:

 Excited State   1:      Singlet-A      1.6035 eV  773.20 nm  f=0.3523  <S**2>=0.000
     245 -> 248       -0.18177
     246 -> 247        0.68454
     245 <- 248       -0.11923
 This state for optimization and/or second-order correction.
 Total Energy, E(TD-HF/TD-DFT) =  -3007.80470497
 Copying the excited state density for this state as the 1-particle RhoCI density.

 Excited State   2:      Singlet-A      2.1951 eV  564.83 nm  f=0.1127  <S**2>=0.000
     245 -> 247        0.63080
     246 -> 248        0.30927

 Excited State   3:      Singlet-A      3.4529 eV  359.07 nm  f=0.0485  <S**2>=0.000
     244 -> 247        0.55549
     244 -> 249        0.25347
     244 -> 250       -0.14277
     244 -> 251        0.16684
     246 -> 248        0.16120

 Excited State   4:      Singlet-A      3.5465 eV  349.60 nm  f=0.7034  <S**2>=0.000
     241 -> 247       -0.19518
     244 -> 247       -0.17318
     245 -> 247       -0.27714
     246 -> 248        0.58790
     245 <- 247        0.11269

 Excited State   5:      Singlet-A      3.5752 eV  346.79 nm  f=0.0009  <S**2>=0.000
     241 -> 247       -0.12467
     242 -> 247        0.59344
     243 -> 247       -0.30909

 The electronic state is 1-A.
 Alpha  occ. eigenvalues --  -46.95404 -19.31613 -19.29381 -19.26035 -19.24074
 Alpha  occ. eigenvalues --  -19.24044 -19.22583 -14.46573 -14.46356 -14.44579
 Alpha  occ. eigenvalues --  -14.43958 -10.44380 -10.42762 -10.39266 -10.36801
 Alpha  occ. eigenvalues --  -10.36433 -10.35073 -10.35005 -10.34719 -10.34681
 Alpha  occ. eigenvalues --  -10.34647 -10.34441 -10.34076 -10.33986 -10.32873
 Alpha  occ. eigenvalues --  -10.32436 -10.32414 -10.32198 -10.32193 -10.32132
 Alpha  occ. eigenvalues --  -10.32100 -10.32026 -10.31632 -10.31595 -10.31442
 Alpha  occ. eigenvalues --  -10.31351 -10.31302 -10.31152 -10.31114 -10.30951
 Alpha  occ. eigenvalues --  -10.30727 -10.30640 -10.30598 -10.30369 -10.30293
 Alpha  occ. eigenvalues --  -10.29874 -10.29795 -10.29770 -10.29599 -10.29562
 Alpha  occ. eigenvalues --  -10.29519 -10.29496 -10.29404 -10.29402 -10.28937
 Alpha  occ. eigenvalues --  -10.28836 -10.28782 -10.28746 -10.28701 -10.28655
 Alpha  occ. eigenvalues --  -10.28643 -10.28199 -10.28188 -10.28117 -10.27875
 Alpha  occ. eigenvalues --  -10.27766  -3.21462  -1.95006  -1.94592  -1.94433
 Alpha  occ. eigenvalues --   -1.19245  -1.18494  -1.12930  -1.12395  -1.10519
 Alpha  occ. eigenvalues --   -1.09563  -1.07358  -1.05973  -1.05478  -1.04668
 Alpha  occ. eigenvalues --   -0.94713  -0.92714  -0.91849  -0.91421  -0.90922
 Alpha  occ. eigenvalues --   -0.90495  -0.90027  -0.89736  -0.89441  -0.88701
 Alpha  occ. eigenvalues --   -0.88422  -0.87396  -0.86241  -0.85221  -0.85045
 Alpha  occ. eigenvalues --   -0.84478  -0.83530  -0.83224  -0.82568  -0.82472
 Alpha  occ. eigenvalues --   -0.82049  -0.80309  -0.79694  -0.79426  -0.78326
 Alpha  occ. eigenvalues --   -0.78169  -0.78115  -0.77210  -0.76787  -0.76322
 Alpha  occ. eigenvalues --   -0.75399  -0.74981  -0.73256  -0.72314  -0.71140
 Alpha  occ. eigenvalues --   -0.70145  -0.69876  -0.68941  -0.68603  -0.67543
 Alpha  occ. eigenvalues --   -0.67330  -0.67216  -0.66795  -0.66608  -0.66201
 Alpha  occ. eigenvalues --   -0.66152  -0.65417  -0.65099  -0.64039  -0.62536
 Alpha  occ. eigenvalues --   -0.61969  -0.61701  -0.61013  -0.60519  -0.59723
 Alpha  occ. eigenvalues --   -0.58887  -0.58254  -0.58022  -0.57875  -0.57430
 Alpha  occ. eigenvalues --   -0.57267  -0.57205  -0.56614  -0.56114  -0.55840
 Alpha  occ. eigenvalues --   -0.55501  -0.55308  -0.55000  -0.54880  -0.54713
 Alpha  occ. eigenvalues --   -0.54564  -0.54301  -0.54208  -0.53793  -0.53581
 Alpha  occ. eigenvalues --   -0.53440  -0.53351  -0.53213  -0.53094  -0.52917
 Alpha  occ. eigenvalues --   -0.52644  -0.52276  -0.51857  -0.51635  -0.51480
 Alpha  occ. eigenvalues --   -0.51429  -0.51272  -0.51188  -0.51030  -0.50820
 Alpha  occ. eigenvalues --   -0.50605  -0.50374  -0.50153  -0.50010  -0.49886
 Alpha  occ. eigenvalues --   -0.49689  -0.49210  -0.49074  -0.48925  -0.48884
 Alpha  occ. eigenvalues --   -0.48687  -0.48591  -0.48355  -0.47895  -0.47805
 Alpha  occ. eigenvalues --   -0.47735  -0.47300  -0.47173  -0.46981  -0.46854
 Alpha  occ. eigenvalues --   -0.46507  -0.46392  -0.46220  -0.46091  -0.45874
 Alpha  occ. eigenvalues --   -0.45840  -0.45680  -0.45507  -0.45316  -0.45170
 Alpha  occ. eigenvalues --   -0.45015  -0.44904  -0.44509  -0.44367  -0.44059
 Alpha  occ. eigenvalues --   -0.43963  -0.43455  -0.43332  -0.43259  -0.43110
 Alpha  occ. eigenvalues --   -0.42726  -0.42323  -0.42228  -0.41913  -0.41808
 Alpha  occ. eigenvalues --   -0.41714  -0.41267  -0.41040  -0.40867  -0.40452
 Alpha  occ. eigenvalues --   -0.40316  -0.40148  -0.39956  -0.39689  -0.39338
 Alpha  occ. eigenvalues --   -0.39294  -0.39274  -0.38933  -0.38821  -0.38526
 Alpha  occ. eigenvalues --   -0.38068  -0.37769  -0.37075  -0.36756  -0.36518
 Alpha  occ. eigenvalues --   -0.36335  -0.36077  -0.34938  -0.33412  -0.32873
 Alpha  occ. eigenvalues --   -0.32614  -0.32119  -0.32104  -0.31954  -0.25763
 Alpha  occ. eigenvalues --   -0.22658
 Alpha virt. eigenvalues --   -0.06785   0.00326   0.03234   0.04428   0.04922
 Alpha virt. eigenvalues --    0.05909   0.07130   0.07863   0.08531   0.10275
 Alpha virt. eigenvalues --    0.10605   0.11545   0.12020   0.12335   0.12477

 Mulliken charges:
               1
     1  Mg   0.966361
     2  C   -0.019020
     3  C   -0.090895
     4  C   -0.038167
     5  C   -0.102748
     6  N   -0.281277
     7  C   -0.017745
     8  C   -0.089116
     9  C   -0.111899
    10  C    0.047867
    11  C    0.012122
    12  C   -0.002251
    13  C    0.081486
    14  C    0.189875
    15  O   -0.283629
    16  O   -0.360853
    17  N   -0.435397
    18  C    0.149971
    19  C   -0.155969
    20  C   -0.103032
    21  C    0.149869
    22  C    0.073175
    23  C    0.059971
    24  O   -0.221394
    25  C   -0.037721
    26  N   -0.354942
    27  C    0.019032
    28  C   -0.066464
    29  C   -0.084938
    30  C    0.057812
    31  C    0.015433
    32  C   -0.018085
    33  C   -0.061585
    34  N   -0.466676
    35  C    0.148631
    36  C   -0.206780
    37  C    0.022793
    38  C    0.110687
    39  C    0.094100
    40  C    0.055493
    41  O   -0.198873
    42  C   -0.023574
    43  C    0.236306
    44  O   -0.243808
    45  O   -0.350499
    46  C    0.120179
    47  C    0.243283
    48  C   -0.158846
    49  C   -0.159893
    50  C    0.022688
    51  C   -0.003837
    52  C   -0.026541
    53  C    0.073625
    54  C   -0.174283
    55  C   -0.005853
    56  C   -0.014026
    57  C   -0.020406
    58  C    0.053075
    59  C   -0.227131
    60  C    0.005473
    61  C    0.032839
    62  C   -0.034423
    63  C   -0.005138
    64  C   -0.199099
    65  C    0.022212
    66  C   -0.009800
    67  H   -0.021618
    68  H    0.025298
    69  H   -0.000994
    70  H    0.036894
    71  H    0.035714
    72  H    0.035229
    73  H    0.043854
    74  H    0.038075
    75  H    0.038950
    76  H    0.061043
    77  H    0.057999
    78  H    0.049544
    79  H    0.037110
    80  H    0.043038
    81  H    0.053395
    82  H    0.053461
    83  H    0.062301
    84  H    0.047025
    85  H    0.038488
    86  H    0.042879
    87  H    0.048306
    88  H    0.041177
    89  H    0.048927
    90  H    0.028294
    91  H    0.035161
    92  H    0.023420
    93  H    0.044231
    94  H    0.041053
    95  H    0.029928
    96  H    0.071147
    97  H    0.068763
    98  H    0.079161
    99  H    0.055148
   100  H    0.073412
   101  H    0.053785
   102  H    0.050348
   103  H    0.059204
   104  H    0.034712
   105  H    0.046943
   106  H    0.038432
   107  H    0.033304
   108  H    0.015391
   109  H    0.012367
   110  H    0.031101
   111  H    0.025364
   112  H    0.018989
   113  H    0.024647
   114  H    0.018631
   115  H    0.029129
   116  H    0.027592
   117  H    0.016739
   118  H    0.001388
   119  H    0.005553
   120  H    0.006066
   121  H    0.018299
   122  H    0.014196
   123  H    0.005991
   124  H    0.020061
   125  H    0.027046
   126  H    0.026884
   127  H    0.022824
   128  H    0.019904
   129  H    0.005025
   130  H    0.023508
   131  H    0.019052
   132  H    0.012766
   133  H    0.003697
   134  H    0.023234
   135  H    0.037953
   136  H    0.019990
   137  H    0.017284
   138  H    0.034464
   139  H    0.010601
   140  H    0.023983
 Sum of Mulliken charges =  -0.00000

 Dipole moment (field-independent basis, Debye):
    X=              4.2596    Y=              2.7911    Z=             -2.3967  Tot=              5.6283
 Quadrupole moment (field-independent basis, Debye-Ang):
   XX=           -371.4931   YY=           -430.9048   ZZ=           -403.8808
   XY=            -32.0857   XZ=              8.9497   YZ=              1.7804

 Normal termination of Gaussian 16 at Sat Apr 30 00:31:44 2022.
