 Gaussian 16, Revision A.03,
 Gaussian 16:  ES64L-G16RevA.03 25-Dec-2016

 --------------------
 #p ZINDO=(nstates=5)
 --------------------

 ----------------------------
 step_51_chromophore_15 ZINDO
 ----------------------------
 Symbolic Z-matrix:
 Charge =  0 Multiplicity = 1

                         Standard orientation:
 ---------------------------------------------------------------------
 Center     Atomic      Atomic             Coordinates (Angstroms)
 Number     Number       Type             X           Y           Z
 ---------------------------------------------------------------------
      1         12           0       -4.831059    1.029187   -0.038096
      2          6           0       -4.257342   -2.366711    0.766665
      3          6           0       -1.444521    1.257161   -0.143606
      4          6           0       -5.253756    4.418753    0.181325
      5          6           0       -8.245483    0.536196    0.158066
      6          7           0       -3.107462   -0.432007    0.328476
      7          6           0       -3.086512   -1.761523    0.468328
      8          6           0       -1.685350   -2.359933    0.059845
      9          6           0       -0.753772   -1.194065    0.216663
     10          6           0       -1.838534   -0.052831    0.126033
     11          6           0        0.002051   -1.139455    1.606371
     12          6           0       -1.666910   -2.845223   -1.456650
     13          6           0       -0.808169   -4.076451   -1.897418
     14          6           0        0.423262   -4.377706   -0.975477
     15          8           0        0.372782   -4.993577    0.098654
     16          8           0        1.565894   -3.797420   -1.474350
     17          7           0       -3.501386    2.600735    0.125710
     18          6           0       -2.173552    2.513707   -0.083243
     19          6           0       -1.572708    3.797480   -0.128898
     20          6           0       -2.636947    4.717707   -0.091213
     21          6           0       -3.903134    3.890442    0.108060
     22          6           0       -0.078651    4.074788   -0.293863
     23          6           0       -2.589513    6.263212   -0.227773
     24          8           0       -3.552369    6.987514   -0.107234
     25          6           0       -1.284241    6.969868   -0.641420
     26          7           0       -6.536601    2.315488    0.361819
     27          6           0       -6.456391    3.653420    0.210961
     28          6           0       -7.826396    4.330150    0.200842
     29          6           0       -8.809434    3.058052    0.035962
     30          6           0       -7.827810    1.907843    0.072003
     31          6           0       -8.234734    5.365347    1.358185
     32          6           0       -9.869105    3.037117   -1.135170
     33          6           0      -11.272368    2.465678   -0.947738
     34          7           0       -6.008869   -0.524918    0.455319
     35          6           0       -7.413724   -0.576252    0.368257
     36          6           0       -7.887485   -1.942542    0.630628
     37          6           0       -6.702478   -2.612458    0.830583
     38          6           0       -5.543756   -1.747886    0.698446
     39          6           0       -9.228822   -2.511133    0.673887
     40          6           0       -6.144520   -3.879500    1.051008
     41          8           0       -6.747910   -4.892468    1.276975
     42          6           0       -4.634790   -3.767423    1.166524
     43          6           0       -4.087992   -4.888115    0.279485
     44          8           0       -4.265417   -5.021135   -0.905695
     45          8           0       -3.293211   -5.725736    0.978819
     46          6           0       -2.605900   -6.857294    0.341537
     47          6           0        2.708678   -3.868206   -0.562934
     48          6           0        3.855373   -3.277701   -1.334307
     49          6           0        5.215626   -3.383686   -1.128118
     50          6           0        5.926997   -4.229400   -0.092837
     51          6           0        6.209249   -2.678870   -2.109519
     52          6           0        7.098499   -1.502293   -1.697077
     53          6           0        7.185278   -0.474041   -2.795422
     54          6           0        7.378873    0.910886   -2.243681
     55          6           0        6.454149    2.064979   -2.694640
     56          6           0        8.881833    1.328241   -2.427533
     57          6           0        9.834717    1.050715   -1.263868
     58          6           0       11.318769    1.056897   -1.567573
     59          6           0       12.093967    2.200731   -0.884624
     60          6           0       13.175942    2.734047   -1.841374
     61          6           0       12.647788    1.802092    0.534829
     62          6           0       11.666352    2.025936    1.708801
     63          6           0       11.295145    0.792266    2.598424
     64          6           0       11.492354    1.007071    4.082056
     65          6           0       12.833145    0.538247    4.544899
     66          6           0       10.298507    0.374980    4.825280
     67          1           0       -0.372077    1.316546   -0.339896
     68          1           0       -5.486200    5.483561    0.110510
     69          1           0       -9.324402    0.374629    0.198170
     70          1           0       -1.368721   -3.230633    0.634641
     71          1           0        0.098078   -1.105013   -0.457419
     72          1           0        1.086316   -1.100466    1.503044
     73          1           0       -0.297140   -1.997343    2.208282
     74          1           0       -0.230016   -0.248733    2.190777
     75          1           0       -1.460540   -1.966739   -2.067400
     76          1           0       -2.714723   -3.146888   -1.484176
     77          1           0       -0.446651   -3.956163   -2.918901
     78          1           0       -1.461380   -4.943382   -1.805271
     79          1           0        0.124171    4.860098   -1.023019
     80          1           0        0.451515    3.156144   -0.544960
     81          1           0        0.307642    4.558201    0.603428
     82          1           0       -1.525412    8.029863   -0.578064
     83          1           0       -1.105125    6.760993   -1.696686
     84          1           0       -0.390632    6.685221   -0.086374
     85          1           0       -7.938003    4.844352   -0.752906
     86          1           0       -9.354175    2.834304    0.953025
     87          1           0       -7.595772    5.246019    2.233216
     88          1           0       -9.265585    5.205564    1.673657
     89          1           0       -8.112772    6.387170    0.997009
     90          1           0       -9.487117    2.375600   -1.912041
     91          1           0       -9.983635    4.000601   -1.632016
     92          1           0      -11.353806    2.169298    0.098063
     93          1           0      -11.451655    1.585287   -1.563391
     94          1           0      -12.094999    3.166590   -1.092331
     95          1           0       -9.762860   -1.606006    0.965828
     96          1           0       -9.297588   -3.295520    1.426904
     97          1           0       -9.492957   -2.826306   -0.335604
     98          1           0       -4.314127   -3.879713    2.202618
     99          1           0       -3.007440   -7.774623    0.771925
    100          1           0       -1.517492   -6.841528    0.381465
    101          1           0       -2.853924   -6.910702   -0.719225
    102          1           0        2.902437   -4.911517   -0.311611
    103          1           0        2.519934   -3.388061    0.397378
    104          1           0        3.459262   -2.643587   -2.127219
    105          1           0        6.390656   -5.098336   -0.561039
    106          1           0        5.267225   -4.489668    0.734298
    107          1           0        6.820467   -3.800585    0.360746
    108          1           0        5.664743   -2.534941   -3.041881
    109          1           0        6.877935   -3.479695   -2.425666
    110          1           0        8.058029   -1.962020   -1.459684
    111          1           0        6.693031   -1.137521   -0.752796
    112          1           0        6.290365   -0.441388   -3.416410
    113          1           0        8.070006   -0.760236   -3.365111
    114          1           0        7.232874    0.902447   -1.163596
    115          1           0        6.753747    2.639303   -3.571803
    116          1           0        6.358023    2.784604   -1.881474
    117          1           0        5.427829    1.781984   -2.929131
    118          1           0        8.962217    2.396816   -2.630648
    119          1           0        9.309261    0.943935   -3.353453
    120          1           0        9.588801    0.064622   -0.871648
    121          1           0        9.558868    1.735382   -0.461218
    122          1           0       11.520435    1.020172   -2.637838
    123          1           0       11.809354    0.161953   -1.185119
    124          1           0       11.437910    3.042267   -0.659866
    125          1           0       12.780402    3.654027   -2.272416
    126          1           0       13.366328    2.097868   -2.705293
    127          1           0       14.108161    2.963950   -1.325844
    128          1           0       13.559964    2.375254    0.696933
    129          1           0       12.834687    0.730365    0.469766
    130          1           0       10.717229    2.389714    1.315606
    131          1           0       12.127990    2.673007    2.454274
    132          1           0       11.805809   -0.046568    2.127160
    133          1           0       10.223242    0.655301    2.450884
    134          1           0       11.429695    2.078707    4.275530
    135          1           0       12.985763   -0.241807    5.291596
    136          1           0       13.369776    1.394472    4.951395
    137          1           0       13.340315    0.268475    3.618662
    138          1           0       10.113505   -0.663274    4.550650
    139          1           0        9.341847    0.836902    4.582325
    140          1           0       10.305357    0.634789    5.883329
 ---------------------------------------------------------------------

 SCF Done:  E(RZINDO/S) =  -474.414716516     A.U. after   20 cycles

 Excitation energies and oscillator strengths:

 Excited State   1:      Singlet-A      1.2140 eV 1021.30 nm  f=0.5666  <S**2>=0.000
     175 ->178         0.19432
     176 ->177         0.66201
 This state for optimization and/or second-order correction.
 Total Energy, E(CIS/TDA) =  -474.370103277
 Copying the excited state density for this state as the 1-particle RhoCI density.

 Excited State   2:      Singlet-A      1.9030 eV  651.52 nm  f=0.0381  <S**2>=0.000
     175 ->177         0.54288
     176 ->178        -0.43156

 Excited State   3:      Singlet-A      2.8365 eV  437.11 nm  f=0.0213  <S**2>=0.000
     169 ->177        -0.11515
     169 ->179         0.13502
     170 ->177         0.34395
     170 ->179        -0.35986
     170 ->180         0.11445
     170 ->182         0.20942
     170 ->186        -0.16683

 Excited State   4:      Singlet-A      2.8964 eV  428.07 nm  f=0.0043  <S**2>=0.000
     176 ->179         0.29443
     176 ->180         0.63107

 Excited State   5:      Singlet-A      3.0139 eV  411.38 nm  f=1.2072  <S**2>=0.000
     175 ->177         0.39465
     176 ->178         0.51331
     176 ->179         0.15287
     176 ->182         0.11135

 The electronic state is 1-A.
 Alpha  occ. eigenvalues --   -1.85696  -1.81221  -1.79530  -1.73168  -1.72855
 Alpha  occ. eigenvalues --   -1.70668  -1.66484  -1.62397  -1.60957  -1.58762
 Alpha  occ. eigenvalues --   -1.56383  -1.50933  -1.49083  -1.47828  -1.46211
 Alpha  occ. eigenvalues --   -1.44467  -1.41834  -1.39050  -1.37908  -1.37325
 Alpha  occ. eigenvalues --   -1.36050  -1.35732  -1.32993  -1.31318  -1.29713
 Alpha  occ. eigenvalues --   -1.28264  -1.24078  -1.21554  -1.20258  -1.18337
 Alpha  occ. eigenvalues --   -1.18198  -1.17593  -1.15181  -1.14354  -1.12743
 Alpha  occ. eigenvalues --   -1.12491  -1.10677  -1.09735  -1.05459  -1.04481
 Alpha  occ. eigenvalues --   -1.03491  -1.01300  -0.98622  -0.97790  -0.96800
 Alpha  occ. eigenvalues --   -0.95903  -0.94488  -0.93927  -0.92778  -0.91725
 Alpha  occ. eigenvalues --   -0.90931  -0.89877  -0.89653  -0.89024  -0.88020
 Alpha  occ. eigenvalues --   -0.86734  -0.85312  -0.83438  -0.82833  -0.80085
 Alpha  occ. eigenvalues --   -0.79758  -0.79042  -0.78275  -0.76894  -0.75873
 Alpha  occ. eigenvalues --   -0.75071  -0.74440  -0.74114  -0.73820  -0.72944
 Alpha  occ. eigenvalues --   -0.72338  -0.71918  -0.71790  -0.71147  -0.70753
 Alpha  occ. eigenvalues --   -0.70447  -0.69107  -0.68717  -0.68241  -0.67469
 Alpha  occ. eigenvalues --   -0.67116  -0.66677  -0.66285  -0.66035  -0.65469
 Alpha  occ. eigenvalues --   -0.65158  -0.64618  -0.64233  -0.64137  -0.63889
 Alpha  occ. eigenvalues --   -0.63327  -0.62872  -0.62820  -0.62238  -0.61816
 Alpha  occ. eigenvalues --   -0.61455  -0.61000  -0.60584  -0.60408  -0.60202
 Alpha  occ. eigenvalues --   -0.59520  -0.59161  -0.59102  -0.58933  -0.58139
 Alpha  occ. eigenvalues --   -0.58000  -0.57669  -0.57337  -0.57173  -0.56636
 Alpha  occ. eigenvalues --   -0.55837  -0.55408  -0.55282  -0.55120  -0.54452
 Alpha  occ. eigenvalues --   -0.54210  -0.53886  -0.53551  -0.53058  -0.52635
 Alpha  occ. eigenvalues --   -0.52603  -0.52315  -0.52289  -0.51867  -0.51713
 Alpha  occ. eigenvalues --   -0.51237  -0.51018  -0.50432  -0.50253  -0.49861
 Alpha  occ. eigenvalues --   -0.49638  -0.49557  -0.49139  -0.48661  -0.48332
 Alpha  occ. eigenvalues --   -0.48211  -0.48041  -0.48018  -0.47803  -0.47450
 Alpha  occ. eigenvalues --   -0.47354  -0.47095  -0.46565  -0.46438  -0.46276
 Alpha  occ. eigenvalues --   -0.46025  -0.45639  -0.45543  -0.45399  -0.45304
 Alpha  occ. eigenvalues --   -0.45099  -0.44883  -0.44446  -0.44369  -0.44172
 Alpha  occ. eigenvalues --   -0.43886  -0.43702  -0.43020  -0.43005  -0.42450
 Alpha  occ. eigenvalues --   -0.41712  -0.41344  -0.40743  -0.38967  -0.38564
 Alpha  occ. eigenvalues --   -0.37678  -0.37205  -0.35008  -0.34343  -0.33982
 Alpha  occ. eigenvalues --   -0.33305  -0.32765  -0.32339  -0.32326  -0.26328
 Alpha  occ. eigenvalues --   -0.21437
 Alpha virt. eigenvalues --   -0.08217  -0.01836   0.00135   0.00949   0.01459
 Alpha virt. eigenvalues --    0.01793   0.03217   0.03465   0.04069   0.05110
 Alpha virt. eigenvalues --    0.06318   0.07433   0.07560   0.07917   0.08257

 Mulliken charges:
               1
     1  Mg   0.441686
     2  C   -0.049458
     3  C   -0.103652
     4  C   -0.064652
     5  C   -0.065461
     6  N   -0.295981
     7  C    0.146042
     8  C    0.012527
     9  C   -0.001386
    10  C    0.129875
    11  C   -0.059033
    12  C   -0.030628
    13  C    0.008993
    14  C    0.459763
    15  O   -0.527677
    16  O   -0.265121
    17  N   -0.293145
    18  C    0.109563
    19  C   -0.002124
    20  C   -0.060289
    21  C    0.114865
    22  C   -0.047611
    23  C    0.321992
    24  O   -0.514100
    25  C   -0.035515
    26  N   -0.260500
    27  C    0.122151
    28  C   -0.000076
    29  C   -0.000946
    30  C    0.116356
    31  C   -0.047070
    32  C   -0.029385
    33  C   -0.054586
    34  N   -0.317335
    35  C    0.087042
    36  C    0.055378
    37  C   -0.059756
    38  C    0.121362
    39  C   -0.033055
    40  C    0.338616
    41  O   -0.526767
    42  C    0.058952
    43  C    0.493406
    44  O   -0.531256
    45  O   -0.271298
    46  C    0.073667
    47  C    0.110155
    48  C   -0.086614
    49  C   -0.013092
    50  C   -0.040993
    51  C   -0.034880
    52  C   -0.020011
    53  C   -0.018200
    54  C   -0.006932
    55  C   -0.055875
    56  C   -0.037984
    57  C   -0.029879
    58  C   -0.028150
    59  C   -0.014557
    60  C   -0.060308
    61  C   -0.039018
    62  C   -0.050729
    63  C   -0.037909
    64  C    0.006558
    65  C   -0.056038
    66  C   -0.062229
    67  H    0.016943
    68  H    0.053582
    69  H    0.032453
    70  H    0.039905
    71  H    0.036063
    72  H    0.019250
    73  H    0.023498
    74  H    0.019454
    75  H    0.029368
    76  H    0.037235
    77  H    0.039433
    78  H    0.049592
    79  H    0.025824
    80  H    0.029033
    81  H    0.029682
    82  H    0.036432
    83  H    0.034900
    84  H    0.036890
    85  H    0.027810
    86  H    0.033535
    87  H    0.026904
    88  H    0.023027
    89  H    0.026988
    90  H    0.014738
    91  H    0.021975
    92  H    0.012258
    93  H    0.022839
    94  H    0.021511
    95  H    0.024986
    96  H    0.047710
    97  H    0.046827
    98  H    0.058492
    99  H    0.036894
   100  H    0.051122
   101  H    0.040578
   102  H    0.047760
   103  H    0.053457
   104  H    0.033129
   105  H    0.031495
   106  H    0.021086
   107  H    0.023011
   108  H    0.016270
   109  H    0.010298
   110  H    0.021363
   111  H    0.021367
   112  H    0.024632
   113  H    0.024138
   114  H    0.017228
   115  H    0.018945
   116  H    0.013607
   117  H    0.011088
   118  H    0.006220
   119  H    0.015373
   120  H    0.008323
   121  H    0.020581
   122  H    0.020194
   123  H    0.014574
   124  H    0.017249
   125  H    0.011959
   126  H    0.020233
   127  H    0.019241
   128  H    0.021520
   129  H    0.021238
   130  H    0.024491
   131  H    0.021698
   132  H    0.024998
   133  H    0.007263
   134  H    0.020845
   135  H    0.027409
   136  H    0.009211
   137  H    0.015399
   138  H    0.026478
   139  H    0.004662
   140  H    0.016547
 Sum of Mulliken charges =  -0.00000

 Dipole moment (field-independent basis, Debye):
    X=              4.6837    Y=              2.4319    Z=             -3.2051  Tot=              6.1744
 N-N= 4.354950913195D+03 E-N= 0.000000000000D+00  KE=-9.384542163938D+03
 Leave Link  601 at Sat Apr 30 00:44:52 2022, MaxMem=  6710886400 cpu:               0.8 elap:               0.1
 (Enter /sw/apps/gaussian-16.0/g16/l9999.exe)
 1\1\GINC-BP1-COMPUTE070\SP\RZINDO CIS\STO-3G\C55H74Mg1N4O6\OF15641\30-
 Apr-2022\0\\#p ZINDO=(nstates=5)\\step_51_chromophore_15 ZINDO\\0,1\Mg
 ,0,46.523,34.278,28.179\C,0,44.556,32.614,30.602\C,0,46.727,36.755,30.
 493\C,0,47.533,36.312,25.618\C,0,46.139,31.628,25.995\N,0,45.668,34.59
 3,30.279\C,0,45.06,33.754,31.124\C,0,45.236,34.219,32.621\C,0,45.515,3
 5.688,32.495\C,0,46.002,35.675,30.995\C,0,44.243,36.615,32.663\C,0,46.
 477,33.508,33.321\C,0,46.452,33.164,34.847\C,0,45.492,34.06,35.703\O,0

 Normal termination of Gaussian 16 at Sat Apr 30 00:44:52 2022.
