 Gaussian 16, Revision A.03,
 Gaussian 16:  ES64L-G16RevA.03 25-Dec-2016

 ------------------------------
 #p blyp/Def2SVP td=(nstates=5)
 ------------------------------

 --------------------------------------------------
 step_751_chromophore_18 TDDFT with blyp functional
 --------------------------------------------------
 Symbolic Z-matrix:
 Charge =  0 Multiplicity = 1

                         Standard orientation:
 ---------------------------------------------------------------------
 Center     Atomic      Atomic             Coordinates (Angstroms)
 Number     Number       Type             X           Y           Z
 ---------------------------------------------------------------------
      1         12           0        5.227465    1.166910    0.517692
      2          6           0        4.490054   -2.203518    0.512301
      3          6           0        1.881387    1.910845    0.278403
      4          6           0        5.838732    4.453152   -0.220943
      5          6           0        8.614910    0.309038   -0.174085
      6          7           0        3.415997   -0.050577    0.393967
      7          6           0        3.325302   -1.425921    0.501722
      8          6           0        1.858519   -1.891887    0.494555
      9          6           0        1.002778   -0.559270    0.195247
     10          6           0        2.153591    0.569657    0.285428
     11          6           0        0.156215   -0.593069   -1.053685
     12          6           0        1.530172   -2.500563    1.880352
     13          6           0        0.917949   -3.985666    1.864235
     14          6           0        0.179317   -4.422313    0.520179
     15          8           0        0.660586   -5.097468   -0.372659
     16          8           0       -1.035370   -3.731004    0.469942
     17          7           0        4.019338    2.942817    0.317021
     18          6           0        2.665903    2.984315    0.278828
     19          6           0        2.220968    4.390974    0.130493
     20          6           0        3.387786    5.139065   -0.135155
     21          6           0        4.495259    4.161241   -0.006427
     22          6           0        0.796018    4.877140    0.209034
     23          6           0        3.535109    6.531280   -0.457329
     24          8           0        4.573867    7.172424   -0.367967
     25          6           0        2.252959    7.330156   -0.940445
     26          7           0        6.930184    2.165328   -0.240635
     27          6           0        6.918965    3.561484   -0.332473
     28          6           0        8.306516    4.011586   -0.582369
     29          6           0        9.245425    2.758616   -0.342915
     30          6           0        8.242679    1.663942   -0.313961
     31          6           0        8.586597    4.746832   -1.942175
     32          6           0       10.134599    2.928543    0.944496
     33          6           0        9.569003    2.564313    2.357278
     34          7           0        6.401480   -0.589566    0.279532
     35          6           0        7.754587   -0.767595    0.028539
     36          6           0        8.029868   -2.221033    0.038948
     37          6           0        6.767190   -2.807169    0.190114
     38          6           0        5.836288   -1.743194    0.382864
     39          6           0        9.361597   -2.990563   -0.166575
     40          6           0        6.078025   -4.011344    0.299252
     41          8           0        6.489495   -5.161539    0.166310
     42          6           0        4.505725   -3.709349    0.363717
     43          6           0        3.918428   -4.340057   -0.864543
     44          8           0        3.812043   -3.759126   -1.948143
     45          8           0        3.613760   -5.616974   -0.605152
     46          6           0        3.326460   -6.456901   -1.756936
     47          6           0       -1.829465   -3.945586   -0.752176
     48          6           0       -3.049265   -2.984210   -0.774129
     49          6           0       -4.128751   -2.968869   -1.599924
     50          6           0       -4.281689   -3.918791   -2.811222
     51          6           0       -5.154897   -1.953264   -1.200412
     52          6           0       -6.178922   -2.424194   -0.145219
     53          6           0       -6.207298   -1.654912    1.176350
     54          6           0       -7.696955   -1.328128    1.627423
     55          6           0       -7.724830   -1.027690    3.107872
     56          6           0       -8.359097   -0.146371    0.848518
     57          6           0       -9.781726   -0.440436    0.346369
     58          6           0      -10.907606    0.033177    1.355339
     59          6           0      -11.979513    0.933168    0.771727
     60          6           0      -12.198922    2.158370    1.714471
     61          6           0      -13.282050    0.086298    0.500096
     62          6           0      -13.972081    0.558570   -0.747439
     63          6           0      -15.318222    1.329624   -0.482959
     64          6           0      -15.542387    2.663282   -1.289346
     65          6           0      -15.000844    3.962104   -0.628585
     66          6           0      -17.034591    2.817906   -1.821209
     67          1           0        0.820449    2.150736    0.178558
     68          1           0        6.051314    5.438123   -0.641213
     69          1           0        9.666850    0.185372   -0.437434
     70          1           0        1.897486   -2.626005   -0.310928
     71          1           0        0.345683   -0.301132    1.025442
     72          1           0        0.578782   -0.113492   -1.936359
     73          1           0       -0.724282   -0.012512   -0.779883
     74          1           0       -0.079648   -1.627385   -1.301921
     75          1           0        0.811547   -1.901159    2.440315
     76          1           0        2.357159   -2.340134    2.571232
     77          1           0        0.133631   -4.074914    2.615967
     78          1           0        1.648771   -4.735968    2.164521
     79          1           0        0.617092    4.852552   -0.865496
     80          1           0        0.894147    5.843683    0.701502
     81          1           0        0.039753    4.252666    0.685489
     82          1           0        2.487607    8.189807   -1.568797
     83          1           0        1.895124    7.753739   -0.002971
     84          1           0        1.545733    6.695177   -1.474081
     85          1           0        8.424274    4.660280    0.286280
     86          1           0        9.887362    2.618958   -1.212106
     87          1           0        7.942608    5.618744   -2.054392
     88          1           0        8.454457    4.054693   -2.774289
     89          1           0        9.619955    5.053654   -2.106082
     90          1           0       10.307052    4.001759    1.031900
     91          1           0       11.048087    2.370210    0.740162
     92          1           0        8.529124    2.319702    2.140064
     93          1           0        9.663239    3.389360    3.063674
     94          1           0       10.071335    1.687770    2.766819
     95          1           0        9.375811   -3.753508    0.611670
     96          1           0       10.175720   -2.284022   -0.006251
     97          1           0        9.409011   -3.336111   -1.199880
     98          1           0        4.063068   -4.081356    1.288225
     99          1           0        2.570743   -5.952773   -2.358771
    100          1           0        3.132923   -7.457742   -1.370950
    101          1           0        4.270898   -6.425628   -2.298701
    102          1           0       -2.193913   -4.972234   -0.758863
    103          1           0       -1.225469   -3.900575   -1.658944
    104          1           0       -3.087353   -2.297779    0.071067
    105          1           0       -5.188230   -4.490625   -2.614209
    106          1           0       -3.371001   -4.519087   -2.822186
    107          1           0       -4.385214   -3.384962   -3.756247
    108          1           0       -5.696927   -1.732233   -2.119724
    109          1           0       -4.702706   -0.983515   -0.991590
    110          1           0       -6.023996   -3.494179   -0.001210
    111          1           0       -7.148691   -2.263861   -0.616227
    112          1           0       -5.833945   -0.681413    0.861726
    113          1           0       -5.603481   -2.137747    1.945056
    114          1           0       -8.307967   -2.227195    1.536452
    115          1           0       -7.048832   -0.190971    3.284950
    116          1           0       -7.208131   -1.765802    3.720034
    117          1           0       -8.702002   -0.860756    3.561725
    118          1           0       -7.853312    0.100932   -0.084962
    119          1           0       -8.443669    0.772711    1.429002
    120          1           0       -9.898854   -1.519213    0.241696
    121          1           0       -9.969160    0.041528   -0.613298
    122          1           0      -10.542906    0.592017    2.217136
    123          1           0      -11.357613   -0.839639    1.828820
    124          1           0      -11.690443    1.431334   -0.153052
    125          1           0      -11.318687    2.788173    1.841922
    126          1           0      -12.432691    1.701384    2.675992
    127          1           0      -13.038921    2.736842    1.326757
    128          1           0      -13.981660    0.350762    1.292749
    129          1           0      -13.138780   -0.993604    0.526394
    130          1           0      -14.275569   -0.368636   -1.235866
    131          1           0      -13.365181    1.126695   -1.452175
    132          1           0      -15.375233    1.534332    0.585853
    133          1           0      -16.173387    0.678141   -0.659659
    134          1           0      -14.939612    2.527606   -2.187940
    135          1           0      -14.865005    3.832960    0.445714
    136          1           0      -15.747146    4.740003   -0.787517
    137          1           0      -14.001913    4.221877   -0.977854
    138          1           0      -17.709482    2.867890   -0.966354
    139          1           0      -17.417623    1.930911   -2.324252
    140          1           0      -17.216418    3.728459   -2.391453
 ---------------------------------------------------------------------

 SCF Done:  E(RB-LYP) =  -3007.38186742     A.U. after   22 cycles

 Excitation energies and oscillator strengths:

 Excited State   1:      Singlet-A      1.7761 eV  698.06 nm  f=0.1448  <S**2>=0.000
     244 -> 247       -0.46708
     245 -> 247        0.19410
     245 -> 248       -0.11503
     246 -> 247        0.48406
     246 <- 247       -0.10569
 This state for optimization and/or second-order correction.
 Total Energy, E(TD-HF/TD-DFT) =  -3007.31659568
 Copying the excited state density for this state as the 1-particle RhoCI density.

 Excited State   2:      Singlet-A      1.7947 eV  690.84 nm  f=0.1735  <S**2>=0.000
     244 -> 247        0.47445
     245 -> 247       -0.13568
     245 -> 248       -0.11433
     246 -> 247        0.49546
     246 <- 247       -0.11063

 Excited State   3:      Singlet-A      1.9490 eV  636.15 nm  f=0.0079  <S**2>=0.000
     243 -> 247        0.62463
     244 -> 247        0.12720
     245 -> 247        0.28674

 Excited State   4:      Singlet-A      2.0529 eV  603.95 nm  f=0.0500  <S**2>=0.000
     243 -> 247       -0.32578
     244 -> 247        0.18645
     245 -> 247        0.53096
     246 -> 248        0.22495
     246 -> 249        0.12607

 Excited State   5:      Singlet-A      2.5057 eV  494.80 nm  f=0.0001  <S**2>=0.000
     241 -> 247        0.70233

 The electronic state is 1-A.
 Alpha  occ. eigenvalues --  -46.27352 -18.83139 -18.80634 -18.78358 -18.75190
 Alpha  occ. eigenvalues --  -18.75061 -18.74437 -14.03178 -14.02714 -14.01042
 Alpha  occ. eigenvalues --  -14.00420 -10.05302 -10.02501  -9.99430  -9.98644
 Alpha  occ. eigenvalues --   -9.98254  -9.96495  -9.96165  -9.96100  -9.95998
 Alpha  occ. eigenvalues --   -9.95902  -9.95584  -9.95376  -9.95010  -9.94473
 Alpha  occ. eigenvalues --   -9.94326  -9.94298  -9.94067  -9.94008  -9.93919
 Alpha  occ. eigenvalues --   -9.93677  -9.93518  -9.93298  -9.93297  -9.93238
 Alpha  occ. eigenvalues --   -9.93069  -9.92813  -9.92686  -9.92634  -9.92572
 Alpha  occ. eigenvalues --   -9.92503  -9.92455  -9.92290  -9.92275  -9.92273
 Alpha  occ. eigenvalues --   -9.92238  -9.92052  -9.91967  -9.91929  -9.91925
 Alpha  occ. eigenvalues --   -9.91839  -9.91820  -9.91616  -9.91609  -9.91572
 Alpha  occ. eigenvalues --   -9.91552  -9.91506  -9.91167  -9.91162  -9.91109
 Alpha  occ. eigenvalues --   -9.91088  -9.90966  -9.90905  -9.90786  -9.90671
 Alpha  occ. eigenvalues --   -9.89982  -2.91890  -1.72301  -1.71743  -1.71632
 Alpha  occ. eigenvalues --   -0.97817  -0.96970  -0.91218  -0.90939  -0.89983
 Alpha  occ. eigenvalues --   -0.88184  -0.86597  -0.86220  -0.84063  -0.83505
 Alpha  occ. eigenvalues --   -0.74634  -0.73957  -0.73065  -0.72353  -0.72102
 Alpha  occ. eigenvalues --   -0.71811  -0.71361  -0.71168  -0.70674  -0.70341
 Alpha  occ. eigenvalues --   -0.69513  -0.68783  -0.68037  -0.67011  -0.66918
 Alpha  occ. eigenvalues --   -0.66369  -0.65556  -0.64951  -0.64802  -0.64531
 Alpha  occ. eigenvalues --   -0.63826  -0.62805  -0.62163  -0.61735  -0.61251
 Alpha  occ. eigenvalues --   -0.60189  -0.60120  -0.59661  -0.59567  -0.58917
 Alpha  occ. eigenvalues --   -0.58121  -0.57528  -0.56721  -0.55638  -0.54625
 Alpha  occ. eigenvalues --   -0.54077  -0.53575  -0.53134  -0.52169  -0.51396
 Alpha  occ. eigenvalues --   -0.51269  -0.50678  -0.50360  -0.50190  -0.50150
 Alpha  occ. eigenvalues --   -0.50093  -0.49802  -0.48779  -0.47477  -0.46420
 Alpha  occ. eigenvalues --   -0.46253  -0.45404  -0.44996  -0.44401  -0.43624
 Alpha  occ. eigenvalues --   -0.43109  -0.42673  -0.42512  -0.42188  -0.42016
 Alpha  occ. eigenvalues --   -0.41924  -0.41691  -0.41377  -0.41146  -0.41002
 Alpha  occ. eigenvalues --   -0.40993  -0.40219  -0.40177  -0.40097  -0.39845
 Alpha  occ. eigenvalues --   -0.39796  -0.39745  -0.39386  -0.39144  -0.38972
 Alpha  occ. eigenvalues --   -0.38936  -0.38822  -0.38515  -0.38227  -0.38011
 Alpha  occ. eigenvalues --   -0.37974  -0.37675  -0.37627  -0.37445  -0.37253
 Alpha  occ. eigenvalues --   -0.36995  -0.36919  -0.36640  -0.36564  -0.36443
 Alpha  occ. eigenvalues --   -0.36180  -0.36109  -0.35972  -0.35917  -0.35618
 Alpha  occ. eigenvalues --   -0.35541  -0.35151  -0.34938  -0.34848  -0.34639
 Alpha  occ. eigenvalues --   -0.34500  -0.34307  -0.34057  -0.33971  -0.33693
 Alpha  occ. eigenvalues --   -0.33377  -0.33356  -0.33295  -0.32931  -0.32870
 Alpha  occ. eigenvalues --   -0.32742  -0.32653  -0.32505  -0.32303  -0.32214
 Alpha  occ. eigenvalues --   -0.32104  -0.31933  -0.31825  -0.31718  -0.31419
 Alpha  occ. eigenvalues --   -0.31102  -0.31093  -0.30891  -0.30776  -0.30496
 Alpha  occ. eigenvalues --   -0.30405  -0.30377  -0.30121  -0.29902  -0.29548
 Alpha  occ. eigenvalues --   -0.29460  -0.29245  -0.29160  -0.28721  -0.28420
 Alpha  occ. eigenvalues --   -0.28285  -0.28115  -0.27854  -0.27790  -0.27499
 Alpha  occ. eigenvalues --   -0.27381  -0.27340  -0.27164  -0.26824  -0.26669
 Alpha  occ. eigenvalues --   -0.26512  -0.26402  -0.26280  -0.25849  -0.25821
 Alpha  occ. eigenvalues --   -0.24898  -0.24787  -0.23816  -0.23624  -0.23606
 Alpha  occ. eigenvalues --   -0.22845  -0.22514  -0.21691  -0.20817  -0.20463
 Alpha  occ. eigenvalues --   -0.20320  -0.20301  -0.18240  -0.17597  -0.17033
 Alpha  occ. eigenvalues --   -0.15300
 Alpha virt. eigenvalues --   -0.11112  -0.06752  -0.05749  -0.04632  -0.04127
 Alpha virt. eigenvalues --   -0.03276  -0.02341  -0.01318  -0.00809   0.01028
 Alpha virt. eigenvalues --    0.01899   0.02180   0.02444   0.02667   0.02832

 Mulliken charges:
               1
     1  Mg   0.687392
     2  C    0.016199
     3  C   -0.071898
     4  C   -0.072279
     5  C   -0.077243
     6  N   -0.259297
     7  C   -0.107710
     8  C    0.018278
     9  C    0.002941
    10  C    0.019916
    11  C    0.142073
    12  C    0.132743
    13  C    0.122585
    14  C    0.099930
    15  O   -0.175567
    16  O   -0.294285
    17  N   -0.231641
    18  C    0.158457
    19  C   -0.168647
    20  C    0.092913
    21  C    0.091246
    22  C    0.182791
    23  C   -0.131946
    24  O   -0.170265
    25  C    0.108685
    26  N   -0.276468
    27  C    0.032272
    28  C    0.047800
    29  C    0.040211
    30  C   -0.024629
    31  C    0.121154
    32  C    0.069592
    33  C    0.061025
    34  N   -0.195675
    35  C    0.149485
    36  C   -0.201665
    37  C    0.151706
    38  C    0.053934
    39  C    0.180576
    40  C   -0.120750
    41  O   -0.148949
    42  C    0.046116
    43  C    0.143532
    44  O   -0.216914
    45  O   -0.239196
    46  C    0.246668
    47  C    0.280219
    48  C   -0.091461
    49  C   -0.195905
    50  C    0.157723
    51  C    0.133676
    52  C    0.095603
    53  C    0.109189
    54  C   -0.050900
    55  C    0.102081
    56  C    0.109423
    57  C    0.072892
    58  C    0.105485
    59  C   -0.102244
    60  C    0.087098
    61  C    0.114646
    62  C    0.088427
    63  C    0.077157
    64  C   -0.080922
    65  C    0.106634
    66  C    0.072006
    67  H   -0.084494
    68  H   -0.030634
    69  H   -0.058044
    70  H    0.016018
    71  H   -0.024814
    72  H   -0.005567
    73  H   -0.013191
    74  H    0.004078
    75  H   -0.031556
    76  H   -0.019044
    77  H   -0.014481
    78  H    0.005712
    79  H    0.022032
    80  H    0.017788
    81  H   -0.001496
    82  H   -0.010220
    83  H    0.009122
    84  H   -0.005042
    85  H   -0.025204
    86  H   -0.035566
    87  H    0.008606
    88  H   -0.012177
    89  H   -0.012864
    90  H   -0.017495
    91  H   -0.017959
    92  H    0.005439
    93  H   -0.001968
    94  H   -0.002810
    95  H    0.019031
    96  H   -0.023127
    97  H    0.021248
    98  H   -0.012553
    99  H    0.019223
   100  H    0.017082
   101  H    0.003228
   102  H    0.002198
   103  H    0.018121
   104  H   -0.027357
   105  H    0.003890
   106  H   -0.010893
   107  H    0.007607
   108  H   -0.055735
   109  H   -0.021161
   110  H   -0.024214
   111  H   -0.032068
   112  H   -0.038467
   113  H   -0.020050
   114  H   -0.031011
   115  H   -0.033846
   116  H   -0.036154
   117  H   -0.006085
   118  H   -0.040452
   119  H   -0.026368
   120  H   -0.030082
   121  H   -0.031268
   122  H   -0.047074
   123  H   -0.040132
   124  H   -0.036826
   125  H   -0.007982
   126  H   -0.017063
   127  H   -0.023956
   128  H   -0.042041
   129  H   -0.026143
   130  H   -0.042026
   131  H   -0.024109
   132  H   -0.036728
   133  H   -0.041887
   134  H   -0.031309
   135  H   -0.005281
   136  H   -0.020288
   137  H   -0.010804
   138  H   -0.023921
   139  H   -0.015123
   140  H   -0.008238
 Sum of Mulliken charges =  -0.00000

 Dipole moment (field-independent basis, Debye):
    X=             -4.8093    Y=              1.4328    Z=              1.4992  Tot=              5.2374
 Quadrupole moment (field-independent basis, Debye-Ang):
   XX=           -388.2973   YY=           -437.4042   ZZ=           -400.6880
   XY=             21.8531   XZ=             11.2349   YZ=             -0.6095

 Normal termination of Gaussian 16 at Thu May  5 08:16:43 2022.
