 Gaussian 16, Revision A.03,
 Gaussian 16:  ES64L-G16RevA.03 25-Dec-2016

 -----------------------------------
 #p cam-b3lyp/Def2SVP td=(nstates=5)
 -----------------------------------

 -------------------------------------------------------
 step_751_chromophore_18 TDDFT with cam-b3lyp functional
 -------------------------------------------------------
 Symbolic Z-matrix:
 Charge =  0 Multiplicity = 1

                         Standard orientation:
 ---------------------------------------------------------------------
 Center     Atomic      Atomic             Coordinates (Angstroms)
 Number     Number       Type             X           Y           Z
 ---------------------------------------------------------------------
      1         12           0        5.227465    1.166910    0.517692
      2          6           0        4.490054   -2.203518    0.512301
      3          6           0        1.881387    1.910845    0.278403
      4          6           0        5.838732    4.453152   -0.220943
      5          6           0        8.614910    0.309038   -0.174085
      6          7           0        3.415997   -0.050577    0.393967
      7          6           0        3.325302   -1.425921    0.501722
      8          6           0        1.858519   -1.891887    0.494555
      9          6           0        1.002778   -0.559270    0.195247
     10          6           0        2.153591    0.569657    0.285428
     11          6           0        0.156215   -0.593069   -1.053685
     12          6           0        1.530172   -2.500563    1.880352
     13          6           0        0.917949   -3.985666    1.864235
     14          6           0        0.179317   -4.422313    0.520179
     15          8           0        0.660586   -5.097468   -0.372659
     16          8           0       -1.035370   -3.731004    0.469942
     17          7           0        4.019338    2.942817    0.317021
     18          6           0        2.665903    2.984315    0.278828
     19          6           0        2.220968    4.390974    0.130493
     20          6           0        3.387786    5.139065   -0.135155
     21          6           0        4.495259    4.161241   -0.006427
     22          6           0        0.796018    4.877140    0.209034
     23          6           0        3.535109    6.531280   -0.457329
     24          8           0        4.573867    7.172424   -0.367967
     25          6           0        2.252959    7.330156   -0.940445
     26          7           0        6.930184    2.165328   -0.240635
     27          6           0        6.918965    3.561484   -0.332473
     28          6           0        8.306516    4.011586   -0.582369
     29          6           0        9.245425    2.758616   -0.342915
     30          6           0        8.242679    1.663942   -0.313961
     31          6           0        8.586597    4.746832   -1.942175
     32          6           0       10.134599    2.928543    0.944496
     33          6           0        9.569003    2.564313    2.357278
     34          7           0        6.401480   -0.589566    0.279532
     35          6           0        7.754587   -0.767595    0.028539
     36          6           0        8.029868   -2.221033    0.038948
     37          6           0        6.767190   -2.807169    0.190114
     38          6           0        5.836288   -1.743194    0.382864
     39          6           0        9.361597   -2.990563   -0.166575
     40          6           0        6.078025   -4.011344    0.299252
     41          8           0        6.489495   -5.161539    0.166310
     42          6           0        4.505725   -3.709349    0.363717
     43          6           0        3.918428   -4.340057   -0.864543
     44          8           0        3.812043   -3.759126   -1.948143
     45          8           0        3.613760   -5.616974   -0.605152
     46          6           0        3.326460   -6.456901   -1.756936
     47          6           0       -1.829465   -3.945586   -0.752176
     48          6           0       -3.049265   -2.984210   -0.774129
     49          6           0       -4.128751   -2.968869   -1.599924
     50          6           0       -4.281689   -3.918791   -2.811222
     51          6           0       -5.154897   -1.953264   -1.200412
     52          6           0       -6.178922   -2.424194   -0.145219
     53          6           0       -6.207298   -1.654912    1.176350
     54          6           0       -7.696955   -1.328128    1.627423
     55          6           0       -7.724830   -1.027690    3.107872
     56          6           0       -8.359097   -0.146371    0.848518
     57          6           0       -9.781726   -0.440436    0.346369
     58          6           0      -10.907606    0.033177    1.355339
     59          6           0      -11.979513    0.933168    0.771727
     60          6           0      -12.198922    2.158370    1.714471
     61          6           0      -13.282050    0.086298    0.500096
     62          6           0      -13.972081    0.558570   -0.747439
     63          6           0      -15.318222    1.329624   -0.482959
     64          6           0      -15.542387    2.663282   -1.289346
     65          6           0      -15.000844    3.962104   -0.628585
     66          6           0      -17.034591    2.817906   -1.821209
     67          1           0        0.820449    2.150736    0.178558
     68          1           0        6.051314    5.438123   -0.641213
     69          1           0        9.666850    0.185372   -0.437434
     70          1           0        1.897486   -2.626005   -0.310928
     71          1           0        0.345683   -0.301132    1.025442
     72          1           0        0.578782   -0.113492   -1.936359
     73          1           0       -0.724282   -0.012512   -0.779883
     74          1           0       -0.079648   -1.627385   -1.301921
     75          1           0        0.811547   -1.901159    2.440315
     76          1           0        2.357159   -2.340134    2.571232
     77          1           0        0.133631   -4.074914    2.615967
     78          1           0        1.648771   -4.735968    2.164521
     79          1           0        0.617092    4.852552   -0.865496
     80          1           0        0.894147    5.843683    0.701502
     81          1           0        0.039753    4.252666    0.685489
     82          1           0        2.487607    8.189807   -1.568797
     83          1           0        1.895124    7.753739   -0.002971
     84          1           0        1.545733    6.695177   -1.474081
     85          1           0        8.424274    4.660280    0.286280
     86          1           0        9.887362    2.618958   -1.212106
     87          1           0        7.942608    5.618744   -2.054392
     88          1           0        8.454457    4.054693   -2.774289
     89          1           0        9.619955    5.053654   -2.106082
     90          1           0       10.307052    4.001759    1.031900
     91          1           0       11.048087    2.370210    0.740162
     92          1           0        8.529124    2.319702    2.140064
     93          1           0        9.663239    3.389360    3.063674
     94          1           0       10.071335    1.687770    2.766819
     95          1           0        9.375811   -3.753508    0.611670
     96          1           0       10.175720   -2.284022   -0.006251
     97          1           0        9.409011   -3.336111   -1.199880
     98          1           0        4.063068   -4.081356    1.288225
     99          1           0        2.570743   -5.952773   -2.358771
    100          1           0        3.132923   -7.457742   -1.370950
    101          1           0        4.270898   -6.425628   -2.298701
    102          1           0       -2.193913   -4.972234   -0.758863
    103          1           0       -1.225469   -3.900575   -1.658944
    104          1           0       -3.087353   -2.297779    0.071067
    105          1           0       -5.188230   -4.490625   -2.614209
    106          1           0       -3.371001   -4.519087   -2.822186
    107          1           0       -4.385214   -3.384962   -3.756247
    108          1           0       -5.696927   -1.732233   -2.119724
    109          1           0       -4.702706   -0.983515   -0.991590
    110          1           0       -6.023996   -3.494179   -0.001210
    111          1           0       -7.148691   -2.263861   -0.616227
    112          1           0       -5.833945   -0.681413    0.861726
    113          1           0       -5.603481   -2.137747    1.945056
    114          1           0       -8.307967   -2.227195    1.536452
    115          1           0       -7.048832   -0.190971    3.284950
    116          1           0       -7.208131   -1.765802    3.720034
    117          1           0       -8.702002   -0.860756    3.561725
    118          1           0       -7.853312    0.100932   -0.084962
    119          1           0       -8.443669    0.772711    1.429002
    120          1           0       -9.898854   -1.519213    0.241696
    121          1           0       -9.969160    0.041528   -0.613298
    122          1           0      -10.542906    0.592017    2.217136
    123          1           0      -11.357613   -0.839639    1.828820
    124          1           0      -11.690443    1.431334   -0.153052
    125          1           0      -11.318687    2.788173    1.841922
    126          1           0      -12.432691    1.701384    2.675992
    127          1           0      -13.038921    2.736842    1.326757
    128          1           0      -13.981660    0.350762    1.292749
    129          1           0      -13.138780   -0.993604    0.526394
    130          1           0      -14.275569   -0.368636   -1.235866
    131          1           0      -13.365181    1.126695   -1.452175
    132          1           0      -15.375233    1.534332    0.585853
    133          1           0      -16.173387    0.678141   -0.659659
    134          1           0      -14.939612    2.527606   -2.187940
    135          1           0      -14.865005    3.832960    0.445714
    136          1           0      -15.747146    4.740003   -0.787517
    137          1           0      -14.001913    4.221877   -0.977854
    138          1           0      -17.709482    2.867890   -0.966354
    139          1           0      -17.417623    1.930911   -2.324252
    140          1           0      -17.216418    3.728459   -2.391453
 ---------------------------------------------------------------------

 SCF Done:  E(RCAM-B3LYP) =  -3007.17184234     A.U. after   17 cycles

 Excitation energies and oscillator strengths:

 Excited State   1:      Singlet-A      1.6882 eV  734.40 nm  f=0.3864  <S**2>=0.000
     245 -> 248       -0.16693
     246 -> 247        0.68799
     245 <- 248       -0.10367
 This state for optimization and/or second-order correction.
 Total Energy, E(TD-HF/TD-DFT) =  -3007.10980087
 Copying the excited state density for this state as the 1-particle RhoCI density.

 Excited State   2:      Singlet-A      2.2688 eV  546.49 nm  f=0.0672  <S**2>=0.000
     245 -> 247        0.62086
     246 -> 248        0.32371

 Excited State   3:      Singlet-A      3.3435 eV  370.82 nm  f=0.0037  <S**2>=0.000
     243 -> 247       -0.11161
     244 -> 247        0.56516
     244 -> 249       -0.24174
     244 -> 251        0.25844

 Excited State   4:      Singlet-A      3.4509 eV  359.28 nm  f=0.5786  <S**2>=0.000
     239 -> 247       -0.10865
     241 -> 247       -0.15052
     245 -> 247       -0.28661
     246 -> 248        0.59119
     246 -> 250        0.10019

 Excited State   5:      Singlet-A      3.5375 eV  350.49 nm  f=0.0175  <S**2>=0.000
     239 -> 247       -0.16964
     239 -> 249       -0.13663
     240 -> 247       -0.29522
     240 -> 248        0.11299
     240 -> 249       -0.22831
     240 -> 251       -0.13308
     241 -> 247       -0.31215
     241 -> 249       -0.14001
     243 -> 247        0.33648

 The electronic state is 1-A.
 Alpha  occ. eigenvalues --  -46.88945 -19.25979 -19.23393 -19.21357 -19.18655
 Alpha  occ. eigenvalues --  -19.17992 -19.17307 -14.42137 -14.41527 -14.39652
 Alpha  occ. eigenvalues --  -14.38682 -10.40683 -10.37826 -10.34922 -10.33350
 Alpha  occ. eigenvalues --  -10.32726 -10.31254 -10.30629 -10.30498 -10.30275
 Alpha  occ. eigenvalues --  -10.30038 -10.29916 -10.29616 -10.29596 -10.29269
 Alpha  occ. eigenvalues --  -10.28443 -10.28405 -10.28133 -10.27937 -10.27935
 Alpha  occ. eigenvalues --  -10.27870 -10.27752 -10.27396 -10.27079 -10.26996
 Alpha  occ. eigenvalues --  -10.26946 -10.26923 -10.26882 -10.26869 -10.26432
 Alpha  occ. eigenvalues --  -10.26321 -10.26319 -10.26298 -10.26250 -10.26215
 Alpha  occ. eigenvalues --  -10.26021 -10.25915 -10.25854 -10.25682 -10.25635
 Alpha  occ. eigenvalues --  -10.25624 -10.25600 -10.25501 -10.25372 -10.25307
 Alpha  occ. eigenvalues --  -10.25252 -10.25208 -10.24909 -10.24825 -10.24751
 Alpha  occ. eigenvalues --  -10.24741 -10.24626 -10.24578 -10.24397 -10.24372
 Alpha  occ. eigenvalues --  -10.23695  -3.17378  -1.92268  -1.91804  -1.91697
 Alpha  occ. eigenvalues --   -1.16222  -1.15346  -1.09883  -1.08757  -1.08094
 Alpha  occ. eigenvalues --   -1.06005  -1.04215  -1.03922  -1.01603  -1.01048
 Alpha  occ. eigenvalues --   -0.91624  -0.90853  -0.89896  -0.89268  -0.88827
 Alpha  occ. eigenvalues --   -0.88605  -0.88278  -0.87655  -0.87183  -0.86911
 Alpha  occ. eigenvalues --   -0.85890  -0.85077  -0.84307  -0.83104  -0.82995
 Alpha  occ. eigenvalues --   -0.82458  -0.81494  -0.80975  -0.80533  -0.80458
 Alpha  occ. eigenvalues --   -0.79693  -0.78884  -0.77729  -0.77156  -0.76660
 Alpha  occ. eigenvalues --   -0.75529  -0.75491  -0.74990  -0.74783  -0.74179
 Alpha  occ. eigenvalues --   -0.73126  -0.72461  -0.71690  -0.70460  -0.69232
 Alpha  occ. eigenvalues --   -0.68878  -0.68131  -0.67587  -0.66520  -0.65639
 Alpha  occ. eigenvalues --   -0.65508  -0.64722  -0.64198  -0.64163  -0.64112
 Alpha  occ. eigenvalues --   -0.63941  -0.63819  -0.62716  -0.61091  -0.60076
 Alpha  occ. eigenvalues --   -0.59695  -0.58914  -0.58452  -0.57700  -0.57139
 Alpha  occ. eigenvalues --   -0.56501  -0.55971  -0.55823  -0.55328  -0.55134
 Alpha  occ. eigenvalues --   -0.54793  -0.54626  -0.54353  -0.54221  -0.54030
 Alpha  occ. eigenvalues --   -0.53806  -0.53024  -0.52799  -0.52702  -0.52531
 Alpha  occ. eigenvalues --   -0.52417  -0.52293  -0.52248  -0.52000  -0.51554
 Alpha  occ. eigenvalues --   -0.51364  -0.51259  -0.51144  -0.50552  -0.50448
 Alpha  occ. eigenvalues --   -0.50315  -0.50098  -0.50057  -0.49792  -0.49631
 Alpha  occ. eigenvalues --   -0.49428  -0.49163  -0.49018  -0.48866  -0.48731
 Alpha  occ. eigenvalues --   -0.48488  -0.48451  -0.48141  -0.48084  -0.47851
 Alpha  occ. eigenvalues --   -0.47792  -0.47277  -0.47165  -0.46867  -0.46582
 Alpha  occ. eigenvalues --   -0.46367  -0.46291  -0.45918  -0.45729  -0.45419
 Alpha  occ. eigenvalues --   -0.45287  -0.45038  -0.44976  -0.44634  -0.44508
 Alpha  occ. eigenvalues --   -0.44409  -0.44323  -0.44192  -0.44010  -0.43859
 Alpha  occ. eigenvalues --   -0.43758  -0.43625  -0.43590  -0.43280  -0.43012
 Alpha  occ. eigenvalues --   -0.42844  -0.42443  -0.42348  -0.42121  -0.41980
 Alpha  occ. eigenvalues --   -0.41912  -0.41684  -0.41636  -0.41211  -0.40664
 Alpha  occ. eigenvalues --   -0.40598  -0.40444  -0.40337  -0.40156  -0.39844
 Alpha  occ. eigenvalues --   -0.39373  -0.39333  -0.38789  -0.38651  -0.38416
 Alpha  occ. eigenvalues --   -0.38331  -0.38062  -0.37906  -0.37746  -0.37579
 Alpha  occ. eigenvalues --   -0.37381  -0.37256  -0.37076  -0.36978  -0.36525
 Alpha  occ. eigenvalues --   -0.35767  -0.35487  -0.35309  -0.34237  -0.34013
 Alpha  occ. eigenvalues --   -0.33735  -0.33132  -0.32680  -0.31052  -0.30740
 Alpha  occ. eigenvalues --   -0.30175  -0.29933  -0.29505  -0.29300  -0.23948
 Alpha  occ. eigenvalues --   -0.20450
 Alpha virt. eigenvalues --   -0.08129  -0.01485   0.00477   0.01719   0.02307
 Alpha virt. eigenvalues --    0.03772   0.05091   0.06076   0.06911   0.07443
 Alpha virt. eigenvalues --    0.08355   0.08763   0.08940   0.09078   0.09389

 Mulliken charges:
               1
     1  Mg   0.816347
     2  C   -0.003421
     3  C   -0.092142
     4  C   -0.084578
     5  C   -0.079760
     6  N   -0.329355
     7  C   -0.057914
     8  C   -0.043698
     9  C   -0.038388
    10  C    0.042894
    11  C    0.089283
    12  C    0.082801
    13  C    0.061530
    14  C    0.169027
    15  O   -0.214531
    16  O   -0.357686
    17  N   -0.319902
    18  C    0.168201
    19  C   -0.162625
    20  C    0.015170
    21  C    0.121316
    22  C    0.119131
    23  C   -0.052091
    24  O   -0.209468
    25  C    0.030643
    26  N   -0.345804
    27  C    0.059587
    28  C   -0.021567
    29  C   -0.018098
    30  C   -0.006057
    31  C    0.066316
    32  C    0.017243
    33  C    0.005236
    34  N   -0.285467
    35  C    0.141463
    36  C   -0.194366
    37  C    0.070781
    38  C    0.090320
    39  C    0.136840
    40  C   -0.027078
    41  O   -0.189569
    42  C   -0.023074
    43  C    0.222172
    44  O   -0.253322
    45  O   -0.299691
    46  C    0.202213
    47  C    0.249579
    48  C   -0.111704
    49  C   -0.217070
    50  C    0.103051
    51  C    0.069701
    52  C    0.042194
    53  C    0.055041
    54  C   -0.107266
    55  C    0.044886
    56  C    0.049960
    57  C    0.021872
    58  C    0.050311
    59  C   -0.154682
    60  C    0.038379
    61  C    0.060419
    62  C    0.027052
    63  C    0.027020
    64  C   -0.139814
    65  C    0.046587
    66  C    0.015199
    67  H   -0.048031
    68  H    0.005161
    69  H   -0.023352
    70  H    0.046103
    71  H    0.009264
    72  H    0.021377
    73  H    0.008237
    74  H    0.023446
    75  H    0.000223
    76  H    0.014009
    77  H    0.019554
    78  H    0.035651
    79  H    0.049181
    80  H    0.043267
    81  H    0.029170
    82  H    0.025814
    83  H    0.037885
    84  H    0.023689
    85  H    0.009799
    86  H    0.001042
    87  H    0.030528
    88  H    0.012316
    89  H    0.012620
    90  H    0.009527
    91  H    0.008935
    92  H    0.022597
    93  H    0.021192
    94  H    0.020518
    95  H    0.043406
    96  H    0.000135
    97  H    0.046004
    98  H    0.027911
    99  H    0.043880
   100  H    0.041206
   101  H    0.027456
   102  H    0.029129
   103  H    0.043614
   104  H    0.004522
   105  H    0.026217
   106  H    0.011227
   107  H    0.031402
   108  H   -0.023302
   109  H    0.009392
   110  H    0.005150
   111  H   -0.003645
   112  H   -0.011325
   113  H    0.008626
   114  H   -0.000568
   115  H   -0.009541
   116  H   -0.009220
   117  H    0.017288
   118  H   -0.011414
   119  H    0.001922
   120  H   -0.002543
   121  H   -0.001883
   122  H   -0.019111
   123  H   -0.011204
   124  H   -0.007281
   125  H    0.016118
   126  H    0.005350
   127  H   -0.005531
   128  H   -0.012710
   129  H    0.003615
   130  H   -0.009998
   131  H    0.003013
   132  H   -0.011081
   133  H   -0.011270
   134  H   -0.000763
   135  H    0.014312
   136  H    0.005855
   137  H    0.012457
   138  H   -0.000860
   139  H    0.009062
   140  H    0.015681
 Sum of Mulliken charges =  -0.00000

 Dipole moment (field-independent basis, Debye):
    X=             -5.5705    Y=              2.3056    Z=              1.5631  Tot=              6.2282
 Quadrupole moment (field-independent basis, Debye-Ang):
   XX=           -391.5004   YY=           -433.2410   ZZ=           -400.1007
   XY=             23.7788   XZ=             11.0405   YZ=             -1.8226

 Normal termination of Gaussian 16 at Thu May  5 07:13:39 2022.
