 Gaussian 16, Revision A.03,
 Gaussian 16:  ES64L-G16RevA.03 25-Dec-2016

 ---------------------------------
 #p PBE1PBE/Def2SVP td=(nstates=5)
 ---------------------------------

 -----------------------------------------------------
 step_751_chromophore_18 TDDFT with PBE1PBE functional
 -----------------------------------------------------
 Symbolic Z-matrix:
 Charge =  0 Multiplicity = 1

                         Standard orientation:
 ---------------------------------------------------------------------
 Center     Atomic      Atomic             Coordinates (Angstroms)
 Number     Number       Type             X           Y           Z
 ---------------------------------------------------------------------
      1         12           0        5.227465    1.166910    0.517692
      2          6           0        4.490054   -2.203518    0.512301
      3          6           0        1.881387    1.910845    0.278403
      4          6           0        5.838732    4.453152   -0.220943
      5          6           0        8.614910    0.309038   -0.174085
      6          7           0        3.415997   -0.050577    0.393967
      7          6           0        3.325302   -1.425921    0.501722
      8          6           0        1.858519   -1.891887    0.494555
      9          6           0        1.002778   -0.559270    0.195247
     10          6           0        2.153591    0.569657    0.285428
     11          6           0        0.156215   -0.593069   -1.053685
     12          6           0        1.530172   -2.500563    1.880352
     13          6           0        0.917949   -3.985666    1.864235
     14          6           0        0.179317   -4.422313    0.520179
     15          8           0        0.660586   -5.097468   -0.372659
     16          8           0       -1.035370   -3.731004    0.469942
     17          7           0        4.019338    2.942817    0.317021
     18          6           0        2.665903    2.984315    0.278828
     19          6           0        2.220968    4.390974    0.130493
     20          6           0        3.387786    5.139065   -0.135155
     21          6           0        4.495259    4.161241   -0.006427
     22          6           0        0.796018    4.877140    0.209034
     23          6           0        3.535109    6.531280   -0.457329
     24          8           0        4.573867    7.172424   -0.367967
     25          6           0        2.252959    7.330156   -0.940445
     26          7           0        6.930184    2.165328   -0.240635
     27          6           0        6.918965    3.561484   -0.332473
     28          6           0        8.306516    4.011586   -0.582369
     29          6           0        9.245425    2.758616   -0.342915
     30          6           0        8.242679    1.663942   -0.313961
     31          6           0        8.586597    4.746832   -1.942175
     32          6           0       10.134599    2.928543    0.944496
     33          6           0        9.569003    2.564313    2.357278
     34          7           0        6.401480   -0.589566    0.279532
     35          6           0        7.754587   -0.767595    0.028539
     36          6           0        8.029868   -2.221033    0.038948
     37          6           0        6.767190   -2.807169    0.190114
     38          6           0        5.836288   -1.743194    0.382864
     39          6           0        9.361597   -2.990563   -0.166575
     40          6           0        6.078025   -4.011344    0.299252
     41          8           0        6.489495   -5.161539    0.166310
     42          6           0        4.505725   -3.709349    0.363717
     43          6           0        3.918428   -4.340057   -0.864543
     44          8           0        3.812043   -3.759126   -1.948143
     45          8           0        3.613760   -5.616974   -0.605152
     46          6           0        3.326460   -6.456901   -1.756936
     47          6           0       -1.829465   -3.945586   -0.752176
     48          6           0       -3.049265   -2.984210   -0.774129
     49          6           0       -4.128751   -2.968869   -1.599924
     50          6           0       -4.281689   -3.918791   -2.811222
     51          6           0       -5.154897   -1.953264   -1.200412
     52          6           0       -6.178922   -2.424194   -0.145219
     53          6           0       -6.207298   -1.654912    1.176350
     54          6           0       -7.696955   -1.328128    1.627423
     55          6           0       -7.724830   -1.027690    3.107872
     56          6           0       -8.359097   -0.146371    0.848518
     57          6           0       -9.781726   -0.440436    0.346369
     58          6           0      -10.907606    0.033177    1.355339
     59          6           0      -11.979513    0.933168    0.771727
     60          6           0      -12.198922    2.158370    1.714471
     61          6           0      -13.282050    0.086298    0.500096
     62          6           0      -13.972081    0.558570   -0.747439
     63          6           0      -15.318222    1.329624   -0.482959
     64          6           0      -15.542387    2.663282   -1.289346
     65          6           0      -15.000844    3.962104   -0.628585
     66          6           0      -17.034591    2.817906   -1.821209
     67          1           0        0.820449    2.150736    0.178558
     68          1           0        6.051314    5.438123   -0.641213
     69          1           0        9.666850    0.185372   -0.437434
     70          1           0        1.897486   -2.626005   -0.310928
     71          1           0        0.345683   -0.301132    1.025442
     72          1           0        0.578782   -0.113492   -1.936359
     73          1           0       -0.724282   -0.012512   -0.779883
     74          1           0       -0.079648   -1.627385   -1.301921
     75          1           0        0.811547   -1.901159    2.440315
     76          1           0        2.357159   -2.340134    2.571232
     77          1           0        0.133631   -4.074914    2.615967
     78          1           0        1.648771   -4.735968    2.164521
     79          1           0        0.617092    4.852552   -0.865496
     80          1           0        0.894147    5.843683    0.701502
     81          1           0        0.039753    4.252666    0.685489
     82          1           0        2.487607    8.189807   -1.568797
     83          1           0        1.895124    7.753739   -0.002971
     84          1           0        1.545733    6.695177   -1.474081
     85          1           0        8.424274    4.660280    0.286280
     86          1           0        9.887362    2.618958   -1.212106
     87          1           0        7.942608    5.618744   -2.054392
     88          1           0        8.454457    4.054693   -2.774289
     89          1           0        9.619955    5.053654   -2.106082
     90          1           0       10.307052    4.001759    1.031900
     91          1           0       11.048087    2.370210    0.740162
     92          1           0        8.529124    2.319702    2.140064
     93          1           0        9.663239    3.389360    3.063674
     94          1           0       10.071335    1.687770    2.766819
     95          1           0        9.375811   -3.753508    0.611670
     96          1           0       10.175720   -2.284022   -0.006251
     97          1           0        9.409011   -3.336111   -1.199880
     98          1           0        4.063068   -4.081356    1.288225
     99          1           0        2.570743   -5.952773   -2.358771
    100          1           0        3.132923   -7.457742   -1.370950
    101          1           0        4.270898   -6.425628   -2.298701
    102          1           0       -2.193913   -4.972234   -0.758863
    103          1           0       -1.225469   -3.900575   -1.658944
    104          1           0       -3.087353   -2.297779    0.071067
    105          1           0       -5.188230   -4.490625   -2.614209
    106          1           0       -3.371001   -4.519087   -2.822186
    107          1           0       -4.385214   -3.384962   -3.756247
    108          1           0       -5.696927   -1.732233   -2.119724
    109          1           0       -4.702706   -0.983515   -0.991590
    110          1           0       -6.023996   -3.494179   -0.001210
    111          1           0       -7.148691   -2.263861   -0.616227
    112          1           0       -5.833945   -0.681413    0.861726
    113          1           0       -5.603481   -2.137747    1.945056
    114          1           0       -8.307967   -2.227195    1.536452
    115          1           0       -7.048832   -0.190971    3.284950
    116          1           0       -7.208131   -1.765802    3.720034
    117          1           0       -8.702002   -0.860756    3.561725
    118          1           0       -7.853312    0.100932   -0.084962
    119          1           0       -8.443669    0.772711    1.429002
    120          1           0       -9.898854   -1.519213    0.241696
    121          1           0       -9.969160    0.041528   -0.613298
    122          1           0      -10.542906    0.592017    2.217136
    123          1           0      -11.357613   -0.839639    1.828820
    124          1           0      -11.690443    1.431334   -0.153052
    125          1           0      -11.318687    2.788173    1.841922
    126          1           0      -12.432691    1.701384    2.675992
    127          1           0      -13.038921    2.736842    1.326757
    128          1           0      -13.981660    0.350762    1.292749
    129          1           0      -13.138780   -0.993604    0.526394
    130          1           0      -14.275569   -0.368636   -1.235866
    131          1           0      -13.365181    1.126695   -1.452175
    132          1           0      -15.375233    1.534332    0.585853
    133          1           0      -16.173387    0.678141   -0.659659
    134          1           0      -14.939612    2.527606   -2.187940
    135          1           0      -14.865005    3.832960    0.445714
    136          1           0      -15.747146    4.740003   -0.787517
    137          1           0      -14.001913    4.221877   -0.977854
    138          1           0      -17.709482    2.867890   -0.966354
    139          1           0      -17.417623    1.930911   -2.324252
    140          1           0      -17.216418    3.728459   -2.391453
 ---------------------------------------------------------------------

 SCF Done:  E(RPBE1PBE) =  -3005.35929119     A.U. after   15 cycles

 Excitation energies and oscillator strengths:

 Excited State   1:      Singlet-A      1.8333 eV  676.28 nm  f=0.3746  <S**2>=0.000
     245 -> 248       -0.15708
     246 -> 247        0.69535
     246 <- 247       -0.11055
 This state for optimization and/or second-order correction.
 Total Energy, E(TD-HF/TD-DFT) =  -3005.29191722
 Copying the excited state density for this state as the 1-particle RhoCI density.

 Excited State   2:      Singlet-A      2.2645 eV  547.51 nm  f=0.0728  <S**2>=0.000
     245 -> 247        0.63790
     246 -> 248        0.28550

 Excited State   3:      Singlet-A      2.8146 eV  440.50 nm  f=0.0004  <S**2>=0.000
     244 -> 247        0.67426
     244 -> 249       -0.13947
     244 -> 250       -0.12349

 Excited State   4:      Singlet-A      3.0588 eV  405.33 nm  f=0.0001  <S**2>=0.000
     240 -> 247       -0.11198
     241 -> 247        0.29629
     243 -> 247        0.57525
     243 -> 249        0.13249

 Excited State   5:      Singlet-A      3.2050 eV  386.85 nm  f=0.1362  <S**2>=0.000
     241 -> 247       -0.38929
     243 -> 247        0.24228
     245 -> 247       -0.15746
     246 -> 248        0.46030
     246 -> 249       -0.16113

 The electronic state is 1-A.
 Alpha  occ. eigenvalues --  -46.92327 -19.26684 -19.24093 -19.21614 -19.18723
 Alpha  occ. eigenvalues --  -19.18297 -19.17719 -14.41644 -14.41130 -14.39177
 Alpha  occ. eigenvalues --  -14.38390 -10.37767 -10.34877 -10.31880 -10.30619
 Alpha  occ. eigenvalues --  -10.30145 -10.28844 -10.28365 -10.28236 -10.27987
 Alpha  occ. eigenvalues --  -10.27743 -10.27239 -10.27175 -10.27026 -10.26991
 Alpha  occ. eigenvalues --  -10.26184 -10.25970 -10.25935 -10.25762 -10.25654
 Alpha  occ. eigenvalues --  -10.25604 -10.25131 -10.25064 -10.24992 -10.24812
 Alpha  occ. eigenvalues --  -10.24757 -10.24576 -10.24364 -10.24363 -10.24143
 Alpha  occ. eigenvalues --  -10.24029 -10.24027 -10.23934 -10.23891 -10.23673
 Alpha  occ. eigenvalues --  -10.23401 -10.23396 -10.23236 -10.23230 -10.23203
 Alpha  occ. eigenvalues --  -10.23175 -10.23077 -10.23033 -10.22990 -10.22816
 Alpha  occ. eigenvalues --  -10.22773 -10.22752 -10.22473 -10.22224 -10.22162
 Alpha  occ. eigenvalues --  -10.22150 -10.22135 -10.22113 -10.21941 -10.21774
 Alpha  occ. eigenvalues --  -10.21607  -3.14344  -1.87172  -1.86689  -1.86583
 Alpha  occ. eigenvalues --   -1.11022  -1.10190  -1.04458  -1.03639  -1.02983
 Alpha  occ. eigenvalues --   -1.00868  -0.98902  -0.98599  -0.96190  -0.95606
 Alpha  occ. eigenvalues --   -0.86050  -0.84963  -0.83986  -0.83493  -0.82949
 Alpha  occ. eigenvalues --   -0.82744  -0.82449  -0.81998  -0.81528  -0.80998
 Alpha  occ. eigenvalues --   -0.80331  -0.79283  -0.78477  -0.77459  -0.77234
 Alpha  occ. eigenvalues --   -0.76655  -0.75721  -0.75113  -0.74886  -0.74596
 Alpha  occ. eigenvalues --   -0.73948  -0.72952  -0.72007  -0.71525  -0.70829
 Alpha  occ. eigenvalues --   -0.69879  -0.69564  -0.69140  -0.69106  -0.68348
 Alpha  occ. eigenvalues --   -0.67483  -0.66888  -0.66098  -0.64746  -0.63589
 Alpha  occ. eigenvalues --   -0.63259  -0.62364  -0.62107  -0.60762  -0.60009
 Alpha  occ. eigenvalues --   -0.59725  -0.59286  -0.58763  -0.58632  -0.58497
 Alpha  occ. eigenvalues --   -0.58264  -0.57934  -0.56918  -0.55705  -0.54595
 Alpha  occ. eigenvalues --   -0.54106  -0.53491  -0.53032  -0.52262  -0.51651
 Alpha  occ. eigenvalues --   -0.51076  -0.50511  -0.50347  -0.49825  -0.49598
 Alpha  occ. eigenvalues --   -0.49275  -0.49069  -0.48894  -0.48722  -0.48275
 Alpha  occ. eigenvalues --   -0.48205  -0.47635  -0.47281  -0.47244  -0.47054
 Alpha  occ. eigenvalues --   -0.46989  -0.46853  -0.46703  -0.46607  -0.46210
 Alpha  occ. eigenvalues --   -0.45845  -0.45734  -0.45624  -0.45119  -0.44999
 Alpha  occ. eigenvalues --   -0.44871  -0.44804  -0.44431  -0.44313  -0.44201
 Alpha  occ. eigenvalues --   -0.43947  -0.43745  -0.43576  -0.43469  -0.43353
 Alpha  occ. eigenvalues --   -0.43063  -0.42943  -0.42745  -0.42665  -0.42500
 Alpha  occ. eigenvalues --   -0.42436  -0.41929  -0.41849  -0.41586  -0.41224
 Alpha  occ. eigenvalues --   -0.41077  -0.40854  -0.40748  -0.40404  -0.40096
 Alpha  occ. eigenvalues --   -0.39970  -0.39780  -0.39652  -0.39445  -0.39190
 Alpha  occ. eigenvalues --   -0.39112  -0.38965  -0.38904  -0.38816  -0.38632
 Alpha  occ. eigenvalues --   -0.38521  -0.38412  -0.38340  -0.38088  -0.37870
 Alpha  occ. eigenvalues --   -0.37537  -0.37175  -0.37118  -0.36865  -0.36844
 Alpha  occ. eigenvalues --   -0.36724  -0.36616  -0.36398  -0.36084  -0.35574
 Alpha  occ. eigenvalues --   -0.35433  -0.35295  -0.35100  -0.34984  -0.34710
 Alpha  occ. eigenvalues --   -0.34259  -0.34168  -0.33721  -0.33483  -0.33318
 Alpha  occ. eigenvalues --   -0.33174  -0.33116  -0.32741  -0.32667  -0.32393
 Alpha  occ. eigenvalues --   -0.32288  -0.32202  -0.32031  -0.31963  -0.31327
 Alpha  occ. eigenvalues --   -0.30789  -0.30332  -0.30200  -0.29181  -0.29014
 Alpha  occ. eigenvalues --   -0.28967  -0.28668  -0.27565  -0.26557  -0.25890
 Alpha  occ. eigenvalues --   -0.25370  -0.25219  -0.25151  -0.24324  -0.20802
 Alpha  occ. eigenvalues --   -0.18147
 Alpha virt. eigenvalues --   -0.10647  -0.05023  -0.03608  -0.02106  -0.01068
 Alpha virt. eigenvalues --   -0.00864   0.00651   0.01568   0.02297   0.03966
 Alpha virt. eigenvalues --    0.04832   0.05029   0.05602   0.05679   0.05837

 Mulliken charges:
               1
     1  Mg   0.954824
     2  C   -0.004940
     3  C   -0.089672
     4  C   -0.064554
     5  C   -0.070906
     6  N   -0.430620
     7  C    0.026948
     8  C   -0.135662
     9  C   -0.105123
    10  C    0.085099
    11  C    0.026707
    12  C    0.042804
    13  C   -0.009381
    14  C    0.222727
    15  O   -0.245998
    16  O   -0.384751
    17  N   -0.436973
    18  C    0.184447
    19  C   -0.185709
    20  C   -0.035469
    21  C    0.150674
    22  C    0.054819
    23  C   -0.000510
    24  O   -0.247396
    25  C   -0.045555
    26  N   -0.445086
    27  C    0.096149
    28  C   -0.107960
    29  C   -0.094484
    30  C    0.034786
    31  C    0.006018
    32  C   -0.041523
    33  C   -0.072353
    34  N   -0.418584
    35  C    0.154606
    36  C   -0.200493
    37  C    0.021511
    38  C    0.147864
    39  C    0.081502
    40  C    0.062881
    41  O   -0.231996
    42  C   -0.127457
    43  C    0.302849
    44  O   -0.287028
    45  O   -0.331877
    46  C    0.146945
    47  C    0.211734
    48  C   -0.116807
    49  C   -0.263109
    50  C    0.036788
    51  C    0.003031
    52  C   -0.017445
    53  C   -0.003526
    54  C   -0.194665
    55  C   -0.015268
    56  C   -0.006149
    57  C   -0.040702
    58  C   -0.000421
    59  C   -0.235113
    60  C   -0.034707
    61  C    0.006128
    62  C   -0.038288
    63  C   -0.023114
    64  C   -0.231518
    65  C   -0.014640
    66  C   -0.049706
    67  H   -0.014145
    68  H    0.036249
    69  H    0.008068
    70  H    0.089330
    71  H    0.044988
    72  H    0.048837
    73  H    0.034627
    74  H    0.057498
    75  H    0.031871
    76  H    0.044996
    77  H    0.051998
    78  H    0.065825
    79  H    0.077314
    80  H    0.071127
    81  H    0.054800
    82  H    0.053157
    83  H    0.064941
    84  H    0.050128
    85  H    0.048692
    86  H    0.038236
    87  H    0.058095
    88  H    0.040515
    89  H    0.040477
    90  H    0.043523
    91  H    0.040889
    92  H    0.057554
    93  H    0.049034
    94  H    0.048308
    95  H    0.070690
    96  H    0.028973
    97  H    0.073680
    98  H    0.067597
    99  H    0.065475
   100  H    0.062839
   101  H    0.050383
   102  H    0.056236
   103  H    0.066676
   104  H    0.034923
   105  H    0.054184
   106  H    0.039054
   107  H    0.058511
   108  H    0.011498
   109  H    0.039726
   110  H    0.038365
   111  H    0.030694
   112  H    0.023297
   113  H    0.038980
   114  H    0.037275
   115  H    0.019375
   116  H    0.019704
   117  H    0.045644
   118  H    0.021343
   119  H    0.034487
   120  H    0.029556
   121  H    0.029909
   122  H    0.012944
   123  H    0.021023
   124  H    0.030007
   125  H    0.044588
   126  H    0.033923
   127  H    0.031500
   128  H    0.021234
   129  H    0.034338
   130  H    0.024884
   131  H    0.033377
   132  H    0.020217
   133  H    0.020988
   134  H    0.038887
   135  H    0.040282
   136  H    0.034017
   137  H    0.039294
   138  H    0.028053
   139  H    0.036874
   140  H    0.042967
 Sum of Mulliken charges =  -0.00000

 Dipole moment (field-independent basis, Debye):
    X=             -5.2601    Y=              1.9607    Z=              1.5626  Tot=              5.8271
 Quadrupole moment (field-independent basis, Debye-Ang):
   XX=           -382.5180   YY=           -431.4789   ZZ=           -397.5097
   XY=             23.1882   XZ=             10.8184   YZ=             -1.6305

 Normal termination of Gaussian 16 at Thu May  5 07:34:27 2022.
