 Gaussian 16, Revision A.03,
 Gaussian 16:  ES64L-G16RevA.03 25-Dec-2016

 --------------------------------
 #p wB97XD/Def2SVP td=(nstates=5)
 --------------------------------

 ----------------------------------------------------
 step_751_chromophore_18 TDDFT with wB97XD functional
 ----------------------------------------------------
 Symbolic Z-matrix:
 Charge =  0 Multiplicity = 1

                         Standard orientation:
 ---------------------------------------------------------------------
 Center     Atomic      Atomic             Coordinates (Angstroms)
 Number     Number       Type             X           Y           Z
 ---------------------------------------------------------------------
      1         12           0        5.227465    1.166910    0.517692
      2          6           0        4.490054   -2.203518    0.512301
      3          6           0        1.881387    1.910845    0.278403
      4          6           0        5.838732    4.453152   -0.220943
      5          6           0        8.614910    0.309038   -0.174085
      6          7           0        3.415997   -0.050577    0.393967
      7          6           0        3.325302   -1.425921    0.501722
      8          6           0        1.858519   -1.891887    0.494555
      9          6           0        1.002778   -0.559270    0.195247
     10          6           0        2.153591    0.569657    0.285428
     11          6           0        0.156215   -0.593069   -1.053685
     12          6           0        1.530172   -2.500563    1.880352
     13          6           0        0.917949   -3.985666    1.864235
     14          6           0        0.179317   -4.422313    0.520179
     15          8           0        0.660586   -5.097468   -0.372659
     16          8           0       -1.035370   -3.731004    0.469942
     17          7           0        4.019338    2.942817    0.317021
     18          6           0        2.665903    2.984315    0.278828
     19          6           0        2.220968    4.390974    0.130493
     20          6           0        3.387786    5.139065   -0.135155
     21          6           0        4.495259    4.161241   -0.006427
     22          6           0        0.796018    4.877140    0.209034
     23          6           0        3.535109    6.531280   -0.457329
     24          8           0        4.573867    7.172424   -0.367967
     25          6           0        2.252959    7.330156   -0.940445
     26          7           0        6.930184    2.165328   -0.240635
     27          6           0        6.918965    3.561484   -0.332473
     28          6           0        8.306516    4.011586   -0.582369
     29          6           0        9.245425    2.758616   -0.342915
     30          6           0        8.242679    1.663942   -0.313961
     31          6           0        8.586597    4.746832   -1.942175
     32          6           0       10.134599    2.928543    0.944496
     33          6           0        9.569003    2.564313    2.357278
     34          7           0        6.401480   -0.589566    0.279532
     35          6           0        7.754587   -0.767595    0.028539
     36          6           0        8.029868   -2.221033    0.038948
     37          6           0        6.767190   -2.807169    0.190114
     38          6           0        5.836288   -1.743194    0.382864
     39          6           0        9.361597   -2.990563   -0.166575
     40          6           0        6.078025   -4.011344    0.299252
     41          8           0        6.489495   -5.161539    0.166310
     42          6           0        4.505725   -3.709349    0.363717
     43          6           0        3.918428   -4.340057   -0.864543
     44          8           0        3.812043   -3.759126   -1.948143
     45          8           0        3.613760   -5.616974   -0.605152
     46          6           0        3.326460   -6.456901   -1.756936
     47          6           0       -1.829465   -3.945586   -0.752176
     48          6           0       -3.049265   -2.984210   -0.774129
     49          6           0       -4.128751   -2.968869   -1.599924
     50          6           0       -4.281689   -3.918791   -2.811222
     51          6           0       -5.154897   -1.953264   -1.200412
     52          6           0       -6.178922   -2.424194   -0.145219
     53          6           0       -6.207298   -1.654912    1.176350
     54          6           0       -7.696955   -1.328128    1.627423
     55          6           0       -7.724830   -1.027690    3.107872
     56          6           0       -8.359097   -0.146371    0.848518
     57          6           0       -9.781726   -0.440436    0.346369
     58          6           0      -10.907606    0.033177    1.355339
     59          6           0      -11.979513    0.933168    0.771727
     60          6           0      -12.198922    2.158370    1.714471
     61          6           0      -13.282050    0.086298    0.500096
     62          6           0      -13.972081    0.558570   -0.747439
     63          6           0      -15.318222    1.329624   -0.482959
     64          6           0      -15.542387    2.663282   -1.289346
     65          6           0      -15.000844    3.962104   -0.628585
     66          6           0      -17.034591    2.817906   -1.821209
     67          1           0        0.820449    2.150736    0.178558
     68          1           0        6.051314    5.438123   -0.641213
     69          1           0        9.666850    0.185372   -0.437434
     70          1           0        1.897486   -2.626005   -0.310928
     71          1           0        0.345683   -0.301132    1.025442
     72          1           0        0.578782   -0.113492   -1.936359
     73          1           0       -0.724282   -0.012512   -0.779883
     74          1           0       -0.079648   -1.627385   -1.301921
     75          1           0        0.811547   -1.901159    2.440315
     76          1           0        2.357159   -2.340134    2.571232
     77          1           0        0.133631   -4.074914    2.615967
     78          1           0        1.648771   -4.735968    2.164521
     79          1           0        0.617092    4.852552   -0.865496
     80          1           0        0.894147    5.843683    0.701502
     81          1           0        0.039753    4.252666    0.685489
     82          1           0        2.487607    8.189807   -1.568797
     83          1           0        1.895124    7.753739   -0.002971
     84          1           0        1.545733    6.695177   -1.474081
     85          1           0        8.424274    4.660280    0.286280
     86          1           0        9.887362    2.618958   -1.212106
     87          1           0        7.942608    5.618744   -2.054392
     88          1           0        8.454457    4.054693   -2.774289
     89          1           0        9.619955    5.053654   -2.106082
     90          1           0       10.307052    4.001759    1.031900
     91          1           0       11.048087    2.370210    0.740162
     92          1           0        8.529124    2.319702    2.140064
     93          1           0        9.663239    3.389360    3.063674
     94          1           0       10.071335    1.687770    2.766819
     95          1           0        9.375811   -3.753508    0.611670
     96          1           0       10.175720   -2.284022   -0.006251
     97          1           0        9.409011   -3.336111   -1.199880
     98          1           0        4.063068   -4.081356    1.288225
     99          1           0        2.570743   -5.952773   -2.358771
    100          1           0        3.132923   -7.457742   -1.370950
    101          1           0        4.270898   -6.425628   -2.298701
    102          1           0       -2.193913   -4.972234   -0.758863
    103          1           0       -1.225469   -3.900575   -1.658944
    104          1           0       -3.087353   -2.297779    0.071067
    105          1           0       -5.188230   -4.490625   -2.614209
    106          1           0       -3.371001   -4.519087   -2.822186
    107          1           0       -4.385214   -3.384962   -3.756247
    108          1           0       -5.696927   -1.732233   -2.119724
    109          1           0       -4.702706   -0.983515   -0.991590
    110          1           0       -6.023996   -3.494179   -0.001210
    111          1           0       -7.148691   -2.263861   -0.616227
    112          1           0       -5.833945   -0.681413    0.861726
    113          1           0       -5.603481   -2.137747    1.945056
    114          1           0       -8.307967   -2.227195    1.536452
    115          1           0       -7.048832   -0.190971    3.284950
    116          1           0       -7.208131   -1.765802    3.720034
    117          1           0       -8.702002   -0.860756    3.561725
    118          1           0       -7.853312    0.100932   -0.084962
    119          1           0       -8.443669    0.772711    1.429002
    120          1           0       -9.898854   -1.519213    0.241696
    121          1           0       -9.969160    0.041528   -0.613298
    122          1           0      -10.542906    0.592017    2.217136
    123          1           0      -11.357613   -0.839639    1.828820
    124          1           0      -11.690443    1.431334   -0.153052
    125          1           0      -11.318687    2.788173    1.841922
    126          1           0      -12.432691    1.701384    2.675992
    127          1           0      -13.038921    2.736842    1.326757
    128          1           0      -13.981660    0.350762    1.292749
    129          1           0      -13.138780   -0.993604    0.526394
    130          1           0      -14.275569   -0.368636   -1.235866
    131          1           0      -13.365181    1.126695   -1.452175
    132          1           0      -15.375233    1.534332    0.585853
    133          1           0      -16.173387    0.678141   -0.659659
    134          1           0      -14.939612    2.527606   -2.187940
    135          1           0      -14.865005    3.832960    0.445714
    136          1           0      -15.747146    4.740003   -0.787517
    137          1           0      -14.001913    4.221877   -0.977854
    138          1           0      -17.709482    2.867890   -0.966354
    139          1           0      -17.417623    1.930911   -2.324252
    140          1           0      -17.216418    3.728459   -2.391453
 ---------------------------------------------------------------------

 SCF Done:  E(RwB97XD) =  -3007.87362009     A.U. after   20 cycles

 Excitation energies and oscillator strengths:

 Excited State   1:      Singlet-A      1.6362 eV  757.74 nm  f=0.3845  <S**2>=0.000
     245 -> 248       -0.17258
     246 -> 247        0.68563
     245 <- 248       -0.11285
 This state for optimization and/or second-order correction.
 Total Energy, E(TD-HF/TD-DFT) =  -3007.81348923
 Copying the excited state density for this state as the 1-particle RhoCI density.

 Excited State   2:      Singlet-A      2.2141 eV  559.98 nm  f=0.0655  <S**2>=0.000
     245 -> 247        0.61925
     246 -> 248        0.32576

 Excited State   3:      Singlet-A      3.3863 eV  366.14 nm  f=0.0042  <S**2>=0.000
     244 -> 247        0.55506
     244 -> 249       -0.26901
     244 -> 250       -0.28011

 Excited State   4:      Singlet-A      3.4737 eV  356.92 nm  f=0.6190  <S**2>=0.000
     239 -> 247       -0.11617
     241 -> 247       -0.18396
     245 -> 247       -0.28856
     246 -> 248        0.58828
     245 <- 247        0.10695

 Excited State   5:      Singlet-A      3.5486 eV  349.39 nm  f=0.0329  <S**2>=0.000
     240 -> 247        0.29769
     240 -> 248       -0.11376
     240 -> 249        0.25534
     240 -> 250       -0.14102
     241 -> 247        0.34850
     241 -> 249        0.20939
     243 -> 247       -0.26467
     246 -> 248        0.11899

 The electronic state is 1-A.
 Alpha  occ. eigenvalues --  -46.95272 -19.31207 -19.28578 -19.26253 -19.23731
 Alpha  occ. eigenvalues --  -19.22921 -19.22324 -14.46761 -14.46114 -14.44262
 Alpha  occ. eigenvalues --  -14.43220 -10.44508 -10.41655 -10.38926 -10.37319
 Alpha  occ. eigenvalues --  -10.36640 -10.35331 -10.34676 -10.34494 -10.34353
 Alpha  occ. eigenvalues --  -10.33990 -10.33817 -10.33667 -10.33621 -10.33223
 Alpha  occ. eigenvalues --  -10.32495 -10.32324 -10.32200 -10.31914 -10.31862
 Alpha  occ. eigenvalues --  -10.31855 -10.31837 -10.31401 -10.31096 -10.31055
 Alpha  occ. eigenvalues --  -10.31004 -10.30955 -10.30899 -10.30824 -10.30408
 Alpha  occ. eigenvalues --  -10.30321 -10.30286 -10.30224 -10.30223 -10.30221
 Alpha  occ. eigenvalues --  -10.29933 -10.29782 -10.29687 -10.29659 -10.29623
 Alpha  occ. eigenvalues --  -10.29580 -10.29455 -10.29426 -10.29363 -10.29193
 Alpha  occ. eigenvalues --  -10.29133 -10.29111 -10.28842 -10.28665 -10.28609
 Alpha  occ. eigenvalues --  -10.28562 -10.28536 -10.28500 -10.28318 -10.28237
 Alpha  occ. eigenvalues --  -10.27674  -3.21163  -1.94737  -1.94255  -1.94147
 Alpha  occ. eigenvalues --   -1.18370  -1.17502  -1.12138  -1.10944  -1.10287
 Alpha  occ. eigenvalues --   -1.08163  -1.06267  -1.05932  -1.03568  -1.03043
 Alpha  occ. eigenvalues --   -0.93571  -0.92647  -0.91667  -0.91236  -0.90649
 Alpha  occ. eigenvalues --   -0.90497  -0.90184  -0.89525  -0.89073  -0.88683
 Alpha  occ. eigenvalues --   -0.87799  -0.86931  -0.86144  -0.85021  -0.84859
 Alpha  occ. eigenvalues --   -0.84317  -0.83388  -0.82882  -0.82457  -0.82318
 Alpha  occ. eigenvalues --   -0.81612  -0.80841  -0.79610  -0.79059  -0.78510
 Alpha  occ. eigenvalues --   -0.77471  -0.77282  -0.76814  -0.76691  -0.76020
 Alpha  occ. eigenvalues --   -0.75051  -0.74407  -0.73659  -0.72377  -0.71185
 Alpha  occ. eigenvalues --   -0.70842  -0.70011  -0.69582  -0.68400  -0.67584
 Alpha  occ. eigenvalues --   -0.67373  -0.66710  -0.66163  -0.66073  -0.65964
 Alpha  occ. eigenvalues --   -0.65891  -0.65629  -0.64561  -0.63071  -0.62102
 Alpha  occ. eigenvalues --   -0.61612  -0.60863  -0.60421  -0.59658  -0.59059
 Alpha  occ. eigenvalues --   -0.58515  -0.57911  -0.57757  -0.57230  -0.57024
 Alpha  occ. eigenvalues --   -0.56692  -0.56513  -0.56265  -0.56169  -0.55971
 Alpha  occ. eigenvalues --   -0.55682  -0.54957  -0.54682  -0.54593  -0.54413
 Alpha  occ. eigenvalues --   -0.54319  -0.54231  -0.54169  -0.53914  -0.53453
 Alpha  occ. eigenvalues --   -0.53235  -0.53141  -0.53039  -0.52452  -0.52341
 Alpha  occ. eigenvalues --   -0.52212  -0.52056  -0.51991  -0.51673  -0.51507
 Alpha  occ. eigenvalues --   -0.51400  -0.51088  -0.50901  -0.50782  -0.50620
 Alpha  occ. eigenvalues --   -0.50429  -0.50329  -0.50059  -0.49971  -0.49778
 Alpha  occ. eigenvalues --   -0.49741  -0.49198  -0.49084  -0.48766  -0.48455
 Alpha  occ. eigenvalues --   -0.48291  -0.48144  -0.47818  -0.47614  -0.47298
 Alpha  occ. eigenvalues --   -0.47174  -0.46938  -0.46849  -0.46533  -0.46377
 Alpha  occ. eigenvalues --   -0.46291  -0.46210  -0.46086  -0.45895  -0.45782
 Alpha  occ. eigenvalues --   -0.45674  -0.45526  -0.45502  -0.45196  -0.44922
 Alpha  occ. eigenvalues --   -0.44799  -0.44360  -0.44299  -0.43984  -0.43902
 Alpha  occ. eigenvalues --   -0.43863  -0.43571  -0.43507  -0.43155  -0.42581
 Alpha  occ. eigenvalues --   -0.42531  -0.42378  -0.42200  -0.42022  -0.41723
 Alpha  occ. eigenvalues --   -0.41235  -0.41213  -0.40652  -0.40504  -0.40292
 Alpha  occ. eigenvalues --   -0.40222  -0.39959  -0.39761  -0.39709  -0.39432
 Alpha  occ. eigenvalues --   -0.39319  -0.39230  -0.38989  -0.38935  -0.38359
 Alpha  occ. eigenvalues --   -0.37674  -0.37335  -0.37240  -0.36177  -0.35853
 Alpha  occ. eigenvalues --   -0.35742  -0.35305  -0.34616  -0.33236  -0.32805
 Alpha  occ. eigenvalues --   -0.32334  -0.31968  -0.31640  -0.31248  -0.25873
 Alpha  occ. eigenvalues --   -0.22246
 Alpha virt. eigenvalues --   -0.06463   0.00438   0.02523   0.04418   0.04869
 Alpha virt. eigenvalues --    0.06034   0.07358   0.08350   0.09152   0.10458
 Alpha virt. eigenvalues --    0.11503   0.11677   0.12385   0.12478   0.12519

 Mulliken charges:
               1
     1  Mg   0.945860
     2  C   -0.011769
     3  C   -0.105097
     4  C   -0.086546
     5  C   -0.087088
     6  N   -0.398938
     7  C   -0.005816
     8  C   -0.098764
     9  C   -0.079680
    10  C    0.068083
    11  C    0.043001
    12  C    0.047288
    13  C    0.007036
    14  C    0.212183
    15  O   -0.242120
    16  O   -0.383371
    17  N   -0.402961
    18  C    0.181727
    19  C   -0.174131
    20  C   -0.030029
    21  C    0.145480
    22  C    0.069209
    23  C   -0.006009
    24  O   -0.240310
    25  C   -0.031092
    26  N   -0.414926
    27  C    0.085170
    28  C   -0.077738
    29  C   -0.069226
    30  C    0.019405
    31  C    0.017284
    32  C   -0.029481
    33  C   -0.048921
    34  N   -0.375468
    35  C    0.146853
    36  C   -0.203612
    37  C    0.024862
    38  C    0.125224
    39  C    0.096062
    40  C    0.045503
    41  O   -0.224311
    42  C   -0.085077
    43  C    0.277393
    44  O   -0.280082
    45  O   -0.328702
    46  C    0.160224
    47  C    0.220093
    48  C   -0.125977
    49  C   -0.249065
    50  C    0.053738
    51  C    0.023172
    52  C   -0.004134
    53  C    0.014933
    54  C   -0.164117
    55  C   -0.002060
    56  C    0.006813
    57  C   -0.021882
    58  C    0.014261
    59  C   -0.207987
    60  C   -0.007896
    61  C    0.023182
    62  C   -0.023402
    63  C   -0.008961
    64  C   -0.201961
    65  C   -0.003292
    66  C   -0.034757
    67  H   -0.021506
    68  H    0.028991
    69  H    0.003376
    70  H    0.068495
    71  H    0.034342
    72  H    0.044352
    73  H    0.028978
    74  H    0.043742
    75  H    0.024520
    76  H    0.038025
    77  H    0.046434
    78  H    0.061312
    79  H    0.071441
    80  H    0.064476
    81  H    0.053327
    82  H    0.052537
    83  H    0.060482
    84  H    0.044216
    85  H    0.035607
    86  H    0.029085
    87  H    0.052341
    88  H    0.034081
    89  H    0.035196
    90  H    0.033393
    91  H    0.034153
    92  H    0.041461
    93  H    0.044155
    94  H    0.042975
    95  H    0.065744
    96  H    0.021783
    97  H    0.068578
    98  H    0.056831
    99  H    0.062174
   100  H    0.060510
   101  H    0.046055
   102  H    0.051023
   103  H    0.063052
   104  H    0.029937
   105  H    0.047932
   106  H    0.032879
   107  H    0.053655
   108  H    0.003363
   109  H    0.031881
   110  H    0.030348
   111  H    0.019807
   112  H    0.009206
   113  H    0.033333
   114  H    0.024157
   115  H    0.011114
   116  H    0.013620
   117  H    0.039867
   118  H    0.012653
   119  H    0.024588
   120  H    0.020121
   121  H    0.022388
   122  H   -0.000684
   123  H    0.012514
   124  H    0.015448
   125  H    0.038964
   126  H    0.025638
   127  H    0.014054
   128  H    0.008710
   129  H    0.027809
   130  H    0.017909
   131  H    0.023320
   132  H    0.007549
   133  H    0.013881
   134  H    0.025969
   135  H    0.032712
   136  H    0.029014
   137  H    0.034349
   138  H    0.020229
   139  H    0.031015
   140  H    0.037733
 Sum of Mulliken charges =  -0.00000

 Dipole moment (field-independent basis, Debye):
    X=             -5.7091    Y=              2.4369    Z=              1.5858  Tot=              6.4069
 Quadrupole moment (field-independent basis, Debye-Ang):
   XX=           -386.9395   YY=           -428.8912   ZZ=           -397.0357
   XY=             24.0323   XZ=             11.1715   YZ=             -1.8609

 Normal termination of Gaussian 16 at Thu May  5 08:03:03 2022.
