 Gaussian 16, Revision A.03,
 Gaussian 16:  ES64L-G16RevA.03 25-Dec-2016

 --------------------
 #p ZINDO=(nstates=5)
 --------------------

 -----------------------------
 step_751_chromophore_18 ZINDO
 -----------------------------
 Symbolic Z-matrix:
 Charge =  0 Multiplicity = 1

                         Standard orientation:
 ---------------------------------------------------------------------
 Center     Atomic      Atomic             Coordinates (Angstroms)
 Number     Number       Type             X           Y           Z
 ---------------------------------------------------------------------
      1         12           0        5.227465    1.166910    0.517692
      2          6           0        4.490054   -2.203518    0.512301
      3          6           0        1.881387    1.910845    0.278403
      4          6           0        5.838732    4.453152   -0.220943
      5          6           0        8.614910    0.309038   -0.174085
      6          7           0        3.415997   -0.050577    0.393967
      7          6           0        3.325302   -1.425921    0.501722
      8          6           0        1.858519   -1.891887    0.494555
      9          6           0        1.002778   -0.559270    0.195247
     10          6           0        2.153591    0.569657    0.285428
     11          6           0        0.156215   -0.593069   -1.053685
     12          6           0        1.530172   -2.500563    1.880352
     13          6           0        0.917949   -3.985666    1.864235
     14          6           0        0.179317   -4.422313    0.520179
     15          8           0        0.660586   -5.097468   -0.372659
     16          8           0       -1.035370   -3.731004    0.469942
     17          7           0        4.019338    2.942817    0.317021
     18          6           0        2.665903    2.984315    0.278828
     19          6           0        2.220968    4.390974    0.130493
     20          6           0        3.387786    5.139065   -0.135155
     21          6           0        4.495259    4.161241   -0.006427
     22          6           0        0.796018    4.877140    0.209034
     23          6           0        3.535109    6.531280   -0.457329
     24          8           0        4.573867    7.172424   -0.367967
     25          6           0        2.252959    7.330156   -0.940445
     26          7           0        6.930184    2.165328   -0.240635
     27          6           0        6.918965    3.561484   -0.332473
     28          6           0        8.306516    4.011586   -0.582369
     29          6           0        9.245425    2.758616   -0.342915
     30          6           0        8.242679    1.663942   -0.313961
     31          6           0        8.586597    4.746832   -1.942175
     32          6           0       10.134599    2.928543    0.944496
     33          6           0        9.569003    2.564313    2.357278
     34          7           0        6.401480   -0.589566    0.279532
     35          6           0        7.754587   -0.767595    0.028539
     36          6           0        8.029868   -2.221033    0.038948
     37          6           0        6.767190   -2.807169    0.190114
     38          6           0        5.836288   -1.743194    0.382864
     39          6           0        9.361597   -2.990563   -0.166575
     40          6           0        6.078025   -4.011344    0.299252
     41          8           0        6.489495   -5.161539    0.166310
     42          6           0        4.505725   -3.709349    0.363717
     43          6           0        3.918428   -4.340057   -0.864543
     44          8           0        3.812043   -3.759126   -1.948143
     45          8           0        3.613760   -5.616974   -0.605152
     46          6           0        3.326460   -6.456901   -1.756936
     47          6           0       -1.829465   -3.945586   -0.752176
     48          6           0       -3.049265   -2.984210   -0.774129
     49          6           0       -4.128751   -2.968869   -1.599924
     50          6           0       -4.281689   -3.918791   -2.811222
     51          6           0       -5.154897   -1.953264   -1.200412
     52          6           0       -6.178922   -2.424194   -0.145219
     53          6           0       -6.207298   -1.654912    1.176350
     54          6           0       -7.696955   -1.328128    1.627423
     55          6           0       -7.724830   -1.027690    3.107872
     56          6           0       -8.359097   -0.146371    0.848518
     57          6           0       -9.781726   -0.440436    0.346369
     58          6           0      -10.907606    0.033177    1.355339
     59          6           0      -11.979513    0.933168    0.771727
     60          6           0      -12.198922    2.158370    1.714471
     61          6           0      -13.282050    0.086298    0.500096
     62          6           0      -13.972081    0.558570   -0.747439
     63          6           0      -15.318222    1.329624   -0.482959
     64          6           0      -15.542387    2.663282   -1.289346
     65          6           0      -15.000844    3.962104   -0.628585
     66          6           0      -17.034591    2.817906   -1.821209
     67          1           0        0.820449    2.150736    0.178558
     68          1           0        6.051314    5.438123   -0.641213
     69          1           0        9.666850    0.185372   -0.437434
     70          1           0        1.897486   -2.626005   -0.310928
     71          1           0        0.345683   -0.301132    1.025442
     72          1           0        0.578782   -0.113492   -1.936359
     73          1           0       -0.724282   -0.012512   -0.779883
     74          1           0       -0.079648   -1.627385   -1.301921
     75          1           0        0.811547   -1.901159    2.440315
     76          1           0        2.357159   -2.340134    2.571232
     77          1           0        0.133631   -4.074914    2.615967
     78          1           0        1.648771   -4.735968    2.164521
     79          1           0        0.617092    4.852552   -0.865496
     80          1           0        0.894147    5.843683    0.701502
     81          1           0        0.039753    4.252666    0.685489
     82          1           0        2.487607    8.189807   -1.568797
     83          1           0        1.895124    7.753739   -0.002971
     84          1           0        1.545733    6.695177   -1.474081
     85          1           0        8.424274    4.660280    0.286280
     86          1           0        9.887362    2.618958   -1.212106
     87          1           0        7.942608    5.618744   -2.054392
     88          1           0        8.454457    4.054693   -2.774289
     89          1           0        9.619955    5.053654   -2.106082
     90          1           0       10.307052    4.001759    1.031900
     91          1           0       11.048087    2.370210    0.740162
     92          1           0        8.529124    2.319702    2.140064
     93          1           0        9.663239    3.389360    3.063674
     94          1           0       10.071335    1.687770    2.766819
     95          1           0        9.375811   -3.753508    0.611670
     96          1           0       10.175720   -2.284022   -0.006251
     97          1           0        9.409011   -3.336111   -1.199880
     98          1           0        4.063068   -4.081356    1.288225
     99          1           0        2.570743   -5.952773   -2.358771
    100          1           0        3.132923   -7.457742   -1.370950
    101          1           0        4.270898   -6.425628   -2.298701
    102          1           0       -2.193913   -4.972234   -0.758863
    103          1           0       -1.225469   -3.900575   -1.658944
    104          1           0       -3.087353   -2.297779    0.071067
    105          1           0       -5.188230   -4.490625   -2.614209
    106          1           0       -3.371001   -4.519087   -2.822186
    107          1           0       -4.385214   -3.384962   -3.756247
    108          1           0       -5.696927   -1.732233   -2.119724
    109          1           0       -4.702706   -0.983515   -0.991590
    110          1           0       -6.023996   -3.494179   -0.001210
    111          1           0       -7.148691   -2.263861   -0.616227
    112          1           0       -5.833945   -0.681413    0.861726
    113          1           0       -5.603481   -2.137747    1.945056
    114          1           0       -8.307967   -2.227195    1.536452
    115          1           0       -7.048832   -0.190971    3.284950
    116          1           0       -7.208131   -1.765802    3.720034
    117          1           0       -8.702002   -0.860756    3.561725
    118          1           0       -7.853312    0.100932   -0.084962
    119          1           0       -8.443669    0.772711    1.429002
    120          1           0       -9.898854   -1.519213    0.241696
    121          1           0       -9.969160    0.041528   -0.613298
    122          1           0      -10.542906    0.592017    2.217136
    123          1           0      -11.357613   -0.839639    1.828820
    124          1           0      -11.690443    1.431334   -0.153052
    125          1           0      -11.318687    2.788173    1.841922
    126          1           0      -12.432691    1.701384    2.675992
    127          1           0      -13.038921    2.736842    1.326757
    128          1           0      -13.981660    0.350762    1.292749
    129          1           0      -13.138780   -0.993604    0.526394
    130          1           0      -14.275569   -0.368636   -1.235866
    131          1           0      -13.365181    1.126695   -1.452175
    132          1           0      -15.375233    1.534332    0.585853
    133          1           0      -16.173387    0.678141   -0.659659
    134          1           0      -14.939612    2.527606   -2.187940
    135          1           0      -14.865005    3.832960    0.445714
    136          1           0      -15.747146    4.740003   -0.787517
    137          1           0      -14.001913    4.221877   -0.977854
    138          1           0      -17.709482    2.867890   -0.966354
    139          1           0      -17.417623    1.930911   -2.324252
    140          1           0      -17.216418    3.728459   -2.391453
 ---------------------------------------------------------------------

 SCF Done:  E(RZINDO/S) =  -474.170892150     A.U. after   20 cycles

 Excitation energies and oscillator strengths:

 Excited State   1:      Singlet-A      1.2205 eV 1015.86 nm  f=0.6200  <S**2>=0.000
     175 ->178        -0.17300
     176 ->177         0.66814
 This state for optimization and/or second-order correction.
 Total Energy, E(CIS/TDA) =  -474.126040290
 Copying the excited state density for this state as the 1-particle RhoCI density.

 Excited State   2:      Singlet-A      1.9321 eV  641.70 nm  f=0.0102  <S**2>=0.000
     175 ->177         0.51597
     176 ->178         0.45905

 Excited State   3:      Singlet-A      2.8827 eV  430.10 nm  f=0.1077  <S**2>=0.000
     175 ->177        -0.11997
     176 ->178         0.15045
     176 ->179         0.48654
     176 ->180         0.15572
     176 ->181         0.28945
     176 ->182         0.29989

 Excited State   4:      Singlet-A      2.8987 eV  427.73 nm  f=0.0030  <S**2>=0.000
     170 ->177         0.28979
     170 ->179         0.26936
     170 ->180         0.31867
     170 ->182        -0.14728
     170 ->186         0.12145
     170 ->187        -0.12093
     171 ->177         0.18442
     171 ->179         0.16074
     171 ->180         0.18700

 Excited State   5:      Singlet-A      2.9414 eV  421.51 nm  f=0.0761  <S**2>=0.000
     175 ->177         0.11784
     176 ->178        -0.11370
     176 ->179         0.43118
     176 ->181        -0.27797
     176 ->182        -0.41391

 The electronic state is 1-A.
 Alpha  occ. eigenvalues --   -1.83928  -1.81982  -1.78396  -1.72705  -1.71270
 Alpha  occ. eigenvalues --   -1.68384  -1.65517  -1.61323  -1.59149  -1.57697
 Alpha  occ. eigenvalues --   -1.54068  -1.50253  -1.47824  -1.46714  -1.45282
 Alpha  occ. eigenvalues --   -1.43484  -1.41776  -1.40370  -1.38753  -1.38733
 Alpha  occ. eigenvalues --   -1.36233  -1.34083  -1.32765  -1.31277  -1.28898
 Alpha  occ. eigenvalues --   -1.28066  -1.24787  -1.21034  -1.19670  -1.17599
 Alpha  occ. eigenvalues --   -1.16332  -1.15878  -1.15483  -1.14815  -1.13522
 Alpha  occ. eigenvalues --   -1.12510  -1.12436  -1.09781  -1.05598  -1.02901
 Alpha  occ. eigenvalues --   -1.02557  -1.01404  -0.98173  -0.96929  -0.96644
 Alpha  occ. eigenvalues --   -0.96206  -0.94769  -0.93800  -0.92710  -0.92567
 Alpha  occ. eigenvalues --   -0.91880  -0.90677  -0.89341  -0.87314  -0.86481
 Alpha  occ. eigenvalues --   -0.85420  -0.84920  -0.82916  -0.80850  -0.79582
 Alpha  occ. eigenvalues --   -0.79444  -0.77350  -0.76992  -0.76211  -0.75154
 Alpha  occ. eigenvalues --   -0.74496  -0.74425  -0.74058  -0.73719  -0.73066
 Alpha  occ. eigenvalues --   -0.72596  -0.72013  -0.71581  -0.71009  -0.70455
 Alpha  occ. eigenvalues --   -0.69712  -0.69570  -0.69329  -0.68708  -0.67717
 Alpha  occ. eigenvalues --   -0.67173  -0.66889  -0.66276  -0.65764  -0.65448
 Alpha  occ. eigenvalues --   -0.65296  -0.64350  -0.63838  -0.63547  -0.63227
 Alpha  occ. eigenvalues --   -0.62804  -0.62668  -0.62296  -0.62156  -0.62033
 Alpha  occ. eigenvalues --   -0.61820  -0.61648  -0.61053  -0.60577  -0.59833
 Alpha  occ. eigenvalues --   -0.59514  -0.59285  -0.59130  -0.58769  -0.58299
 Alpha  occ. eigenvalues --   -0.57904  -0.57752  -0.57444  -0.56999  -0.56509
 Alpha  occ. eigenvalues --   -0.56483  -0.55423  -0.55051  -0.54835  -0.54665
 Alpha  occ. eigenvalues --   -0.54407  -0.53566  -0.53493  -0.53244  -0.52858
 Alpha  occ. eigenvalues --   -0.52498  -0.52156  -0.51914  -0.51519  -0.51417
 Alpha  occ. eigenvalues --   -0.51340  -0.50924  -0.50466  -0.50447  -0.50328
 Alpha  occ. eigenvalues --   -0.50049  -0.49984  -0.49801  -0.49625  -0.49206
 Alpha  occ. eigenvalues --   -0.48784  -0.48299  -0.48123  -0.47904  -0.47159
 Alpha  occ. eigenvalues --   -0.47121  -0.46918  -0.46489  -0.46478  -0.46302
 Alpha  occ. eigenvalues --   -0.46244  -0.45815  -0.45362  -0.45174  -0.45092
 Alpha  occ. eigenvalues --   -0.44888  -0.44480  -0.44442  -0.44158  -0.43991
 Alpha  occ. eigenvalues --   -0.43669  -0.43217  -0.43008  -0.42884  -0.41948
 Alpha  occ. eigenvalues --   -0.41495  -0.41392  -0.39940  -0.39300  -0.39123
 Alpha  occ. eigenvalues --   -0.37110  -0.36447  -0.35420  -0.34713  -0.33600
 Alpha  occ. eigenvalues --   -0.33371  -0.32171  -0.31974  -0.31882  -0.26604
 Alpha  occ. eigenvalues --   -0.20922
 Alpha virt. eigenvalues --   -0.07989  -0.01618  -0.00429   0.01192   0.01352
 Alpha virt. eigenvalues --    0.01395   0.03023   0.04101   0.04419   0.05488
 Alpha virt. eigenvalues --    0.06652   0.07228   0.07796   0.07996   0.08802

 Mulliken charges:
               1
     1  Mg   0.424256
     2  C   -0.052472
     3  C   -0.057552
     4  C   -0.084844
     5  C   -0.061709
     6  N   -0.295394
     7  C    0.110443
     8  C    0.006504
     9  C    0.004033
    10  C    0.126244
    11  C   -0.044328
    12  C   -0.021087
    13  C   -0.000791
    14  C    0.461442
    15  O   -0.492369
    16  O   -0.276907
    17  N   -0.323886
    18  C    0.133300
    19  C    0.028739
    20  C   -0.048950
    21  C    0.157736
    22  C   -0.046442
    23  C    0.328582
    24  O   -0.526877
    25  C   -0.041382
    26  N   -0.294439
    27  C    0.164962
    28  C    0.004066
    29  C    0.003204
    30  C    0.098494
    31  C   -0.048495
    32  C   -0.031689
    33  C   -0.057924
    34  N   -0.296248
    35  C    0.073358
    36  C    0.015138
    37  C   -0.056826
    38  C    0.125411
    39  C   -0.038485
    40  C    0.327132
    41  O   -0.541905
    42  C    0.047258
    43  C    0.502839
    44  O   -0.542476
    45  O   -0.253222
    46  C    0.074313
    47  C    0.100529
    48  C   -0.103003
    49  C   -0.010044
    50  C   -0.039750
    51  C   -0.017582
    52  C   -0.027936
    53  C   -0.036025
    54  C   -0.004728
    55  C   -0.058175
    56  C   -0.030856
    57  C   -0.039479
    58  C   -0.040161
    59  C   -0.016349
    60  C   -0.061349
    61  C   -0.033822
    62  C   -0.035480
    63  C   -0.037927
    64  C   -0.014585
    65  C   -0.055614
    66  C   -0.060799
    67  H    0.011706
    68  H    0.047182
    69  H    0.027542
    70  H    0.059994
    71  H    0.027794
    72  H    0.027310
    73  H    0.013742
    74  H    0.031898
    75  H    0.016956
    76  H    0.030972
    77  H    0.029193
    78  H    0.040486
    79  H    0.044889
    80  H    0.039865
    81  H    0.032085
    82  H    0.036704
    83  H    0.041569
    84  H    0.029710
    85  H    0.030959
    86  H    0.027942
    87  H    0.027388
    88  H    0.021338
    89  H    0.018840
    90  H    0.017230
    91  H    0.020496
    92  H    0.028812
    93  H    0.023905
    94  H    0.021845
    95  H    0.041266
    96  H    0.015986
    97  H    0.044100
    98  H    0.046571
    99  H    0.056198
   100  H    0.041110
   101  H    0.040543
   102  H    0.042254
   103  H    0.055607
   104  H    0.027469
   105  H    0.032905
   106  H    0.029532
   107  H    0.032881
   108  H    0.003219
   109  H    0.026778
   110  H    0.022513
   111  H    0.016717
   112  H    0.020350
   113  H    0.032901
   114  H    0.020853
   115  H    0.009906
   116  H    0.007628
   117  H    0.022677
   118  H    0.013296
   119  H    0.024548
   120  H    0.018387
   121  H    0.020851
   122  H    0.015089
   123  H    0.014897
   124  H    0.019664
   125  H    0.021345
   126  H    0.016584
   127  H    0.018158
   128  H    0.018432
   129  H    0.027048
   130  H    0.008168
   131  H    0.027617
   132  H    0.017066
   133  H    0.016729
   134  H    0.011492
   135  H    0.016541
   136  H    0.023406
   137  H    0.021776
   138  H    0.009999
   139  H    0.019720
   140  H    0.023248
 Sum of Mulliken charges =  -0.00000

 Dipole moment (field-independent basis, Debye):
    X=             -8.4340    Y=              5.0887    Z=              3.0754  Tot=             10.3192
 N-N= 4.331434158572D+03 E-N= 0.000000000000D+00  KE=-9.337741467917D+03
 Leave Link  601 at Thu May  5 08:16:50 2022, MaxMem=  6710886400 cpu:               0.8 elap:               0.0
 (Enter /sw/apps/gaussian-16.0/g16/l9999.exe)
 1\1\GINC-BP1-COMPUTE159\SP\RZINDO CIS\STO-3G\C55H74Mg1N4O6\OF15641\05-
 May-2022\0\\#p ZINDO=(nstates=5)\\step_751_chromophore_18 ZINDO\\0,1\M
 g,0,35.284,49.18,25.522\C,0,35.36,47.483,28.525\C,0,33.753,51.847,27.0
 55\C,0,34.483,50.652,22.537\C,0,35.982,46.091,23.891\N,0,34.63,49.571,
 27.571\C,0,34.84,48.774,28.681\C,0,34.342,49.461,29.965\C,0,33.611,50.
 805,29.458\C,0,34.,50.792,27.891\C,0,32.149,50.927,29.812\C,0,35.565,4
 9.763,30.866\C,0,35.48,49.205,32.37\C,0,34.012,48.959,32.942\O,0,33.43

 Normal termination of Gaussian 16 at Thu May  5 08:16:50 2022.
