 Gaussian 16, Revision A.03,
 Gaussian 16:  ES64L-G16RevA.03 25-Dec-2016

 ------------------------------
 #p blyp/Def2SVP td=(nstates=5)
 ------------------------------

 -------------------------------------------------
 step_851_chromophore_1 TDDFT with blyp functional
 -------------------------------------------------
 Symbolic Z-matrix:
 Charge =  0 Multiplicity = 1

                         Standard orientation:
 ---------------------------------------------------------------------
 Center     Atomic      Atomic             Coordinates (Angstroms)
 Number     Number       Type             X           Y           Z
 ---------------------------------------------------------------------
      1         12           0        6.072074    0.503030    0.108496
      2          6           0        3.982677   -2.390020   -0.491172
      3          6           0        3.551883    2.437597   -1.040872
      4          6           0        8.291827    3.100918    0.141483
      5          6           0        8.672194   -1.657468    0.840827
      6          7           0        3.999363   -0.050972   -0.626193
      7          6           0        3.380603   -1.194238   -0.877006
      8          6           0        2.010241   -1.018675   -1.526851
      9          6           0        1.855575    0.542747   -1.720995
     10          6           0        3.235257    1.020284   -1.120564
     11          6           0        1.723495    0.915341   -3.193241
     12          6           0        0.762867   -1.675630   -0.748953
     13          6           0       -0.625764   -0.940186   -0.739244
     14          6           0       -1.803898   -1.659761   -0.038530
     15          8           0       -1.838106   -2.255892    1.041746
     16          8           0       -2.892412   -1.712007   -0.878339
     17          7           0        5.879584    2.511953   -0.280164
     18          6           0        4.772366    3.127567   -0.758871
     19          6           0        5.045941    4.504283   -0.899298
     20          6           0        6.369737    4.766469   -0.435400
     21          6           0        6.882697    3.392031   -0.248829
     22          6           0        3.982987    5.461913   -1.407781
     23          6           0        7.025666    6.021973   -0.129897
     24          8           0        8.191763    6.099070    0.136681
     25          6           0        6.310636    7.322824   -0.362949
     26          7           0        8.235303    0.700012    0.273280
     27          6           0        8.826523    1.881048    0.457303
     28          6           0       10.324465    1.705680    0.575298
     29          6           0       10.380042    0.270251    1.253898
     30          6           0        9.019631   -0.302455    0.767387
     31          6           0       11.069832    1.800032   -0.769271
     32          6           0       10.466016    0.166600    2.768397
     33          6           0        9.574253    1.156884    3.583794
     34          7           0        6.284611   -1.612341    0.232269
     35          6           0        7.473050   -2.353587    0.459006
     36          6           0        7.126571   -3.708611    0.440175
     37          6           0        5.750023   -3.716063    0.090445
     38          6           0        5.268676   -2.466046   -0.101981
     39          6           0        8.056985   -4.905277    0.636836
     40          6           0        4.722931   -4.666630   -0.166822
     41          8           0        4.645000   -5.889466   -0.042816
     42          6           0        3.590539   -3.807454   -0.723536
     43          6           0        2.308163   -4.209050   -0.035530
     44          8           0        1.896802   -3.845041    1.050996
     45          8           0        1.609096   -5.165088   -0.723812
     46          6           0        0.428499   -5.911651   -0.277576
     47          6           0       -4.086944   -2.488980   -0.340199
     48          6           0       -5.403071   -1.786826   -0.896657
     49          6           0       -6.674515   -2.252927   -0.735115
     50          6           0       -7.012355   -3.605638   -0.051453
     51          6           0       -7.780869   -1.429016   -1.289300
     52          6           0       -8.684528   -0.729157   -0.253317
     53          6           0       -9.019052    0.693128   -0.542970
     54          6           0       -8.789313    1.722115    0.562422
     55          6           0       -7.260595    2.029792    0.755271
     56          6           0       -9.339676    1.350715    1.919779
     57          6           0      -10.755724    1.952618    2.252352
     58          6           0      -11.880463    0.912387    2.075927
     59          6           0      -13.206118    1.384615    2.562469
     60          6           0      -13.276952    1.541428    4.202010
     61          6           0      -14.384505    0.659715    1.851081
     62          6           0      -14.740846    1.461134    0.551186
     63          6           0      -14.611718    0.643218   -0.722117
     64          6           0      -13.846705    1.323446   -1.853358
     65          6           0      -14.800781    2.074462   -2.755366
     66          6           0      -12.799303    0.383628   -2.590002
     67          1           0        2.691233    3.012425   -1.389260
     68          1           0        8.961971    3.942847   -0.045284
     69          1           0        9.575934   -2.183340    1.155399
     70          1           0        2.034796   -1.453216   -2.526274
     71          1           0        1.056584    1.042956   -1.173746
     72          1           0        0.832868    1.541345   -3.246158
     73          1           0        1.574043    0.058659   -3.851064
     74          1           0        2.542368    1.511357   -3.593819
     75          1           0        1.069881   -1.734365    0.295223
     76          1           0        0.560418   -2.631604   -1.232645
     77          1           0       -1.078437   -0.596485   -1.669526
     78          1           0       -0.479206   -0.021793   -0.170154
     79          1           0        2.993839    5.025792   -1.268833
     80          1           0        4.359205    5.792487   -2.375815
     81          1           0        3.818019    6.298084   -0.728002
     82          1           0        5.743056    7.292926   -1.294453
     83          1           0        6.886839    8.237039   -0.224989
     84          1           0        5.443461    7.277245    0.296619
     85          1           0       10.661025    2.484664    1.259252
     86          1           0       11.300837   -0.238450    0.971192
     87          1           0       11.341222    2.832653   -0.990245
     88          1           0       10.527156    1.440848   -1.643362
     89          1           0       11.961387    1.172460   -0.765970
     90          1           0       11.489516    0.178205    3.145433
     91          1           0       10.083678   -0.778568    3.152625
     92          1           0       10.272994    1.949404    3.848985
     93          1           0        9.368721    0.658492    4.531101
     94          1           0        8.606335    1.428830    3.162596
     95          1           0        8.706163   -4.911043   -0.239616
     96          1           0        7.425967   -5.792517    0.609020
     97          1           0        8.643976   -4.769735    1.544665
     98          1           0        3.510878   -4.016023   -1.790764
     99          1           0        0.593613   -6.972736   -0.090386
    100          1           0       -0.255110   -5.834393   -1.122872
    101          1           0       -0.045079   -5.467141    0.598934
    102          1           0       -4.174608   -2.349678    0.736548
    103          1           0       -3.877110   -3.506717   -0.670098
    104          1           0       -5.310759   -0.799809   -1.349892
    105          1           0       -7.410199   -4.255821   -0.830336
    106          1           0       -7.654277   -3.535809    0.827483
    107          1           0       -6.150038   -4.096656    0.399042
    108          1           0       -8.443131   -2.141952   -1.780388
    109          1           0       -7.449190   -0.739987   -2.067262
    110          1           0       -8.025577   -0.759743    0.614108
    111          1           0       -9.556011   -1.346108   -0.037944
    112          1           0      -10.080892    0.768409   -0.778313
    113          1           0       -8.494071    1.032666   -1.435624
    114          1           0       -9.212007    2.681017    0.261864
    115          1           0       -6.773013    1.758265    1.691986
    116          1           0       -7.215664    3.119323    0.735738
    117          1           0       -6.722891    1.699910   -0.132833
    118          1           0       -8.699351    1.724050    2.718923
    119          1           0       -9.425435    0.275847    2.079352
    120          1           0      -10.998594    2.636024    1.438706
    121          1           0      -10.913540    2.420049    3.223975
    122          1           0      -11.538233    0.043826    2.638654
    123          1           0      -11.978203    0.647229    1.022586
    124          1           0      -13.278310    2.456659    2.382778
    125          1           0      -12.356352    1.116286    4.600118
    126          1           0      -14.183392    1.033574    4.530280
    127          1           0      -13.352620    2.605689    4.428020
    128          1           0      -15.220760    0.544046    2.540370
    129          1           0      -14.111980   -0.390065    1.738524
    130          1           0      -14.150547    2.369231    0.432606
    131          1           0      -15.642593    2.034075    0.770422
    132          1           0      -15.625144    0.438392   -1.068408
    133          1           0      -14.128239   -0.326694   -0.607798
    134          1           0      -13.129023    2.087458   -1.554381
    135          1           0      -15.059984    1.264007   -3.437765
    136          1           0      -14.281761    2.921848   -3.201767
    137          1           0      -15.726790    2.368559   -2.260836
    138          1           0      -12.866657    0.607564   -3.654890
    139          1           0      -13.056555   -0.668793   -2.464076
    140          1           0      -11.815639    0.647992   -2.203159
 ---------------------------------------------------------------------

 SCF Done:  E(RB-LYP) =  -3007.32975421     A.U. after   21 cycles

 Excitation energies and oscillator strengths:

 Excited State   1:      Singlet-A      1.7062 eV  726.69 nm  f=0.0302  <S**2>=0.000
     244 -> 247        0.61064
     245 -> 247        0.30014
     246 -> 247       -0.17365
 This state for optimization and/or second-order correction.
 Total Energy, E(TD-HF/TD-DFT) =  -3007.26705402
 Copying the excited state density for this state as the 1-particle RhoCI density.

 Excited State   2:      Singlet-A      1.7892 eV  692.96 nm  f=0.0157  <S**2>=0.000
     243 -> 247        0.68619
     246 -> 247        0.13161

 Excited State   3:      Singlet-A      1.8300 eV  677.51 nm  f=0.2567  <S**2>=0.000
     243 -> 247       -0.14221
     245 -> 247        0.15919
     245 -> 248       -0.19921
     246 -> 247        0.64691
     246 <- 247       -0.13948

 Excited State   4:      Singlet-A      1.9572 eV  633.46 nm  f=0.0890  <S**2>=0.000
     242 -> 247        0.17993
     244 -> 247       -0.31743
     245 -> 247        0.56046
     246 -> 248        0.19518

 Excited State   5:      Singlet-A      2.1712 eV  571.03 nm  f=0.0001  <S**2>=0.000
     241 -> 247        0.70696

 The electronic state is 1-A.
 Alpha  occ. eigenvalues --  -46.27892 -18.81513 -18.80302 -18.76048 -18.75393
 Alpha  occ. eigenvalues --  -18.75267 -18.74907 -14.04011 -14.02783 -14.01745
 Alpha  occ. eigenvalues --  -14.00290 -10.03820 -10.03187  -9.99156  -9.98883
 Alpha  occ. eigenvalues --   -9.98512  -9.97551  -9.97260  -9.96835  -9.96606
 Alpha  occ. eigenvalues --   -9.96446  -9.95794  -9.95624  -9.95429  -9.94793
 Alpha  occ. eigenvalues --   -9.94672  -9.94131  -9.94070  -9.93806  -9.93782
 Alpha  occ. eigenvalues --   -9.93773  -9.93532  -9.93487  -9.93460  -9.93343
 Alpha  occ. eigenvalues --   -9.93180  -9.93165  -9.93101  -9.93080  -9.92811
 Alpha  occ. eigenvalues --   -9.92554  -9.92481  -9.92437  -9.92377  -9.92263
 Alpha  occ. eigenvalues --   -9.92192  -9.92032  -9.91949  -9.91751  -9.91577
 Alpha  occ. eigenvalues --   -9.91563  -9.91394  -9.91334  -9.91267  -9.91232
 Alpha  occ. eigenvalues --   -9.91217  -9.91185  -9.91166  -9.90967  -9.90957
 Alpha  occ. eigenvalues --   -9.90848  -9.90763  -9.90693  -9.90688  -9.90420
 Alpha  occ. eigenvalues --   -9.90234  -2.92370  -1.72804  -1.72271  -1.72057
 Alpha  occ. eigenvalues --   -0.96518  -0.96329  -0.92689  -0.90668  -0.88132
 Alpha  occ. eigenvalues --   -0.87947  -0.87366  -0.86593  -0.86469  -0.85046
 Alpha  occ. eigenvalues --   -0.76912  -0.74097  -0.72981  -0.72628  -0.72215
 Alpha  occ. eigenvalues --   -0.72111  -0.71568  -0.71068  -0.70960  -0.70774
 Alpha  occ. eigenvalues --   -0.69344  -0.68919  -0.67867  -0.67380  -0.66961
 Alpha  occ. eigenvalues --   -0.66366  -0.66033  -0.65251  -0.64709  -0.64435
 Alpha  occ. eigenvalues --   -0.63661  -0.62927  -0.62546  -0.61823  -0.61127
 Alpha  occ. eigenvalues --   -0.60829  -0.60362  -0.60203  -0.59324  -0.58941
 Alpha  occ. eigenvalues --   -0.58430  -0.58000  -0.56984  -0.55958  -0.55224
 Alpha  occ. eigenvalues --   -0.54220  -0.53871  -0.53332  -0.53212  -0.51665
 Alpha  occ. eigenvalues --   -0.51613  -0.51240  -0.50474  -0.49738  -0.49219
 Alpha  occ. eigenvalues --   -0.48448  -0.48195  -0.48002  -0.47843  -0.46856
 Alpha  occ. eigenvalues --   -0.46168  -0.46062  -0.45913  -0.45239  -0.44637
 Alpha  occ. eigenvalues --   -0.44186  -0.43647  -0.42940  -0.42674  -0.42317
 Alpha  occ. eigenvalues --   -0.42115  -0.41923  -0.41544  -0.41476  -0.41190
 Alpha  occ. eigenvalues --   -0.41091  -0.40853  -0.40452  -0.40125  -0.39859
 Alpha  occ. eigenvalues --   -0.39732  -0.39411  -0.39386  -0.39247  -0.38913
 Alpha  occ. eigenvalues --   -0.38844  -0.38734  -0.38472  -0.38351  -0.38145
 Alpha  occ. eigenvalues --   -0.37916  -0.37874  -0.37743  -0.37590  -0.37558
 Alpha  occ. eigenvalues --   -0.37432  -0.37130  -0.36750  -0.36591  -0.36378
 Alpha  occ. eigenvalues --   -0.36338  -0.36208  -0.36131  -0.35873  -0.35512
 Alpha  occ. eigenvalues --   -0.35308  -0.35228  -0.35146  -0.34912  -0.34829
 Alpha  occ. eigenvalues --   -0.34740  -0.34593  -0.34074  -0.34055  -0.33843
 Alpha  occ. eigenvalues --   -0.33659  -0.33566  -0.33300  -0.33192  -0.33119
 Alpha  occ. eigenvalues --   -0.33056  -0.32878  -0.32669  -0.32530  -0.32436
 Alpha  occ. eigenvalues --   -0.32045  -0.31926  -0.31693  -0.31647  -0.31381
 Alpha  occ. eigenvalues --   -0.31354  -0.31176  -0.30885  -0.30639  -0.30610
 Alpha  occ. eigenvalues --   -0.30515  -0.30356  -0.30245  -0.29966  -0.29777
 Alpha  occ. eigenvalues --   -0.29570  -0.29500  -0.29172  -0.28938  -0.28842
 Alpha  occ. eigenvalues --   -0.28549  -0.28452  -0.27880  -0.27642  -0.27489
 Alpha  occ. eigenvalues --   -0.27186  -0.27097  -0.26857  -0.26788  -0.26406
 Alpha  occ. eigenvalues --   -0.26255  -0.26194  -0.25694  -0.25250  -0.24642
 Alpha  occ. eigenvalues --   -0.24336  -0.24011  -0.23802  -0.23538  -0.23181
 Alpha  occ. eigenvalues --   -0.23077  -0.22287  -0.21226  -0.21084  -0.20626
 Alpha  occ. eigenvalues --   -0.20096  -0.19810  -0.18580  -0.18414  -0.17308
 Alpha  occ. eigenvalues --   -0.16457
 Alpha virt. eigenvalues --   -0.12118  -0.06860  -0.06243  -0.04534  -0.02780
 Alpha virt. eigenvalues --   -0.02413  -0.01892  -0.01707  -0.01487   0.00144
 Alpha virt. eigenvalues --    0.01063   0.01202   0.01883   0.02216   0.02873

 Mulliken charges:
               1
     1  Mg   0.683167
     2  C   -0.023725
     3  C   -0.050974
     4  C   -0.053533
     5  C   -0.046791
     6  N   -0.180654
     7  C   -0.113553
     8  C    0.069860
     9  C   -0.052723
    10  C   -0.004030
    11  C    0.120456
    12  C    0.103893
    13  C    0.127048
    14  C    0.070498
    15  O   -0.198368
    16  O   -0.293660
    17  N   -0.263502
    18  C    0.156428
    19  C   -0.154218
    20  C    0.044444
    21  C    0.030119
    22  C    0.172426
    23  C   -0.103599
    24  O   -0.143787
    25  C    0.149794
    26  N   -0.202720
    27  C    0.052978
    28  C    0.035600
    29  C    0.047821
    30  C   -0.003022
    31  C    0.142662
    32  C    0.059677
    33  C    0.047669
    34  N   -0.298848
    35  C    0.150379
    36  C   -0.174177
    37  C    0.082944
    38  C    0.154848
    39  C    0.181740
    40  C   -0.071107
    41  O   -0.139068
    42  C    0.089451
    43  C    0.080608
    44  O   -0.169903
    45  O   -0.284001
    46  C    0.213491
    47  C    0.282296
    48  C   -0.100303
    49  C   -0.153351
    50  C    0.123907
    51  C    0.167479
    52  C    0.053677
    53  C    0.123599
    54  C   -0.073854
    55  C    0.099799
    56  C    0.144467
    57  C    0.038913
    58  C    0.070154
    59  C   -0.103050
    60  C    0.081847
    61  C    0.135580
    62  C    0.083575
    63  C    0.165842
    64  C   -0.146136
    65  C    0.115138
    66  C    0.088014
    67  H   -0.065497
    68  H   -0.027191
    69  H   -0.060472
    70  H   -0.033890
    71  H   -0.004084
    72  H   -0.016629
    73  H   -0.007004
    74  H   -0.000783
    75  H    0.024356
    76  H    0.002548
    77  H   -0.016010
    78  H   -0.004364
    79  H   -0.014739
    80  H    0.030180
    81  H   -0.016859
    82  H   -0.015914
    83  H    0.001579
    84  H   -0.015208
    85  H   -0.033775
    86  H   -0.043802
    87  H    0.002038
    88  H   -0.007469
    89  H   -0.015488
    90  H   -0.026544
    91  H   -0.029744
    92  H   -0.003077
    93  H   -0.021686
    94  H    0.022070
    95  H    0.001336
    96  H    0.011586
    97  H    0.003162
    98  H    0.002217
    99  H    0.024428
   100  H    0.004818
   101  H    0.028333
   102  H    0.032225
   103  H    0.021275
   104  H   -0.027169
   105  H    0.008445
   106  H    0.003081
   107  H   -0.019576
   108  H   -0.044888
   109  H   -0.030622
   110  H   -0.013872
   111  H   -0.019924
   112  H   -0.027247
   113  H   -0.041311
   114  H   -0.042795
   115  H   -0.002145
   116  H   -0.028304
   117  H   -0.027970
   118  H   -0.042750
   119  H   -0.032382
   120  H   -0.036479
   121  H   -0.031428
   122  H   -0.035476
   123  H   -0.029626
   124  H   -0.041509
   125  H   -0.011014
   126  H   -0.017599
   127  H   -0.009735
   128  H   -0.051549
   129  H   -0.034570
   130  H   -0.034525
   131  H   -0.039159
   132  H   -0.038131
   133  H   -0.038902
   134  H   -0.042285
   135  H   -0.020671
   136  H   -0.012056
   137  H   -0.014605
   138  H   -0.029829
   139  H   -0.011931
   140  H   -0.001044
 Sum of Mulliken charges =  -0.00000

 Dipole moment (field-independent basis, Debye):
    X=             -2.4813    Y=              2.8906    Z=             -2.9672  Tot=              4.8288
 Quadrupole moment (field-independent basis, Debye-Ang):
   XX=           -373.6327   YY=           -425.3869   ZZ=           -406.7869
   XY=             -0.7917   XZ=              3.0923   YZ=              3.1889

 Normal termination of Gaussian 16 at Sat Apr 30 18:24:18 2022.
