 Gaussian 16, Revision A.03,
 Gaussian 16:  ES64L-G16RevA.03 25-Dec-2016

 -----------------------------------
 #p cam-b3lyp/Def2SVP td=(nstates=5)
 -----------------------------------

 ------------------------------------------------------
 step_851_chromophore_1 TDDFT with cam-b3lyp functional
 ------------------------------------------------------
 Symbolic Z-matrix:
 Charge =  0 Multiplicity = 1

                         Standard orientation:
 ---------------------------------------------------------------------
 Center     Atomic      Atomic             Coordinates (Angstroms)
 Number     Number       Type             X           Y           Z
 ---------------------------------------------------------------------
      1         12           0        6.072074    0.503030    0.108496
      2          6           0        3.982677   -2.390020   -0.491172
      3          6           0        3.551883    2.437597   -1.040872
      4          6           0        8.291827    3.100918    0.141483
      5          6           0        8.672194   -1.657468    0.840827
      6          7           0        3.999363   -0.050972   -0.626193
      7          6           0        3.380603   -1.194238   -0.877006
      8          6           0        2.010241   -1.018675   -1.526851
      9          6           0        1.855575    0.542747   -1.720995
     10          6           0        3.235257    1.020284   -1.120564
     11          6           0        1.723495    0.915341   -3.193241
     12          6           0        0.762867   -1.675630   -0.748953
     13          6           0       -0.625764   -0.940186   -0.739244
     14          6           0       -1.803898   -1.659761   -0.038530
     15          8           0       -1.838106   -2.255892    1.041746
     16          8           0       -2.892412   -1.712007   -0.878339
     17          7           0        5.879584    2.511953   -0.280164
     18          6           0        4.772366    3.127567   -0.758871
     19          6           0        5.045941    4.504283   -0.899298
     20          6           0        6.369737    4.766469   -0.435400
     21          6           0        6.882697    3.392031   -0.248829
     22          6           0        3.982987    5.461913   -1.407781
     23          6           0        7.025666    6.021973   -0.129897
     24          8           0        8.191763    6.099070    0.136681
     25          6           0        6.310636    7.322824   -0.362949
     26          7           0        8.235303    0.700012    0.273280
     27          6           0        8.826523    1.881048    0.457303
     28          6           0       10.324465    1.705680    0.575298
     29          6           0       10.380042    0.270251    1.253898
     30          6           0        9.019631   -0.302455    0.767387
     31          6           0       11.069832    1.800032   -0.769271
     32          6           0       10.466016    0.166600    2.768397
     33          6           0        9.574253    1.156884    3.583794
     34          7           0        6.284611   -1.612341    0.232269
     35          6           0        7.473050   -2.353587    0.459006
     36          6           0        7.126571   -3.708611    0.440175
     37          6           0        5.750023   -3.716063    0.090445
     38          6           0        5.268676   -2.466046   -0.101981
     39          6           0        8.056985   -4.905277    0.636836
     40          6           0        4.722931   -4.666630   -0.166822
     41          8           0        4.645000   -5.889466   -0.042816
     42          6           0        3.590539   -3.807454   -0.723536
     43          6           0        2.308163   -4.209050   -0.035530
     44          8           0        1.896802   -3.845041    1.050996
     45          8           0        1.609096   -5.165088   -0.723812
     46          6           0        0.428499   -5.911651   -0.277576
     47          6           0       -4.086944   -2.488980   -0.340199
     48          6           0       -5.403071   -1.786826   -0.896657
     49          6           0       -6.674515   -2.252927   -0.735115
     50          6           0       -7.012355   -3.605638   -0.051453
     51          6           0       -7.780869   -1.429016   -1.289300
     52          6           0       -8.684528   -0.729157   -0.253317
     53          6           0       -9.019052    0.693128   -0.542970
     54          6           0       -8.789313    1.722115    0.562422
     55          6           0       -7.260595    2.029792    0.755271
     56          6           0       -9.339676    1.350715    1.919779
     57          6           0      -10.755724    1.952618    2.252352
     58          6           0      -11.880463    0.912387    2.075927
     59          6           0      -13.206118    1.384615    2.562469
     60          6           0      -13.276952    1.541428    4.202010
     61          6           0      -14.384505    0.659715    1.851081
     62          6           0      -14.740846    1.461134    0.551186
     63          6           0      -14.611718    0.643218   -0.722117
     64          6           0      -13.846705    1.323446   -1.853358
     65          6           0      -14.800781    2.074462   -2.755366
     66          6           0      -12.799303    0.383628   -2.590002
     67          1           0        2.691233    3.012425   -1.389260
     68          1           0        8.961971    3.942847   -0.045284
     69          1           0        9.575934   -2.183340    1.155399
     70          1           0        2.034796   -1.453216   -2.526274
     71          1           0        1.056584    1.042956   -1.173746
     72          1           0        0.832868    1.541345   -3.246158
     73          1           0        1.574043    0.058659   -3.851064
     74          1           0        2.542368    1.511357   -3.593819
     75          1           0        1.069881   -1.734365    0.295223
     76          1           0        0.560418   -2.631604   -1.232645
     77          1           0       -1.078437   -0.596485   -1.669526
     78          1           0       -0.479206   -0.021793   -0.170154
     79          1           0        2.993839    5.025792   -1.268833
     80          1           0        4.359205    5.792487   -2.375815
     81          1           0        3.818019    6.298084   -0.728002
     82          1           0        5.743056    7.292926   -1.294453
     83          1           0        6.886839    8.237039   -0.224989
     84          1           0        5.443461    7.277245    0.296619
     85          1           0       10.661025    2.484664    1.259252
     86          1           0       11.300837   -0.238450    0.971192
     87          1           0       11.341222    2.832653   -0.990245
     88          1           0       10.527156    1.440848   -1.643362
     89          1           0       11.961387    1.172460   -0.765970
     90          1           0       11.489516    0.178205    3.145433
     91          1           0       10.083678   -0.778568    3.152625
     92          1           0       10.272994    1.949404    3.848985
     93          1           0        9.368721    0.658492    4.531101
     94          1           0        8.606335    1.428830    3.162596
     95          1           0        8.706163   -4.911043   -0.239616
     96          1           0        7.425967   -5.792517    0.609020
     97          1           0        8.643976   -4.769735    1.544665
     98          1           0        3.510878   -4.016023   -1.790764
     99          1           0        0.593613   -6.972736   -0.090386
    100          1           0       -0.255110   -5.834393   -1.122872
    101          1           0       -0.045079   -5.467141    0.598934
    102          1           0       -4.174608   -2.349678    0.736548
    103          1           0       -3.877110   -3.506717   -0.670098
    104          1           0       -5.310759   -0.799809   -1.349892
    105          1           0       -7.410199   -4.255821   -0.830336
    106          1           0       -7.654277   -3.535809    0.827483
    107          1           0       -6.150038   -4.096656    0.399042
    108          1           0       -8.443131   -2.141952   -1.780388
    109          1           0       -7.449190   -0.739987   -2.067262
    110          1           0       -8.025577   -0.759743    0.614108
    111          1           0       -9.556011   -1.346108   -0.037944
    112          1           0      -10.080892    0.768409   -0.778313
    113          1           0       -8.494071    1.032666   -1.435624
    114          1           0       -9.212007    2.681017    0.261864
    115          1           0       -6.773013    1.758265    1.691986
    116          1           0       -7.215664    3.119323    0.735738
    117          1           0       -6.722891    1.699910   -0.132833
    118          1           0       -8.699351    1.724050    2.718923
    119          1           0       -9.425435    0.275847    2.079352
    120          1           0      -10.998594    2.636024    1.438706
    121          1           0      -10.913540    2.420049    3.223975
    122          1           0      -11.538233    0.043826    2.638654
    123          1           0      -11.978203    0.647229    1.022586
    124          1           0      -13.278310    2.456659    2.382778
    125          1           0      -12.356352    1.116286    4.600118
    126          1           0      -14.183392    1.033574    4.530280
    127          1           0      -13.352620    2.605689    4.428020
    128          1           0      -15.220760    0.544046    2.540370
    129          1           0      -14.111980   -0.390065    1.738524
    130          1           0      -14.150547    2.369231    0.432606
    131          1           0      -15.642593    2.034075    0.770422
    132          1           0      -15.625144    0.438392   -1.068408
    133          1           0      -14.128239   -0.326694   -0.607798
    134          1           0      -13.129023    2.087458   -1.554381
    135          1           0      -15.059984    1.264007   -3.437765
    136          1           0      -14.281761    2.921848   -3.201767
    137          1           0      -15.726790    2.368559   -2.260836
    138          1           0      -12.866657    0.607564   -3.654890
    139          1           0      -13.056555   -0.668793   -2.464076
    140          1           0      -11.815639    0.647992   -2.203159
 ---------------------------------------------------------------------

 SCF Done:  E(RCAM-B3LYP) =  -3007.12595651     A.U. after   17 cycles

 Excitation energies and oscillator strengths:

 Excited State   1:      Singlet-A      1.7051 eV  727.13 nm  f=0.3733  <S**2>=0.000
     245 -> 248       -0.18853
     246 -> 247        0.68396
     245 <- 248       -0.11167
 This state for optimization and/or second-order correction.
 Total Energy, E(TD-HF/TD-DFT) =  -3007.06329447
 Copying the excited state density for this state as the 1-particle RhoCI density.

 Excited State   2:      Singlet-A      2.1237 eV  583.80 nm  f=0.1782  <S**2>=0.000
     245 -> 247        0.66137
     246 -> 248        0.23180

 Excited State   3:      Singlet-A      3.0069 eV  412.33 nm  f=0.0143  <S**2>=0.000
     244 -> 247        0.68602

 Excited State   4:      Singlet-A      3.3430 eV  370.88 nm  f=0.0016  <S**2>=0.000
     240 -> 247        0.50921
     240 -> 249        0.21254
     240 -> 250       -0.17054
     241 -> 247        0.32354
     242 -> 247       -0.13124

 Excited State   5:      Singlet-A      3.4338 eV  361.07 nm  f=0.0089  <S**2>=0.000
     240 -> 247        0.13362
     242 -> 247        0.64238
     242 -> 249       -0.14986

 The electronic state is 1-A.
 Alpha  occ. eigenvalues --  -46.89470 -19.24378 -19.23194 -19.19052 -19.18690
 Alpha  occ. eigenvalues --  -19.18391 -19.17989 -14.43146 -14.41433 -14.40202
 Alpha  occ. eigenvalues --  -14.38629 -10.39191 -10.38704 -10.34292 -10.34148
 Alpha  occ. eigenvalues --  -10.32722 -10.32143 -10.31417 -10.31243 -10.31077
 Alpha  occ. eigenvalues --  -10.30925 -10.29973 -10.29969 -10.29688 -10.28984
 Alpha  occ. eigenvalues --  -10.28802 -10.28563 -10.28393 -10.28208 -10.28172
 Alpha  occ. eigenvalues --  -10.27756 -10.27663 -10.27620 -10.27554 -10.27505
 Alpha  occ. eigenvalues --  -10.27356 -10.27345 -10.27291 -10.27043 -10.26573
 Alpha  occ. eigenvalues --  -10.26541 -10.26536 -10.26314 -10.26131 -10.25947
 Alpha  occ. eigenvalues --  -10.25937 -10.25812 -10.25667 -10.25568 -10.25448
 Alpha  occ. eigenvalues --  -10.25109 -10.25097 -10.25012 -10.24976 -10.24924
 Alpha  occ. eigenvalues --  -10.24882 -10.24871 -10.24825 -10.24649 -10.24600
 Alpha  occ. eigenvalues --  -10.24536 -10.24469 -10.24363 -10.24311 -10.24258
 Alpha  occ. eigenvalues --  -10.24064  -3.17846  -1.92759  -1.92309  -1.92126
 Alpha  occ. eigenvalues --   -1.14965  -1.14901  -1.11053  -1.09155  -1.06050
 Alpha  occ. eigenvalues --   -1.05754  -1.05069  -1.04403  -1.04050  -1.02658
 Alpha  occ. eigenvalues --   -0.94184  -0.91013  -0.89815  -0.89456  -0.88957
 Alpha  occ. eigenvalues --   -0.88778  -0.88175  -0.87706  -0.87604  -0.87389
 Alpha  occ. eigenvalues --   -0.85838  -0.85318  -0.84127  -0.83531  -0.83142
 Alpha  occ. eigenvalues --   -0.82435  -0.82076  -0.81229  -0.80524  -0.80265
 Alpha  occ. eigenvalues --   -0.79453  -0.78701  -0.78211  -0.77298  -0.76559
 Alpha  occ. eigenvalues --   -0.76242  -0.75743  -0.75470  -0.74621  -0.74197
 Alpha  occ. eigenvalues --   -0.73547  -0.73070  -0.71912  -0.70835  -0.69835
 Alpha  occ. eigenvalues --   -0.68915  -0.68463  -0.67805  -0.67683  -0.65953
 Alpha  occ. eigenvalues --   -0.65849  -0.65321  -0.64404  -0.63654  -0.63249
 Alpha  occ. eigenvalues --   -0.62328  -0.61902  -0.61664  -0.61594  -0.60447
 Alpha  occ. eigenvalues --   -0.59834  -0.59720  -0.59327  -0.58608  -0.58267
 Alpha  occ. eigenvalues --   -0.57595  -0.56917  -0.56138  -0.55550  -0.55437
 Alpha  occ. eigenvalues --   -0.55253  -0.54771  -0.54706  -0.54415  -0.54050
 Alpha  occ. eigenvalues --   -0.53896  -0.53799  -0.53543  -0.52938  -0.52688
 Alpha  occ. eigenvalues --   -0.52542  -0.52399  -0.51925  -0.51803  -0.51378
 Alpha  occ. eigenvalues --   -0.51335  -0.51127  -0.51105  -0.50757  -0.50737
 Alpha  occ. eigenvalues --   -0.50459  -0.50277  -0.50169  -0.50064  -0.49787
 Alpha  occ. eigenvalues --   -0.49725  -0.49306  -0.49207  -0.49067  -0.48849
 Alpha  occ. eigenvalues --   -0.48703  -0.48441  -0.48338  -0.48173  -0.47932
 Alpha  occ. eigenvalues --   -0.47442  -0.47324  -0.47151  -0.46972  -0.46763
 Alpha  occ. eigenvalues --   -0.46753  -0.46524  -0.46090  -0.45929  -0.45570
 Alpha  occ. eigenvalues --   -0.45468  -0.45270  -0.45198  -0.44914  -0.44893
 Alpha  occ. eigenvalues --   -0.44676  -0.44490  -0.44336  -0.44151  -0.43993
 Alpha  occ. eigenvalues --   -0.43615  -0.43414  -0.43361  -0.43146  -0.42973
 Alpha  occ. eigenvalues --   -0.42916  -0.42611  -0.42265  -0.42161  -0.42076
 Alpha  occ. eigenvalues --   -0.41908  -0.41759  -0.41635  -0.41326  -0.41026
 Alpha  occ. eigenvalues --   -0.40973  -0.40619  -0.40395  -0.40152  -0.39812
 Alpha  occ. eigenvalues --   -0.39754  -0.39595  -0.39490  -0.38861  -0.38786
 Alpha  occ. eigenvalues --   -0.38033  -0.38008  -0.37669  -0.37581  -0.37561
 Alpha  occ. eigenvalues --   -0.36983  -0.36761  -0.36412  -0.36184  -0.36082
 Alpha  occ. eigenvalues --   -0.34997  -0.34937  -0.34233  -0.34104  -0.33578
 Alpha  occ. eigenvalues --   -0.33413  -0.33332  -0.32938  -0.31624  -0.30813
 Alpha  occ. eigenvalues --   -0.30578  -0.30293  -0.29863  -0.29052  -0.23966
 Alpha  occ. eigenvalues --   -0.21956
 Alpha virt. eigenvalues --   -0.09451  -0.01691   0.00206   0.02317   0.02787
 Alpha virt. eigenvalues --    0.04934   0.05233   0.05791   0.06134   0.06278
 Alpha virt. eigenvalues --    0.07281   0.08262   0.08556   0.09027   0.09142

 Mulliken charges:
               1
     1  Mg   0.813384
     2  C   -0.035319
     3  C   -0.060838
     4  C   -0.064702
     5  C   -0.058654
     6  N   -0.246777
     7  C   -0.067141
     8  C    0.027057
     9  C   -0.106579
    10  C    0.013750
    11  C    0.062697
    12  C    0.044856
    13  C    0.053341
    14  C    0.157391
    15  O   -0.240293
    16  O   -0.359710
    17  N   -0.352884
    18  C    0.157820
    19  C   -0.158458
    20  C   -0.026462
    21  C    0.061951
    22  C    0.111678
    23  C   -0.027471
    24  O   -0.186535
    25  C    0.066788
    26  N   -0.271983
    27  C    0.064007
    28  C   -0.024658
    29  C   -0.011769
    30  C    0.014718
    31  C    0.087655
    32  C    0.010297
    33  C   -0.014809
    34  N   -0.386039
    35  C    0.156688
    36  C   -0.166771
    37  C   -0.004050
    38  C    0.180629
    39  C    0.133638
    40  C    0.031126
    41  O   -0.177217
    42  C    0.001572
    43  C    0.172391
    44  O   -0.206893
    45  O   -0.350258
    46  C    0.181106
    47  C    0.255425
    48  C   -0.121846
    49  C   -0.178519
    50  C    0.067848
    51  C    0.106031
    52  C   -0.002187
    53  C    0.072974
    54  C   -0.125273
    55  C    0.040060
    56  C    0.081482
    57  C   -0.009677
    58  C    0.028927
    59  C   -0.160753
    60  C    0.028692
    61  C    0.079031
    62  C    0.028487
    63  C    0.100337
    64  C   -0.201942
    65  C    0.055597
    66  C    0.035334
    67  H   -0.030593
    68  H    0.011491
    69  H   -0.026332
    70  H    0.003195
    71  H    0.027732
    72  H    0.007493
    73  H    0.017877
    74  H    0.026474
    75  H    0.058270
    76  H    0.029306
    77  H    0.019260
    78  H    0.025957
    79  H    0.013481
    80  H    0.056069
    81  H    0.010542
    82  H    0.012755
    83  H    0.036260
    84  H    0.011631
    85  H    0.003034
    86  H   -0.006922
    87  H    0.025692
    88  H    0.017932
    89  H    0.008281
    90  H    0.002950
    91  H    0.000631
    92  H    0.019621
    93  H    0.003814
    94  H    0.042896
    95  H    0.027420
    96  H    0.039358
    97  H    0.027123
    98  H    0.046300
    99  H    0.045031
   100  H    0.025178
   101  H    0.053102
   102  H    0.061722
   103  H    0.046557
   104  H    0.006083
   105  H    0.031964
   106  H    0.026936
   107  H    0.005351
   108  H   -0.013562
   109  H    0.000653
   110  H    0.012497
   111  H    0.007441
   112  H   -0.005950
   113  H   -0.011385
   114  H   -0.007869
   115  H    0.021349
   116  H   -0.002651
   117  H   -0.005760
   118  H   -0.009741
   119  H   -0.003820
   120  H   -0.010854
   121  H   -0.002977
   122  H   -0.009088
   123  H   -0.008997
   124  H   -0.008590
   125  H    0.011232
   126  H    0.006266
   127  H    0.012952
   128  H   -0.019881
   129  H   -0.005488
   130  H   -0.006674
   131  H   -0.008652
   132  H   -0.007355
   133  H   -0.009638
   134  H   -0.011507
   135  H    0.002579
   136  H    0.012224
   137  H    0.009362
   138  H   -0.003476
   139  H    0.010986
   140  H    0.017158
 Sum of Mulliken charges =  -0.00000

 Dipole moment (field-independent basis, Debye):
    X=             -2.8045    Y=              3.1681    Z=             -3.1846  Tot=              5.2957
 Quadrupole moment (field-independent basis, Debye-Ang):
   XX=           -374.3059   YY=           -421.8668   ZZ=           -406.7974
   XY=             -0.6080   XZ=              2.8882   YZ=              2.8077

 Normal termination of Gaussian 16 at Sat Apr 30 17:01:13 2022.
