 Gaussian 16, Revision A.03,
 Gaussian 16:  ES64L-G16RevA.03 25-Dec-2016

 ---------------------------------
 #p PBE1PBE/Def2SVP td=(nstates=5)
 ---------------------------------

 ----------------------------------------------------
 step_851_chromophore_1 TDDFT with PBE1PBE functional
 ----------------------------------------------------
 Symbolic Z-matrix:
 Charge =  0 Multiplicity = 1

                         Standard orientation:
 ---------------------------------------------------------------------
 Center     Atomic      Atomic             Coordinates (Angstroms)
 Number     Number       Type             X           Y           Z
 ---------------------------------------------------------------------
      1         12           0        6.072074    0.503030    0.108496
      2          6           0        3.982677   -2.390020   -0.491172
      3          6           0        3.551883    2.437597   -1.040872
      4          6           0        8.291827    3.100918    0.141483
      5          6           0        8.672194   -1.657468    0.840827
      6          7           0        3.999363   -0.050972   -0.626193
      7          6           0        3.380603   -1.194238   -0.877006
      8          6           0        2.010241   -1.018675   -1.526851
      9          6           0        1.855575    0.542747   -1.720995
     10          6           0        3.235257    1.020284   -1.120564
     11          6           0        1.723495    0.915341   -3.193241
     12          6           0        0.762867   -1.675630   -0.748953
     13          6           0       -0.625764   -0.940186   -0.739244
     14          6           0       -1.803898   -1.659761   -0.038530
     15          8           0       -1.838106   -2.255892    1.041746
     16          8           0       -2.892412   -1.712007   -0.878339
     17          7           0        5.879584    2.511953   -0.280164
     18          6           0        4.772366    3.127567   -0.758871
     19          6           0        5.045941    4.504283   -0.899298
     20          6           0        6.369737    4.766469   -0.435400
     21          6           0        6.882697    3.392031   -0.248829
     22          6           0        3.982987    5.461913   -1.407781
     23          6           0        7.025666    6.021973   -0.129897
     24          8           0        8.191763    6.099070    0.136681
     25          6           0        6.310636    7.322824   -0.362949
     26          7           0        8.235303    0.700012    0.273280
     27          6           0        8.826523    1.881048    0.457303
     28          6           0       10.324465    1.705680    0.575298
     29          6           0       10.380042    0.270251    1.253898
     30          6           0        9.019631   -0.302455    0.767387
     31          6           0       11.069832    1.800032   -0.769271
     32          6           0       10.466016    0.166600    2.768397
     33          6           0        9.574253    1.156884    3.583794
     34          7           0        6.284611   -1.612341    0.232269
     35          6           0        7.473050   -2.353587    0.459006
     36          6           0        7.126571   -3.708611    0.440175
     37          6           0        5.750023   -3.716063    0.090445
     38          6           0        5.268676   -2.466046   -0.101981
     39          6           0        8.056985   -4.905277    0.636836
     40          6           0        4.722931   -4.666630   -0.166822
     41          8           0        4.645000   -5.889466   -0.042816
     42          6           0        3.590539   -3.807454   -0.723536
     43          6           0        2.308163   -4.209050   -0.035530
     44          8           0        1.896802   -3.845041    1.050996
     45          8           0        1.609096   -5.165088   -0.723812
     46          6           0        0.428499   -5.911651   -0.277576
     47          6           0       -4.086944   -2.488980   -0.340199
     48          6           0       -5.403071   -1.786826   -0.896657
     49          6           0       -6.674515   -2.252927   -0.735115
     50          6           0       -7.012355   -3.605638   -0.051453
     51          6           0       -7.780869   -1.429016   -1.289300
     52          6           0       -8.684528   -0.729157   -0.253317
     53          6           0       -9.019052    0.693128   -0.542970
     54          6           0       -8.789313    1.722115    0.562422
     55          6           0       -7.260595    2.029792    0.755271
     56          6           0       -9.339676    1.350715    1.919779
     57          6           0      -10.755724    1.952618    2.252352
     58          6           0      -11.880463    0.912387    2.075927
     59          6           0      -13.206118    1.384615    2.562469
     60          6           0      -13.276952    1.541428    4.202010
     61          6           0      -14.384505    0.659715    1.851081
     62          6           0      -14.740846    1.461134    0.551186
     63          6           0      -14.611718    0.643218   -0.722117
     64          6           0      -13.846705    1.323446   -1.853358
     65          6           0      -14.800781    2.074462   -2.755366
     66          6           0      -12.799303    0.383628   -2.590002
     67          1           0        2.691233    3.012425   -1.389260
     68          1           0        8.961971    3.942847   -0.045284
     69          1           0        9.575934   -2.183340    1.155399
     70          1           0        2.034796   -1.453216   -2.526274
     71          1           0        1.056584    1.042956   -1.173746
     72          1           0        0.832868    1.541345   -3.246158
     73          1           0        1.574043    0.058659   -3.851064
     74          1           0        2.542368    1.511357   -3.593819
     75          1           0        1.069881   -1.734365    0.295223
     76          1           0        0.560418   -2.631604   -1.232645
     77          1           0       -1.078437   -0.596485   -1.669526
     78          1           0       -0.479206   -0.021793   -0.170154
     79          1           0        2.993839    5.025792   -1.268833
     80          1           0        4.359205    5.792487   -2.375815
     81          1           0        3.818019    6.298084   -0.728002
     82          1           0        5.743056    7.292926   -1.294453
     83          1           0        6.886839    8.237039   -0.224989
     84          1           0        5.443461    7.277245    0.296619
     85          1           0       10.661025    2.484664    1.259252
     86          1           0       11.300837   -0.238450    0.971192
     87          1           0       11.341222    2.832653   -0.990245
     88          1           0       10.527156    1.440848   -1.643362
     89          1           0       11.961387    1.172460   -0.765970
     90          1           0       11.489516    0.178205    3.145433
     91          1           0       10.083678   -0.778568    3.152625
     92          1           0       10.272994    1.949404    3.848985
     93          1           0        9.368721    0.658492    4.531101
     94          1           0        8.606335    1.428830    3.162596
     95          1           0        8.706163   -4.911043   -0.239616
     96          1           0        7.425967   -5.792517    0.609020
     97          1           0        8.643976   -4.769735    1.544665
     98          1           0        3.510878   -4.016023   -1.790764
     99          1           0        0.593613   -6.972736   -0.090386
    100          1           0       -0.255110   -5.834393   -1.122872
    101          1           0       -0.045079   -5.467141    0.598934
    102          1           0       -4.174608   -2.349678    0.736548
    103          1           0       -3.877110   -3.506717   -0.670098
    104          1           0       -5.310759   -0.799809   -1.349892
    105          1           0       -7.410199   -4.255821   -0.830336
    106          1           0       -7.654277   -3.535809    0.827483
    107          1           0       -6.150038   -4.096656    0.399042
    108          1           0       -8.443131   -2.141952   -1.780388
    109          1           0       -7.449190   -0.739987   -2.067262
    110          1           0       -8.025577   -0.759743    0.614108
    111          1           0       -9.556011   -1.346108   -0.037944
    112          1           0      -10.080892    0.768409   -0.778313
    113          1           0       -8.494071    1.032666   -1.435624
    114          1           0       -9.212007    2.681017    0.261864
    115          1           0       -6.773013    1.758265    1.691986
    116          1           0       -7.215664    3.119323    0.735738
    117          1           0       -6.722891    1.699910   -0.132833
    118          1           0       -8.699351    1.724050    2.718923
    119          1           0       -9.425435    0.275847    2.079352
    120          1           0      -10.998594    2.636024    1.438706
    121          1           0      -10.913540    2.420049    3.223975
    122          1           0      -11.538233    0.043826    2.638654
    123          1           0      -11.978203    0.647229    1.022586
    124          1           0      -13.278310    2.456659    2.382778
    125          1           0      -12.356352    1.116286    4.600118
    126          1           0      -14.183392    1.033574    4.530280
    127          1           0      -13.352620    2.605689    4.428020
    128          1           0      -15.220760    0.544046    2.540370
    129          1           0      -14.111980   -0.390065    1.738524
    130          1           0      -14.150547    2.369231    0.432606
    131          1           0      -15.642593    2.034075    0.770422
    132          1           0      -15.625144    0.438392   -1.068408
    133          1           0      -14.128239   -0.326694   -0.607798
    134          1           0      -13.129023    2.087458   -1.554381
    135          1           0      -15.059984    1.264007   -3.437765
    136          1           0      -14.281761    2.921848   -3.201767
    137          1           0      -15.726790    2.368559   -2.260836
    138          1           0      -12.866657    0.607564   -3.654890
    139          1           0      -13.056555   -0.668793   -2.464076
    140          1           0      -11.815639    0.647992   -2.203159
 ---------------------------------------------------------------------

 SCF Done:  E(RPBE1PBE) =  -3005.31531751     A.U. after   16 cycles

 Excitation energies and oscillator strengths:

 Excited State   1:      Singlet-A      1.8681 eV  663.68 nm  f=0.3583  <S**2>=0.000
     245 -> 248       -0.18410
     246 -> 247        0.69059
     246 <- 247       -0.10519
 This state for optimization and/or second-order correction.
 Total Energy, E(TD-HF/TD-DFT) =  -3005.24666494
 Copying the excited state density for this state as the 1-particle RhoCI density.

 Excited State   2:      Singlet-A      2.1367 eV  580.25 nm  f=0.1577  <S**2>=0.000
     244 -> 247        0.10594
     245 -> 247        0.66635
     246 -> 248        0.21134

 Excited State   3:      Singlet-A      2.7096 eV  457.57 nm  f=0.0205  <S**2>=0.000
     241 -> 247        0.14856
     244 -> 247        0.67311

 Excited State   4:      Singlet-A      2.8257 eV  438.77 nm  f=0.0007  <S**2>=0.000
     241 -> 247        0.62299
     241 -> 249       -0.11840
     242 -> 247        0.25106
     244 -> 247       -0.13750

 Excited State   5:      Singlet-A      2.8599 eV  433.52 nm  f=0.0003  <S**2>=0.000
     241 -> 247       -0.24077
     242 -> 247        0.63562
     242 -> 249        0.12655

 The electronic state is 1-A.
 Alpha  occ. eigenvalues --  -46.92858 -19.25118 -19.23805 -19.19352 -19.18828
 Alpha  occ. eigenvalues --  -19.18542 -19.18259 -14.42534 -14.41039 -14.39841
 Alpha  occ. eigenvalues --  -14.38345 -10.36257 -10.35665 -10.31319 -10.31283
 Alpha  occ. eigenvalues --  -10.30173 -10.29980 -10.29054 -10.28804 -10.28643
 Alpha  occ. eigenvalues --  -10.28425 -10.27720 -10.27628 -10.27435 -10.26770
 Alpha  occ. eigenvalues --  -10.26607 -10.26136 -10.26065 -10.25712 -10.25691
 Alpha  occ. eigenvalues --  -10.25533 -10.25341 -10.25276 -10.25206 -10.25167
 Alpha  occ. eigenvalues --  -10.25112 -10.25009 -10.24775 -10.24745 -10.24366
 Alpha  occ. eigenvalues --  -10.24117 -10.23913 -10.23794 -10.23777 -10.23742
 Alpha  occ. eigenvalues --  -10.23356 -10.23349 -10.23329 -10.23006 -10.22889
 Alpha  occ. eigenvalues --  -10.22781 -10.22722 -10.22561 -10.22498 -10.22475
 Alpha  occ. eigenvalues --  -10.22455 -10.22417 -10.22248 -10.22142 -10.22092
 Alpha  occ. eigenvalues --  -10.22074 -10.22007 -10.21982 -10.21723 -10.21628
 Alpha  occ. eigenvalues --  -10.21565  -3.14820  -1.87673  -1.87202  -1.87023
 Alpha  occ. eigenvalues --   -1.09788  -1.09600  -1.05858  -1.03790  -1.00806
 Alpha  occ. eigenvalues --   -1.00636  -0.99754  -0.98988  -0.98730  -0.97293
 Alpha  occ. eigenvalues --   -0.88537  -0.85109  -0.83901  -0.83660  -0.83108
 Alpha  occ. eigenvalues --   -0.83046  -0.82481  -0.81931  -0.81818  -0.81685
 Alpha  occ. eigenvalues --   -0.80162  -0.79548  -0.78294  -0.77799  -0.77411
 Alpha  occ. eigenvalues --   -0.76603  -0.76319  -0.75470  -0.74864  -0.74487
 Alpha  occ. eigenvalues --   -0.73599  -0.72991  -0.72439  -0.71598  -0.70698
 Alpha  occ. eigenvalues --   -0.70549  -0.69846  -0.69833  -0.68748  -0.68346
 Alpha  occ. eigenvalues --   -0.67903  -0.67424  -0.66301  -0.65135  -0.64238
 Alpha  occ. eigenvalues --   -0.63363  -0.62676  -0.62319  -0.61917  -0.60281
 Alpha  occ. eigenvalues --   -0.60119  -0.59878  -0.58954  -0.58132  -0.57384
 Alpha  occ. eigenvalues --   -0.56538  -0.56406  -0.56182  -0.55877  -0.55036
 Alpha  occ. eigenvalues --   -0.54308  -0.54263  -0.53752  -0.53194  -0.52601
 Alpha  occ. eigenvalues --   -0.52211  -0.51333  -0.50698  -0.50014  -0.49864
 Alpha  occ. eigenvalues --   -0.49726  -0.49270  -0.49260  -0.48938  -0.48516
 Alpha  occ. eigenvalues --   -0.48301  -0.48225  -0.47986  -0.47481  -0.47186
 Alpha  occ. eigenvalues --   -0.47099  -0.46962  -0.46589  -0.46325  -0.45979
 Alpha  occ. eigenvalues --   -0.45814  -0.45662  -0.45630  -0.45287  -0.45241
 Alpha  occ. eigenvalues --   -0.45018  -0.44839  -0.44744  -0.44628  -0.44415
 Alpha  occ. eigenvalues --   -0.44318  -0.43847  -0.43745  -0.43654  -0.43414
 Alpha  occ. eigenvalues --   -0.43349  -0.43059  -0.42919  -0.42742  -0.42579
 Alpha  occ. eigenvalues --   -0.42105  -0.41954  -0.41772  -0.41615  -0.41478
 Alpha  occ. eigenvalues --   -0.41394  -0.41110  -0.40841  -0.40628  -0.40277
 Alpha  occ. eigenvalues --   -0.40215  -0.39957  -0.39893  -0.39665  -0.39593
 Alpha  occ. eigenvalues --   -0.39301  -0.39227  -0.39123  -0.38950  -0.38792
 Alpha  occ. eigenvalues --   -0.38442  -0.38193  -0.38047  -0.37839  -0.37834
 Alpha  occ. eigenvalues --   -0.37698  -0.37418  -0.37037  -0.36941  -0.36874
 Alpha  occ. eigenvalues --   -0.36640  -0.36618  -0.36505  -0.36196  -0.35837
 Alpha  occ. eigenvalues --   -0.35760  -0.35505  -0.35233  -0.34970  -0.34725
 Alpha  occ. eigenvalues --   -0.34511  -0.34413  -0.34258  -0.33779  -0.33618
 Alpha  occ. eigenvalues --   -0.32996  -0.32819  -0.32587  -0.32473  -0.32358
 Alpha  occ. eigenvalues --   -0.31857  -0.31792  -0.31290  -0.31231  -0.31023
 Alpha  occ. eigenvalues --   -0.29909  -0.29786  -0.29293  -0.29165  -0.29098
 Alpha  occ. eigenvalues --   -0.28349  -0.28155  -0.27719  -0.27183  -0.26146
 Alpha  occ. eigenvalues --   -0.25540  -0.25311  -0.25147  -0.24667  -0.20979
 Alpha  occ. eigenvalues --   -0.19511
 Alpha virt. eigenvalues --   -0.11826  -0.05210  -0.03970  -0.01962  -0.00199
 Alpha virt. eigenvalues --    0.00403   0.00917   0.01314   0.01633   0.02857
 Alpha virt. eigenvalues --    0.03981   0.04007   0.04942   0.05042   0.05872

 Mulliken charges:
               1
     1  Mg   0.956917
     2  C   -0.022358
     3  C   -0.057723
     4  C   -0.045513
     5  C   -0.051987
     6  N   -0.350212
     7  C    0.013854
     8  C   -0.032596
     9  C   -0.190240
    10  C    0.054600
    11  C    0.011589
    12  C   -0.009321
    13  C   -0.028941
    14  C    0.230514
    15  O   -0.273835
    16  O   -0.389249
    17  N   -0.473745
    18  C    0.181319
    19  C   -0.189986
    20  C   -0.071442
    21  C    0.098652
    22  C    0.052499
    23  C    0.021839
    24  O   -0.225520
    25  C   -0.009796
    26  N   -0.367317
    27  C    0.087901
    28  C   -0.103529
    29  C   -0.091862
    30  C    0.046734
    31  C    0.034977
    32  C   -0.044524
    33  C   -0.088396
    34  N   -0.504207
    35  C    0.179395
    36  C   -0.177717
    37  C   -0.059419
    38  C    0.210698
    39  C    0.078501
    40  C    0.126787
    41  O   -0.225177
    42  C   -0.120348
    43  C    0.269708
    44  O   -0.244403
    45  O   -0.386346
    46  C    0.129746
    47  C    0.215895
    48  C   -0.129847
    49  C   -0.230163
    50  C    0.009066
    51  C    0.046518
    52  C   -0.066882
    53  C    0.003461
    54  C   -0.212410
    55  C   -0.020676
    56  C    0.030373
    57  C   -0.074067
    58  C   -0.028035
    59  C   -0.243467
    60  C   -0.032796
    61  C    0.023063
    62  C   -0.028273
    63  C    0.038339
    64  C   -0.286334
    65  C   -0.009140
    66  C   -0.034880
    67  H    0.000781
    68  H    0.041893
    69  H    0.006083
    70  H    0.040901
    71  H    0.062915
    72  H    0.034586
    73  H    0.044598
    74  H    0.053727
    75  H    0.090154
    76  H    0.064841
    77  H    0.051143
    78  H    0.059696
    79  H    0.040456
    80  H    0.083604
    81  H    0.038331
    82  H    0.042222
    83  H    0.063400
    84  H    0.040864
    85  H    0.040018
    86  H    0.028665
    87  H    0.052861
    88  H    0.045357
    89  H    0.036329
    90  H    0.035076
    91  H    0.034527
    92  H    0.047670
    93  H    0.033137
    94  H    0.072490
    95  H    0.055955
    96  H    0.067195
    97  H    0.053643
    98  H    0.082759
    99  H    0.066189
   100  H    0.046601
   101  H    0.072506
   102  H    0.087710
   103  H    0.071814
   104  H    0.034990
   105  H    0.058945
   106  H    0.052937
   107  H    0.032250
   108  H    0.022097
   109  H    0.030604
   110  H    0.048413
   111  H    0.038313
   112  H    0.039806
   113  H    0.020906
   114  H    0.029135
   115  H    0.047045
   116  H    0.026245
   117  H    0.023108
   118  H    0.024231
   119  H    0.028110
   120  H    0.023624
   121  H    0.029491
   122  H    0.024447
   123  H    0.029480
   124  H    0.030948
   125  H    0.038399
   126  H    0.034247
   127  H    0.039668
   128  H    0.012575
   129  H    0.026050
   130  H    0.023856
   131  H    0.022822
   132  H    0.026442
   133  H    0.021353
   134  H    0.025636
   135  H    0.031525
   136  H    0.039646
   137  H    0.037796
   138  H    0.025163
   139  H    0.037816
   140  H    0.050918
 Sum of Mulliken charges =  -0.00000

 Dipole moment (field-independent basis, Debye):
    X=             -2.6336    Y=              3.2749    Z=             -3.1431  Tot=              5.2478
 Quadrupole moment (field-independent basis, Debye-Ang):
   XX=           -366.9125   YY=           -419.1750   ZZ=           -404.0855
   XY=             -0.3773   XZ=              3.7953   YZ=              2.5068

 Normal termination of Gaussian 16 at Sat Apr 30 17:26:05 2022.
