 Gaussian 16, Revision A.03,
 Gaussian 16:  ES64L-G16RevA.03 25-Dec-2016

 --------------------------------
 #p wB97XD/Def2SVP td=(nstates=5)
 --------------------------------

 ---------------------------------------------------
 step_851_chromophore_1 TDDFT with wB97XD functional
 ---------------------------------------------------
 Symbolic Z-matrix:
 Charge =  0 Multiplicity = 1

                         Standard orientation:
 ---------------------------------------------------------------------
 Center     Atomic      Atomic             Coordinates (Angstroms)
 Number     Number       Type             X           Y           Z
 ---------------------------------------------------------------------
      1         12           0        6.072074    0.503030    0.108496
      2          6           0        3.982677   -2.390020   -0.491172
      3          6           0        3.551883    2.437597   -1.040872
      4          6           0        8.291827    3.100918    0.141483
      5          6           0        8.672194   -1.657468    0.840827
      6          7           0        3.999363   -0.050972   -0.626193
      7          6           0        3.380603   -1.194238   -0.877006
      8          6           0        2.010241   -1.018675   -1.526851
      9          6           0        1.855575    0.542747   -1.720995
     10          6           0        3.235257    1.020284   -1.120564
     11          6           0        1.723495    0.915341   -3.193241
     12          6           0        0.762867   -1.675630   -0.748953
     13          6           0       -0.625764   -0.940186   -0.739244
     14          6           0       -1.803898   -1.659761   -0.038530
     15          8           0       -1.838106   -2.255892    1.041746
     16          8           0       -2.892412   -1.712007   -0.878339
     17          7           0        5.879584    2.511953   -0.280164
     18          6           0        4.772366    3.127567   -0.758871
     19          6           0        5.045941    4.504283   -0.899298
     20          6           0        6.369737    4.766469   -0.435400
     21          6           0        6.882697    3.392031   -0.248829
     22          6           0        3.982987    5.461913   -1.407781
     23          6           0        7.025666    6.021973   -0.129897
     24          8           0        8.191763    6.099070    0.136681
     25          6           0        6.310636    7.322824   -0.362949
     26          7           0        8.235303    0.700012    0.273280
     27          6           0        8.826523    1.881048    0.457303
     28          6           0       10.324465    1.705680    0.575298
     29          6           0       10.380042    0.270251    1.253898
     30          6           0        9.019631   -0.302455    0.767387
     31          6           0       11.069832    1.800032   -0.769271
     32          6           0       10.466016    0.166600    2.768397
     33          6           0        9.574253    1.156884    3.583794
     34          7           0        6.284611   -1.612341    0.232269
     35          6           0        7.473050   -2.353587    0.459006
     36          6           0        7.126571   -3.708611    0.440175
     37          6           0        5.750023   -3.716063    0.090445
     38          6           0        5.268676   -2.466046   -0.101981
     39          6           0        8.056985   -4.905277    0.636836
     40          6           0        4.722931   -4.666630   -0.166822
     41          8           0        4.645000   -5.889466   -0.042816
     42          6           0        3.590539   -3.807454   -0.723536
     43          6           0        2.308163   -4.209050   -0.035530
     44          8           0        1.896802   -3.845041    1.050996
     45          8           0        1.609096   -5.165088   -0.723812
     46          6           0        0.428499   -5.911651   -0.277576
     47          6           0       -4.086944   -2.488980   -0.340199
     48          6           0       -5.403071   -1.786826   -0.896657
     49          6           0       -6.674515   -2.252927   -0.735115
     50          6           0       -7.012355   -3.605638   -0.051453
     51          6           0       -7.780869   -1.429016   -1.289300
     52          6           0       -8.684528   -0.729157   -0.253317
     53          6           0       -9.019052    0.693128   -0.542970
     54          6           0       -8.789313    1.722115    0.562422
     55          6           0       -7.260595    2.029792    0.755271
     56          6           0       -9.339676    1.350715    1.919779
     57          6           0      -10.755724    1.952618    2.252352
     58          6           0      -11.880463    0.912387    2.075927
     59          6           0      -13.206118    1.384615    2.562469
     60          6           0      -13.276952    1.541428    4.202010
     61          6           0      -14.384505    0.659715    1.851081
     62          6           0      -14.740846    1.461134    0.551186
     63          6           0      -14.611718    0.643218   -0.722117
     64          6           0      -13.846705    1.323446   -1.853358
     65          6           0      -14.800781    2.074462   -2.755366
     66          6           0      -12.799303    0.383628   -2.590002
     67          1           0        2.691233    3.012425   -1.389260
     68          1           0        8.961971    3.942847   -0.045284
     69          1           0        9.575934   -2.183340    1.155399
     70          1           0        2.034796   -1.453216   -2.526274
     71          1           0        1.056584    1.042956   -1.173746
     72          1           0        0.832868    1.541345   -3.246158
     73          1           0        1.574043    0.058659   -3.851064
     74          1           0        2.542368    1.511357   -3.593819
     75          1           0        1.069881   -1.734365    0.295223
     76          1           0        0.560418   -2.631604   -1.232645
     77          1           0       -1.078437   -0.596485   -1.669526
     78          1           0       -0.479206   -0.021793   -0.170154
     79          1           0        2.993839    5.025792   -1.268833
     80          1           0        4.359205    5.792487   -2.375815
     81          1           0        3.818019    6.298084   -0.728002
     82          1           0        5.743056    7.292926   -1.294453
     83          1           0        6.886839    8.237039   -0.224989
     84          1           0        5.443461    7.277245    0.296619
     85          1           0       10.661025    2.484664    1.259252
     86          1           0       11.300837   -0.238450    0.971192
     87          1           0       11.341222    2.832653   -0.990245
     88          1           0       10.527156    1.440848   -1.643362
     89          1           0       11.961387    1.172460   -0.765970
     90          1           0       11.489516    0.178205    3.145433
     91          1           0       10.083678   -0.778568    3.152625
     92          1           0       10.272994    1.949404    3.848985
     93          1           0        9.368721    0.658492    4.531101
     94          1           0        8.606335    1.428830    3.162596
     95          1           0        8.706163   -4.911043   -0.239616
     96          1           0        7.425967   -5.792517    0.609020
     97          1           0        8.643976   -4.769735    1.544665
     98          1           0        3.510878   -4.016023   -1.790764
     99          1           0        0.593613   -6.972736   -0.090386
    100          1           0       -0.255110   -5.834393   -1.122872
    101          1           0       -0.045079   -5.467141    0.598934
    102          1           0       -4.174608   -2.349678    0.736548
    103          1           0       -3.877110   -3.506717   -0.670098
    104          1           0       -5.310759   -0.799809   -1.349892
    105          1           0       -7.410199   -4.255821   -0.830336
    106          1           0       -7.654277   -3.535809    0.827483
    107          1           0       -6.150038   -4.096656    0.399042
    108          1           0       -8.443131   -2.141952   -1.780388
    109          1           0       -7.449190   -0.739987   -2.067262
    110          1           0       -8.025577   -0.759743    0.614108
    111          1           0       -9.556011   -1.346108   -0.037944
    112          1           0      -10.080892    0.768409   -0.778313
    113          1           0       -8.494071    1.032666   -1.435624
    114          1           0       -9.212007    2.681017    0.261864
    115          1           0       -6.773013    1.758265    1.691986
    116          1           0       -7.215664    3.119323    0.735738
    117          1           0       -6.722891    1.699910   -0.132833
    118          1           0       -8.699351    1.724050    2.718923
    119          1           0       -9.425435    0.275847    2.079352
    120          1           0      -10.998594    2.636024    1.438706
    121          1           0      -10.913540    2.420049    3.223975
    122          1           0      -11.538233    0.043826    2.638654
    123          1           0      -11.978203    0.647229    1.022586
    124          1           0      -13.278310    2.456659    2.382778
    125          1           0      -12.356352    1.116286    4.600118
    126          1           0      -14.183392    1.033574    4.530280
    127          1           0      -13.352620    2.605689    4.428020
    128          1           0      -15.220760    0.544046    2.540370
    129          1           0      -14.111980   -0.390065    1.738524
    130          1           0      -14.150547    2.369231    0.432606
    131          1           0      -15.642593    2.034075    0.770422
    132          1           0      -15.625144    0.438392   -1.068408
    133          1           0      -14.128239   -0.326694   -0.607798
    134          1           0      -13.129023    2.087458   -1.554381
    135          1           0      -15.059984    1.264007   -3.437765
    136          1           0      -14.281761    2.921848   -3.201767
    137          1           0      -15.726790    2.368559   -2.260836
    138          1           0      -12.866657    0.607564   -3.654890
    139          1           0      -13.056555   -0.668793   -2.464076
    140          1           0      -11.815639    0.647992   -2.203159
 ---------------------------------------------------------------------

 SCF Done:  E(RwB97XD) =  -3007.82593765     A.U. after   17 cycles

 Excitation energies and oscillator strengths:

 Excited State   1:      Singlet-A      1.6446 eV  753.88 nm  f=0.3725  <S**2>=0.000
     245 -> 248       -0.19394
     246 -> 247        0.68192
     245 <- 248       -0.12120
 This state for optimization and/or second-order correction.
 Total Energy, E(TD-HF/TD-DFT) =  -3007.76549940
 Copying the excited state density for this state as the 1-particle RhoCI density.

 Excited State   2:      Singlet-A      2.0670 eV  599.82 nm  f=0.1723  <S**2>=0.000
     245 -> 247        0.65851
     246 -> 248        0.23529
     246 <- 248        0.10106

 Excited State   3:      Singlet-A      3.0124 eV  411.57 nm  f=0.0136  <S**2>=0.000
     244 -> 247        0.67983

 Excited State   4:      Singlet-A      3.3659 eV  368.35 nm  f=0.0016  <S**2>=0.000
     240 -> 247        0.36433
     240 -> 249       -0.19405
     240 -> 250       -0.14948
     241 -> 247        0.47901
     241 -> 249       -0.16376
     241 -> 250       -0.12486

 Excited State   5:      Singlet-A      3.4688 eV  357.42 nm  f=0.0077  <S**2>=0.000
     240 -> 247        0.23907
     241 -> 247       -0.13150
     242 -> 247        0.58287
     242 -> 249        0.19841

 The electronic state is 1-A.
 Alpha  occ. eigenvalues --  -46.95794 -19.29656 -19.28430 -19.24016 -19.23749
 Alpha  occ. eigenvalues --  -19.23333 -19.22982 -14.47764 -14.45997 -14.44769
 Alpha  occ. eigenvalues --  -14.43266 -10.43030 -10.42576 -10.38305 -10.38060
 Alpha  occ. eigenvalues --  -10.36673 -10.36211 -10.35418 -10.35114 -10.34972
 Alpha  occ. eigenvalues --  -10.34964 -10.34032 -10.33986 -10.33684 -10.33062
 Alpha  occ. eigenvalues --  -10.32868 -10.32664 -10.32523 -10.32250 -10.32131
 Alpha  occ. eigenvalues --  -10.31758 -10.31745 -10.31719 -10.31614 -10.31579
 Alpha  occ. eigenvalues --  -10.31387 -10.31365 -10.31238 -10.31075 -10.30641
 Alpha  occ. eigenvalues --  -10.30511 -10.30384 -10.30178 -10.30062 -10.29974
 Alpha  occ. eigenvalues --  -10.29840 -10.29661 -10.29646 -10.29422 -10.29397
 Alpha  occ. eigenvalues --  -10.29045 -10.28993 -10.28927 -10.28904 -10.28840
 Alpha  occ. eigenvalues --  -10.28811 -10.28804 -10.28659 -10.28513 -10.28495
 Alpha  occ. eigenvalues --  -10.28471 -10.28400 -10.28389 -10.28151 -10.28061
 Alpha  occ. eigenvalues --  -10.27963  -3.21634  -1.95233  -1.94760  -1.94581
 Alpha  occ. eigenvalues --   -1.17164  -1.17068  -1.13242  -1.11387  -1.08245
 Alpha  occ. eigenvalues --   -1.07981  -1.07087  -1.06426  -1.06054  -1.04720
 Alpha  occ. eigenvalues --   -0.96216  -0.92792  -0.91577  -0.91315  -0.90752
 Alpha  occ. eigenvalues --   -0.90655  -0.90059  -0.89565  -0.89465  -0.89299
 Alpha  occ. eigenvalues --   -0.87807  -0.87214  -0.85962  -0.85428  -0.85068
 Alpha  occ. eigenvalues --   -0.84267  -0.83969  -0.83145  -0.82486  -0.82162
 Alpha  occ. eigenvalues --   -0.81279  -0.80650  -0.80119  -0.79223  -0.78398
 Alpha  occ. eigenvalues --   -0.78174  -0.77536  -0.77402  -0.76438  -0.76022
 Alpha  occ. eigenvalues --   -0.75500  -0.75030  -0.73860  -0.72763  -0.71769
 Alpha  occ. eigenvalues --   -0.70914  -0.70322  -0.69813  -0.69569  -0.67835
 Alpha  occ. eigenvalues --   -0.67765  -0.67322  -0.66382  -0.65604  -0.65056
 Alpha  occ. eigenvalues --   -0.64156  -0.63897  -0.63630  -0.63488  -0.62435
 Alpha  occ. eigenvalues --   -0.61792  -0.61716  -0.61265  -0.60575  -0.60226
 Alpha  occ. eigenvalues --   -0.59613  -0.58819  -0.58110  -0.57408  -0.57391
 Alpha  occ. eigenvalues --   -0.57172  -0.56694  -0.56667  -0.56341  -0.55956
 Alpha  occ. eigenvalues --   -0.55767  -0.55666  -0.55447  -0.54866  -0.54595
 Alpha  occ. eigenvalues --   -0.54481  -0.54339  -0.53844  -0.53711  -0.53286
 Alpha  occ. eigenvalues --   -0.53206  -0.53062  -0.52988  -0.52643  -0.52619
 Alpha  occ. eigenvalues --   -0.52366  -0.52234  -0.52073  -0.52008  -0.51706
 Alpha  occ. eigenvalues --   -0.51645  -0.51199  -0.51132  -0.51022  -0.50753
 Alpha  occ. eigenvalues --   -0.50629  -0.50353  -0.50264  -0.50042  -0.49852
 Alpha  occ. eigenvalues --   -0.49354  -0.49236  -0.49026  -0.48841  -0.48702
 Alpha  occ. eigenvalues --   -0.48662  -0.48371  -0.48019  -0.47865  -0.47460
 Alpha  occ. eigenvalues --   -0.47402  -0.47165  -0.47091  -0.46784  -0.46776
 Alpha  occ. eigenvalues --   -0.46534  -0.46383  -0.46241  -0.46045  -0.45946
 Alpha  occ. eigenvalues --   -0.45594  -0.45346  -0.45219  -0.45007  -0.44893
 Alpha  occ. eigenvalues --   -0.44815  -0.44505  -0.44259  -0.44054  -0.43968
 Alpha  occ. eigenvalues --   -0.43781  -0.43660  -0.43576  -0.43306  -0.42892
 Alpha  occ. eigenvalues --   -0.42846  -0.42534  -0.42290  -0.42029  -0.41717
 Alpha  occ. eigenvalues --   -0.41692  -0.41458  -0.41340  -0.40777  -0.40646
 Alpha  occ. eigenvalues --   -0.39944  -0.39878  -0.39519  -0.39503  -0.39405
 Alpha  occ. eigenvalues --   -0.38902  -0.38822  -0.38333  -0.38113  -0.38059
 Alpha  occ. eigenvalues --   -0.37002  -0.36776  -0.36095  -0.36061  -0.35796
 Alpha  occ. eigenvalues --   -0.35269  -0.35246  -0.34907  -0.33805  -0.32820
 Alpha  occ. eigenvalues --   -0.32651  -0.32325  -0.31900  -0.31227  -0.25874
 Alpha  occ. eigenvalues --   -0.23766
 Alpha virt. eigenvalues --   -0.07820   0.00219   0.02312   0.04531   0.05806
 Alpha virt. eigenvalues --    0.07186   0.07623   0.08015   0.08393   0.09078
 Alpha virt. eigenvalues --    0.10552   0.10677   0.11702   0.11862   0.12593

 Mulliken charges:
               1
     1  Mg   0.947911
     2  C   -0.032468
     3  C   -0.069599
     4  C   -0.065183
     5  C   -0.070864
     6  N   -0.315473
     7  C   -0.022708
     8  C   -0.014411
     9  C   -0.158890
    10  C    0.038050
    11  C    0.018977
    12  C    0.004675
    13  C   -0.009010
    14  C    0.218464
    15  O   -0.271193
    16  O   -0.388928
    17  N   -0.440044
    18  C    0.171796
    19  C   -0.178056
    20  C   -0.067999
    21  C    0.088351
    22  C    0.064325
    23  C    0.017945
    24  O   -0.220158
    25  C    0.006853
    26  N   -0.338275
    27  C    0.076855
    28  C   -0.077422
    29  C   -0.063103
    30  C    0.037526
    31  C    0.040578
    32  C   -0.034288
    33  C   -0.070707
    34  N   -0.471878
    35  C    0.170613
    36  C   -0.176464
    37  C   -0.051955
    38  C    0.203954
    39  C    0.090838
    40  C    0.106619
    41  O   -0.213149
    42  C   -0.078452
    43  C    0.241446
    44  O   -0.236633
    45  O   -0.382931
    46  C    0.144493
    47  C    0.228013
    48  C   -0.140568
    49  C   -0.212363
    50  C    0.021462
    51  C    0.061376
    52  C   -0.046034
    53  C    0.031408
    54  C   -0.180478
    55  C   -0.008655
    56  C    0.041314
    57  C   -0.051871
    58  C   -0.005502
    59  C   -0.211321
    60  C   -0.020363
    61  C    0.036656
    62  C   -0.012952
    63  C    0.055460
    64  C   -0.258306
    65  C    0.003750
    66  C   -0.015571
    67  H   -0.006474
    68  H    0.037410
    69  H    0.000616
    70  H    0.029972
    71  H    0.050989
    72  H    0.029252
    73  H    0.039129
    74  H    0.047854
    75  H    0.082800
    76  H    0.053579
    77  H    0.045542
    78  H    0.051643
    79  H    0.036115
    80  H    0.079370
    81  H    0.032117
    82  H    0.033695
    83  H    0.063147
    84  H    0.031802
    85  H    0.030717
    86  H    0.020592
    87  H    0.048012
    88  H    0.039728
    89  H    0.030117
    90  H    0.029312
    91  H    0.024436
    92  H    0.041310
    93  H    0.027706
    94  H    0.063263
    95  H    0.050632
    96  H    0.063108
    97  H    0.049100
    98  H    0.077462
    99  H    0.062470
   100  H    0.042264
   101  H    0.070261
   102  H    0.082545
   103  H    0.068072
   104  H    0.032477
   105  H    0.053516
   106  H    0.048435
   107  H    0.026999
   108  H    0.013588
   109  H    0.022942
   110  H    0.030597
   111  H    0.032203
   112  H    0.016148
   113  H    0.011756
   114  H    0.018995
   115  H    0.041676
   116  H    0.020620
   117  H    0.015015
   118  H    0.016488
   119  H    0.016270
   120  H    0.009803
   121  H    0.021253
   122  H    0.012891
   123  H    0.010343
   124  H    0.014416
   125  H    0.031609
   126  H    0.028373
   127  H    0.034691
   128  H    0.005508
   129  H    0.017278
   130  H    0.011113
   131  H    0.017035
   132  H    0.017978
   133  H    0.011067
   134  H    0.012567
   135  H    0.022983
   136  H    0.035378
   137  H    0.031380
   138  H    0.019229
   139  H    0.031660
   140  H    0.040568
 Sum of Mulliken charges =  -0.00000

 Dipole moment (field-independent basis, Debye):
    X=             -2.8320    Y=              3.1923    Z=             -3.1922  Tot=              5.3293
 Quadrupole moment (field-independent basis, Debye-Ang):
   XX=           -369.2658   YY=           -417.5402   ZZ=           -403.7875
   XY=             -0.7969   XZ=              3.4210   YZ=              2.5443

 Normal termination of Gaussian 16 at Sat Apr 30 18:03:55 2022.
