 Gaussian 16, Revision A.03,
 Gaussian 16:  ES64L-G16RevA.03 25-Dec-2016

 --------------------
 #p ZINDO=(nstates=5)
 --------------------

 ----------------------------
 step_851_chromophore_1 ZINDO
 ----------------------------
 Symbolic Z-matrix:
 Charge =  0 Multiplicity = 1

                         Standard orientation:
 ---------------------------------------------------------------------
 Center     Atomic      Atomic             Coordinates (Angstroms)
 Number     Number       Type             X           Y           Z
 ---------------------------------------------------------------------
      1         12           0        6.072074    0.503030    0.108496
      2          6           0        3.982677   -2.390020   -0.491172
      3          6           0        3.551883    2.437597   -1.040872
      4          6           0        8.291827    3.100918    0.141483
      5          6           0        8.672194   -1.657468    0.840827
      6          7           0        3.999363   -0.050972   -0.626193
      7          6           0        3.380603   -1.194238   -0.877006
      8          6           0        2.010241   -1.018675   -1.526851
      9          6           0        1.855575    0.542747   -1.720995
     10          6           0        3.235257    1.020284   -1.120564
     11          6           0        1.723495    0.915341   -3.193241
     12          6           0        0.762867   -1.675630   -0.748953
     13          6           0       -0.625764   -0.940186   -0.739244
     14          6           0       -1.803898   -1.659761   -0.038530
     15          8           0       -1.838106   -2.255892    1.041746
     16          8           0       -2.892412   -1.712007   -0.878339
     17          7           0        5.879584    2.511953   -0.280164
     18          6           0        4.772366    3.127567   -0.758871
     19          6           0        5.045941    4.504283   -0.899298
     20          6           0        6.369737    4.766469   -0.435400
     21          6           0        6.882697    3.392031   -0.248829
     22          6           0        3.982987    5.461913   -1.407781
     23          6           0        7.025666    6.021973   -0.129897
     24          8           0        8.191763    6.099070    0.136681
     25          6           0        6.310636    7.322824   -0.362949
     26          7           0        8.235303    0.700012    0.273280
     27          6           0        8.826523    1.881048    0.457303
     28          6           0       10.324465    1.705680    0.575298
     29          6           0       10.380042    0.270251    1.253898
     30          6           0        9.019631   -0.302455    0.767387
     31          6           0       11.069832    1.800032   -0.769271
     32          6           0       10.466016    0.166600    2.768397
     33          6           0        9.574253    1.156884    3.583794
     34          7           0        6.284611   -1.612341    0.232269
     35          6           0        7.473050   -2.353587    0.459006
     36          6           0        7.126571   -3.708611    0.440175
     37          6           0        5.750023   -3.716063    0.090445
     38          6           0        5.268676   -2.466046   -0.101981
     39          6           0        8.056985   -4.905277    0.636836
     40          6           0        4.722931   -4.666630   -0.166822
     41          8           0        4.645000   -5.889466   -0.042816
     42          6           0        3.590539   -3.807454   -0.723536
     43          6           0        2.308163   -4.209050   -0.035530
     44          8           0        1.896802   -3.845041    1.050996
     45          8           0        1.609096   -5.165088   -0.723812
     46          6           0        0.428499   -5.911651   -0.277576
     47          6           0       -4.086944   -2.488980   -0.340199
     48          6           0       -5.403071   -1.786826   -0.896657
     49          6           0       -6.674515   -2.252927   -0.735115
     50          6           0       -7.012355   -3.605638   -0.051453
     51          6           0       -7.780869   -1.429016   -1.289300
     52          6           0       -8.684528   -0.729157   -0.253317
     53          6           0       -9.019052    0.693128   -0.542970
     54          6           0       -8.789313    1.722115    0.562422
     55          6           0       -7.260595    2.029792    0.755271
     56          6           0       -9.339676    1.350715    1.919779
     57          6           0      -10.755724    1.952618    2.252352
     58          6           0      -11.880463    0.912387    2.075927
     59          6           0      -13.206118    1.384615    2.562469
     60          6           0      -13.276952    1.541428    4.202010
     61          6           0      -14.384505    0.659715    1.851081
     62          6           0      -14.740846    1.461134    0.551186
     63          6           0      -14.611718    0.643218   -0.722117
     64          6           0      -13.846705    1.323446   -1.853358
     65          6           0      -14.800781    2.074462   -2.755366
     66          6           0      -12.799303    0.383628   -2.590002
     67          1           0        2.691233    3.012425   -1.389260
     68          1           0        8.961971    3.942847   -0.045284
     69          1           0        9.575934   -2.183340    1.155399
     70          1           0        2.034796   -1.453216   -2.526274
     71          1           0        1.056584    1.042956   -1.173746
     72          1           0        0.832868    1.541345   -3.246158
     73          1           0        1.574043    0.058659   -3.851064
     74          1           0        2.542368    1.511357   -3.593819
     75          1           0        1.069881   -1.734365    0.295223
     76          1           0        0.560418   -2.631604   -1.232645
     77          1           0       -1.078437   -0.596485   -1.669526
     78          1           0       -0.479206   -0.021793   -0.170154
     79          1           0        2.993839    5.025792   -1.268833
     80          1           0        4.359205    5.792487   -2.375815
     81          1           0        3.818019    6.298084   -0.728002
     82          1           0        5.743056    7.292926   -1.294453
     83          1           0        6.886839    8.237039   -0.224989
     84          1           0        5.443461    7.277245    0.296619
     85          1           0       10.661025    2.484664    1.259252
     86          1           0       11.300837   -0.238450    0.971192
     87          1           0       11.341222    2.832653   -0.990245
     88          1           0       10.527156    1.440848   -1.643362
     89          1           0       11.961387    1.172460   -0.765970
     90          1           0       11.489516    0.178205    3.145433
     91          1           0       10.083678   -0.778568    3.152625
     92          1           0       10.272994    1.949404    3.848985
     93          1           0        9.368721    0.658492    4.531101
     94          1           0        8.606335    1.428830    3.162596
     95          1           0        8.706163   -4.911043   -0.239616
     96          1           0        7.425967   -5.792517    0.609020
     97          1           0        8.643976   -4.769735    1.544665
     98          1           0        3.510878   -4.016023   -1.790764
     99          1           0        0.593613   -6.972736   -0.090386
    100          1           0       -0.255110   -5.834393   -1.122872
    101          1           0       -0.045079   -5.467141    0.598934
    102          1           0       -4.174608   -2.349678    0.736548
    103          1           0       -3.877110   -3.506717   -0.670098
    104          1           0       -5.310759   -0.799809   -1.349892
    105          1           0       -7.410199   -4.255821   -0.830336
    106          1           0       -7.654277   -3.535809    0.827483
    107          1           0       -6.150038   -4.096656    0.399042
    108          1           0       -8.443131   -2.141952   -1.780388
    109          1           0       -7.449190   -0.739987   -2.067262
    110          1           0       -8.025577   -0.759743    0.614108
    111          1           0       -9.556011   -1.346108   -0.037944
    112          1           0      -10.080892    0.768409   -0.778313
    113          1           0       -8.494071    1.032666   -1.435624
    114          1           0       -9.212007    2.681017    0.261864
    115          1           0       -6.773013    1.758265    1.691986
    116          1           0       -7.215664    3.119323    0.735738
    117          1           0       -6.722891    1.699910   -0.132833
    118          1           0       -8.699351    1.724050    2.718923
    119          1           0       -9.425435    0.275847    2.079352
    120          1           0      -10.998594    2.636024    1.438706
    121          1           0      -10.913540    2.420049    3.223975
    122          1           0      -11.538233    0.043826    2.638654
    123          1           0      -11.978203    0.647229    1.022586
    124          1           0      -13.278310    2.456659    2.382778
    125          1           0      -12.356352    1.116286    4.600118
    126          1           0      -14.183392    1.033574    4.530280
    127          1           0      -13.352620    2.605689    4.428020
    128          1           0      -15.220760    0.544046    2.540370
    129          1           0      -14.111980   -0.390065    1.738524
    130          1           0      -14.150547    2.369231    0.432606
    131          1           0      -15.642593    2.034075    0.770422
    132          1           0      -15.625144    0.438392   -1.068408
    133          1           0      -14.128239   -0.326694   -0.607798
    134          1           0      -13.129023    2.087458   -1.554381
    135          1           0      -15.059984    1.264007   -3.437765
    136          1           0      -14.281761    2.921848   -3.201767
    137          1           0      -15.726790    2.368559   -2.260836
    138          1           0      -12.866657    0.607564   -3.654890
    139          1           0      -13.056555   -0.668793   -2.464076
    140          1           0      -11.815639    0.647992   -2.203159
 ---------------------------------------------------------------------

 SCF Done:  E(RZINDO/S) =  -474.363594942     A.U. after   18 cycles

 Excitation energies and oscillator strengths:

 Excited State   1:      Singlet-A      1.2270 eV 1010.49 nm  f=0.6021  <S**2>=0.000
     175 ->178        -0.19501
     176 ->177         0.66115
 This state for optimization and/or second-order correction.
 Total Energy, E(CIS/TDA) =  -474.318504436
 Copying the excited state density for this state as the 1-particle RhoCI density.

 Excited State   2:      Singlet-A      1.8708 eV  662.73 nm  f=0.1321  <S**2>=0.000
     175 ->177         0.58970
     176 ->178         0.35889

 Excited State   3:      Singlet-A      2.8517 eV  434.77 nm  f=0.0024  <S**2>=0.000
     168 ->179        -0.12880
     169 ->179         0.28431
     169 ->186         0.16116
     170 ->177         0.29857
     170 ->180        -0.26367
     170 ->187         0.12079
     171 ->177         0.10399
     172 ->177         0.26002
     173 ->179         0.10206

 Excited State   4:      Singlet-A      2.8594 eV  433.61 nm  f=0.0031  <S**2>=0.000
     168 ->177        -0.13440
     168 ->180         0.10989
     169 ->177         0.29231
     169 ->180        -0.26039
     169 ->187         0.11443
     170 ->179         0.31610
     170 ->186         0.17835
     172 ->179         0.10756
     173 ->177         0.22005

 Excited State   5:      Singlet-A      2.9948 eV  413.99 nm  f=0.1086  <S**2>=0.000
     169 ->177         0.13224
     170 ->177        -0.12869
     171 ->177        -0.14501
     172 ->177         0.43332
     173 ->177        -0.32816
     176 ->178         0.22960

 The electronic state is 1-A.
 Alpha  occ. eigenvalues --   -1.86133  -1.83575  -1.80413  -1.72596  -1.71153
 Alpha  occ. eigenvalues --   -1.69978  -1.67109  -1.62003  -1.61626  -1.59529
 Alpha  occ. eigenvalues --   -1.56035  -1.50583  -1.49343  -1.47049  -1.45610
 Alpha  occ. eigenvalues --   -1.42961  -1.41982  -1.40400  -1.38960  -1.37926
 Alpha  occ. eigenvalues --   -1.36807  -1.32695  -1.32463  -1.31166  -1.29237
 Alpha  occ. eigenvalues --   -1.26406  -1.24107  -1.22416  -1.20575  -1.18761
 Alpha  occ. eigenvalues --   -1.17407  -1.16525  -1.15393  -1.14860  -1.13300
 Alpha  occ. eigenvalues --   -1.12217  -1.11159  -1.10759  -1.06103  -1.04430
 Alpha  occ. eigenvalues --   -1.03769  -1.01324  -0.99898  -0.99059  -0.98173
 Alpha  occ. eigenvalues --   -0.96065  -0.94358  -0.93195  -0.92520  -0.91941
 Alpha  occ. eigenvalues --   -0.90065  -0.89099  -0.87477  -0.87408  -0.85797
 Alpha  occ. eigenvalues --   -0.84908  -0.83224  -0.81742  -0.81193  -0.80905
 Alpha  occ. eigenvalues --   -0.79641  -0.79125  -0.77986  -0.77282  -0.77078
 Alpha  occ. eigenvalues --   -0.76011  -0.75490  -0.74953  -0.74844  -0.74402
 Alpha  occ. eigenvalues --   -0.73046  -0.72265  -0.71677  -0.71092  -0.70861
 Alpha  occ. eigenvalues --   -0.69774  -0.69095  -0.68606  -0.68278  -0.68152
 Alpha  occ. eigenvalues --   -0.67793  -0.67746  -0.66567  -0.66039  -0.65797
 Alpha  occ. eigenvalues --   -0.64577  -0.64049  -0.63831  -0.63505  -0.63051
 Alpha  occ. eigenvalues --   -0.62804  -0.62690  -0.62276  -0.62042  -0.61858
 Alpha  occ. eigenvalues --   -0.61330  -0.61040  -0.60932  -0.60672  -0.60043
 Alpha  occ. eigenvalues --   -0.59838  -0.59190  -0.58971  -0.58819  -0.57939
 Alpha  occ. eigenvalues --   -0.57846  -0.57665  -0.57408  -0.57052  -0.56946
 Alpha  occ. eigenvalues --   -0.56535  -0.55773  -0.55248  -0.55143  -0.54849
 Alpha  occ. eigenvalues --   -0.54222  -0.53823  -0.53719  -0.52996  -0.52675
 Alpha  occ. eigenvalues --   -0.52433  -0.52005  -0.51525  -0.51370  -0.51075
 Alpha  occ. eigenvalues --   -0.50932  -0.50733  -0.50444  -0.50250  -0.49915
 Alpha  occ. eigenvalues --   -0.49506  -0.49419  -0.48957  -0.48870  -0.48773
 Alpha  occ. eigenvalues --   -0.48712  -0.48396  -0.48065  -0.47906  -0.47543
 Alpha  occ. eigenvalues --   -0.47301  -0.47217  -0.46958  -0.46488  -0.46101
 Alpha  occ. eigenvalues --   -0.45743  -0.45646  -0.45380  -0.45265  -0.45081
 Alpha  occ. eigenvalues --   -0.44741  -0.44717  -0.44459  -0.44192  -0.44113
 Alpha  occ. eigenvalues --   -0.43359  -0.42954  -0.42303  -0.41710  -0.41609
 Alpha  occ. eigenvalues --   -0.41451  -0.40815  -0.40085  -0.38636  -0.38198
 Alpha  occ. eigenvalues --   -0.37763  -0.36976  -0.34998  -0.34813  -0.34737
 Alpha  occ. eigenvalues --   -0.32750  -0.32583  -0.32156  -0.32015  -0.26533
 Alpha  occ. eigenvalues --   -0.22412
 Alpha virt. eigenvalues --   -0.09256  -0.02135  -0.00474   0.01301   0.01999
 Alpha virt. eigenvalues --    0.02103   0.02742   0.03397   0.04826   0.05039
 Alpha virt. eigenvalues --    0.06336   0.06891   0.07524   0.07965   0.08294

 Mulliken charges:
               1
     1  Mg   0.429271
     2  C   -0.025439
     3  C   -0.069535
     4  C   -0.089498
     5  C   -0.073284
     6  N   -0.262744
     7  C    0.145762
     8  C   -0.000797
     9  C   -0.001537
    10  C    0.090296
    11  C   -0.050143
    12  C   -0.020588
    13  C    0.003946
    14  C    0.458813
    15  O   -0.513825
    16  O   -0.287697
    17  N   -0.298013
    18  C    0.096717
    19  C    0.011774
    20  C   -0.060678
    21  C    0.142857
    22  C   -0.056272
    23  C    0.338121
    24  O   -0.526477
    25  C   -0.036784
    26  N   -0.278166
    27  C    0.146144
    28  C    0.008193
    29  C    0.005612
    30  C    0.139041
    31  C   -0.042966
    32  C   -0.029849
    33  C   -0.063225
    34  N   -0.362846
    35  C    0.105298
    36  C    0.029250
    37  C   -0.039920
    38  C    0.127302
    39  C   -0.040503
    40  C    0.331302
    41  O   -0.527257
    42  C    0.067015
    43  C    0.491156
    44  O   -0.527771
    45  O   -0.293629
    46  C    0.085039
    47  C    0.097452
    48  C   -0.104295
    49  C   -0.005201
    50  C   -0.045171
    51  C   -0.018353
    52  C   -0.025294
    53  C   -0.020265
    54  C   -0.001826
    55  C   -0.067549
    56  C   -0.031858
    57  C   -0.053635
    58  C   -0.027543
    59  C   -0.027723
    60  C   -0.071755
    61  C   -0.032900
    62  C   -0.035546
    63  C   -0.019751
    64  C   -0.021674
    65  C   -0.058590
    66  C   -0.065256
    67  H    0.025003
    68  H    0.051161
    69  H    0.022040
    70  H    0.030557
    71  H    0.042484
    72  H    0.011811
    73  H    0.022200
    74  H    0.025496
    75  H    0.055314
    76  H    0.032865
    77  H    0.035292
    78  H    0.036160
    79  H    0.029749
    80  H    0.045561
    81  H    0.022629
    82  H    0.032670
    83  H    0.046447
    84  H    0.027433
    85  H    0.027440
    86  H    0.026052
    87  H    0.024304
    88  H    0.023516
    89  H    0.015630
    90  H    0.018233
    91  H    0.015425
    92  H    0.021928
    93  H    0.009279
    94  H    0.040497
    95  H    0.030111
    96  H    0.040485
    97  H    0.035719
    98  H    0.056117
    99  H    0.046556
   100  H    0.026279
   101  H    0.053569
   102  H    0.064173
   103  H    0.057725
   104  H    0.038904
   105  H    0.030471
   106  H    0.030899
   107  H    0.019404
   108  H    0.010722
   109  H    0.025979
   110  H    0.018153
   111  H    0.024713
   112  H    0.009142
   113  H    0.016008
   114  H    0.019809
   115  H    0.031206
   116  H    0.006784
   117  H    0.016852
   118  H    0.013160
   119  H    0.022234
   120  H    0.014047
   121  H    0.031388
   122  H    0.014390
   123  H    0.014863
   124  H    0.012357
   125  H    0.025526
   126  H    0.022037
   127  H    0.021720
   128  H    0.013325
   129  H    0.020071
   130  H    0.017010
   131  H    0.022325
   132  H    0.015784
   133  H    0.020429
   134  H    0.011978
   135  H    0.018946
   136  H    0.021761
   137  H    0.019977
   138  H    0.016225
   139  H    0.021862
   140  H    0.024898
 Sum of Mulliken charges =  -0.00000

 Dipole moment (field-independent basis, Debye):
    X=             -3.3494    Y=              4.7996    Z=             -6.1643  Tot=              8.5002
 N-N= 4.257364517176D+03 E-N= 0.000000000000D+00  KE=-9.189497972845D+03
 Leave Link  601 at Sat Apr 30 18:24:23 2022, MaxMem=  6710886400 cpu:               0.7 elap:               0.0
 (Enter /sw/apps/gaussian-16.0/g16/l9999.exe)
 1\1\GINC-BP1-COMPUTE161\SP\RZINDO CIS\STO-3G\C55H74Mg1N4O6\OF15641\30-
 Apr-2022\0\\#p ZINDO=(nstates=5)\\step_851_chromophore_1 ZINDO\\0,1\Mg
 ,0,-1.304,18.078,26.611\C,0,-1.519,15.709,29.338\C,0,-1.997,20.536,28.
 823\C,0,-1.669,20.151,23.919\C,0,-1.035,15.397,24.442\N,0,-1.661,17.99
 6,28.849\C,0,-1.796,17.017,29.73\C,0,-2.195,17.498,31.123\C,0,-2.363,1
 9.063,30.974\C,0,-2.016,19.22,29.442\C,0,-3.79,19.506,31.276\C,0,-1.20
 8,17.09,32.328\C,0,-0.956,18.099,33.506\C,0,-0.057,17.618,34.671\O,0,1

 Normal termination of Gaussian 16 at Sat Apr 30 18:24:23 2022.
