 Gaussian 16, Revision A.03,
 Gaussian 16:  ES64L-G16RevA.03 25-Dec-2016

 ------------------------------
 #p blyp/Def2SVP td=(nstates=5)
 ------------------------------

 ---------------------------------------------------
 step_1551_chromophore_14 TDDFT with blyp functional
 ---------------------------------------------------
 Symbolic Z-matrix:
 Charge =  0 Multiplicity = 1

                         Standard orientation:
 ---------------------------------------------------------------------
 Center     Atomic      Atomic             Coordinates (Angstroms)
 Number     Number       Type             X           Y           Z
 ---------------------------------------------------------------------
      1         12           0        5.038475    1.094485    0.024885
      2          6           0        4.883186   -2.343501    0.654292
      3          6           0        4.617915    0.339916   -3.304668
      4          6           0        4.061915    4.220655   -0.406878
      5          6           0        5.240991    1.641998    3.496239
      6          7           0        4.782852   -0.758582   -1.115650
      7          6           0        4.784997   -2.029567   -0.678162
      8          6           0        4.647556   -3.098674   -1.849583
      9          6           0        4.942688   -2.179815   -3.076601
     10          6           0        4.872858   -0.800359   -2.465975
     11          6           0        6.228606   -2.480481   -3.884004
     12          6           0        3.324571   -3.870143   -1.903075
     13          6           0        2.035431   -3.146986   -1.394645
     14          6           0        0.623666   -3.561899   -1.724345
     15          8           0        0.230871   -4.169564   -2.700805
     16          8           0       -0.271687   -2.931344   -0.885243
     17          7           0        4.455022    2.117845   -1.658469
     18          6           0        4.298054    1.669362   -2.931624
     19          6           0        4.002355    2.782035   -3.785253
     20          6           0        4.034187    3.851191   -2.998437
     21          6           0        4.146534    3.455131   -1.610224
     22          6           0        4.064659    2.635578   -5.217911
     23          6           0        3.908951    5.331700   -3.532572
     24          8           0        3.764467    5.559466   -4.720923
     25          6           0        4.182106    6.540231   -2.549004
     26          7           0        4.744327    2.596850    1.348323
     27          6           0        4.433716    3.841381    0.885402
     28          6           0        4.386695    4.966218    1.984628
     29          6           0        4.775694    4.162278    3.253514
     30          6           0        4.971960    2.725164    2.690319
     31          6           0        5.217726    6.241552    1.659135
     32          6           0        3.630903    4.370800    4.337479
     33          6           0        3.966703    4.131622    5.837284
     34          7           0        5.149500   -0.108360    1.762644
     35          6           0        5.365699    0.232652    3.067225
     36          6           0        5.486287   -0.942709    3.864558
     37          6           0        5.300929   -1.983623    2.937780
     38          6           0        5.045300   -1.413789    1.716236
     39          6           0        5.527180   -0.969005    5.336339
     40          6           0        5.074915   -3.412904    2.799588
     41          8           0        5.075687   -4.396778    3.592695
     42          6           0        4.797222   -3.701313    1.329715
     43          6           0        5.846948   -4.708723    0.862164
     44          8           0        5.549081   -5.812805    0.427985
     45          8           0        7.062715   -4.184364    0.744346
     46          6           0        8.006481   -5.074072    0.155388
     47          6           0       -1.691253   -3.094196   -1.070746
     48          6           0       -2.471936   -1.854020   -0.740185
     49          6           0       -2.994646   -0.816217   -1.444518
     50          6           0       -2.909343   -0.718664   -2.951195
     51          6           0       -3.813929    0.219980   -0.640953
     52          6           0       -5.335159    0.020412   -0.711367
     53          6           0       -6.126735   -0.198653    0.596659
     54          6           0       -7.705885   -0.108229    0.536983
     55          6           0       -8.233963    0.648088    1.811165
     56          6           0       -8.390522   -1.534776    0.502131
     57          6           0       -9.739357   -1.564727   -0.316914
     58          6           0      -11.008748   -2.018219    0.425502
     59          6           0      -11.884348   -0.797783    0.896828
     60          6           0      -12.288717   -0.817220    2.370216
     61          6           0      -13.060947   -0.763085   -0.085804
     62          6           0      -13.466711    0.740450   -0.322335
     63          6           0      -14.918589    0.855205   -0.787616
     64          6           0      -15.870061    1.297541    0.313781
     65          6           0      -17.193361    0.461771    0.324344
     66          6           0      -16.305469    2.790951    0.342310
     67          1           0        4.649995    0.000964   -4.342348
     68          1           0        3.715088    5.255593   -0.371899
     69          1           0        5.336321    1.882124    4.556748
     70          1           0        5.489252   -3.778051   -1.714505
     71          1           0        4.094715   -2.344560   -3.740232
     72          1           0        5.944468   -2.598682   -4.930266
     73          1           0        6.747985   -3.379050   -3.550832
     74          1           0        7.009079   -1.719546   -3.900436
     75          1           0        3.589358   -4.774175   -1.353630
     76          1           0        3.074006   -4.052104   -2.948093
     77          1           0        2.067118   -2.076473   -1.594873
     78          1           0        2.092376   -3.081696   -0.308274
     79          1           0        3.123339    3.080468   -5.541299
     80          1           0        4.167996    1.593373   -5.518814
     81          1           0        4.824916    3.242836   -5.709354
     82          1           0        5.198612    6.571386   -2.156982
     83          1           0        3.463905    6.439907   -1.735854
     84          1           0        4.045560    7.455348   -3.126345
     85          1           0        3.377417    5.375938    2.018353
     86          1           0        5.794141    4.376810    3.578737
     87          1           0        5.920966    6.415368    2.474317
     88          1           0        4.685060    7.161998    1.421623
     89          1           0        5.886143    6.022295    0.826635
     90          1           0        2.757871    3.735043    4.187275
     91          1           0        3.407486    5.429321    4.204686
     92          1           0        4.187403    5.061051    6.361370
     93          1           0        4.738237    3.382641    6.017809
     94          1           0        3.005159    3.832382    6.253867
     95          1           0        4.718376   -0.363629    5.744413
     96          1           0        6.521633   -0.706644    5.696298
     97          1           0        5.480159   -1.998493    5.689000
     98          1           0        3.825284   -4.173244    1.181265
     99          1           0        8.949038   -4.564377    0.356341
    100          1           0        7.861361   -5.127138   -0.924000
    101          1           0        8.064687   -6.023908    0.688015
    102          1           0       -2.080048   -3.749147   -0.289787
    103          1           0       -1.943094   -3.574834   -2.015866
    104          1           0       -2.811839   -1.819386    0.294447
    105          1           0       -2.353615    0.170616   -3.249427
    106          1           0       -3.954189   -0.636572   -3.250734
    107          1           0       -2.378250   -1.623390   -3.249119
    108          1           0       -3.505448    1.157779   -1.101309
    109          1           0       -3.466880    0.318050    0.387875
    110          1           0       -5.584709   -0.753780   -1.435312
    111          1           0       -5.719230    0.958932   -1.110785
    112          1           0       -5.719929    0.591935    1.228024
    113          1           0       -5.771161   -1.096097    1.102785
    114          1           0       -8.079627    0.360084   -0.373881
    115          1           0       -8.919053    1.279875    1.245949
    116          1           0       -7.399307    1.112956    2.336454
    117          1           0       -8.767411   -0.052154    2.452764
    118          1           0       -8.677833   -1.868107    1.498867
    119          1           0       -7.730401   -2.267078    0.037692
    120          1           0       -9.600836   -2.287062   -1.120592
    121          1           0       -9.909147   -0.636623   -0.862757
    122          1           0      -10.772740   -2.603479    1.314303
    123          1           0      -11.555111   -2.755242   -0.162785
    124          1           0      -11.295244    0.105580    0.737195
    125          1           0      -13.373180   -0.893406    2.446396
    126          1           0      -12.012768    0.083838    2.918564
    127          1           0      -12.015293   -1.678098    2.980384
    128          1           0      -13.919267   -1.284226    0.338130
    129          1           0      -12.725738   -1.099590   -1.067847
    130          1           0      -12.807848    1.149959   -1.088188
    131          1           0      -13.442438    1.224228    0.654403
    132          1           0      -15.254584   -0.133401   -1.098148
    133          1           0      -14.930985    1.505903   -1.661943
    134          1           0      -15.386229    1.100425    1.270889
    135          1           0      -17.084015   -0.250727    1.141387
    136          1           0      -17.408714   -0.068976   -0.603036
    137          1           0      -18.009718    1.152155    0.535930
    138          1           0      -15.915062    3.308229   -0.534443
    139          1           0      -15.807731    3.337286    1.143054
    140          1           0      -17.353950    3.052419    0.485091
 ---------------------------------------------------------------------

 SCF Done:  E(RB-LYP) =  -3007.36155442     A.U. after   23 cycles

 Excitation energies and oscillator strengths:

 Excited State   1:      Singlet-A      1.6362 eV  757.76 nm  f=0.0017  <S**2>=0.000
     244 -> 247        0.66632
     245 -> 247        0.22566
 This state for optimization and/or second-order correction.
 Total Energy, E(TD-HF/TD-DFT) =  -3007.30142566
 Copying the excited state density for this state as the 1-particle RhoCI density.

 Excited State   2:      Singlet-A      1.8356 eV  675.45 nm  f=0.2966  <S**2>=0.000
     245 -> 248       -0.17428
     246 -> 247        0.68804
     246 <- 247       -0.14920

 Excited State   3:      Singlet-A      2.0263 eV  611.86 nm  f=0.0098  <S**2>=0.000
     243 -> 247        0.67032
     245 -> 247       -0.19240

 Excited State   4:      Singlet-A      2.0663 eV  600.02 nm  f=0.0887  <S**2>=0.000
     243 -> 247        0.21722
     244 -> 247       -0.19995
     245 -> 247        0.58893
     246 -> 248        0.21681

 Excited State   5:      Singlet-A      2.2575 eV  549.21 nm  f=0.0003  <S**2>=0.000
     242 -> 247        0.70675

 The electronic state is 1-A.
 Alpha  occ. eigenvalues --  -46.26982 -18.82985 -18.80879 -18.76808 -18.76293
 Alpha  occ. eigenvalues --  -18.76217 -18.74797 -14.03888 -14.03706 -14.01449
 Alpha  occ. eigenvalues --  -14.00452 -10.04001 -10.03791 -10.00938  -9.99004
 Alpha  occ. eigenvalues --   -9.97940  -9.97126  -9.97086  -9.97031  -9.96705
 Alpha  occ. eigenvalues --   -9.96501  -9.96285  -9.95859  -9.95324  -9.94829
 Alpha  occ. eigenvalues --   -9.94692  -9.94346  -9.94286  -9.93892  -9.93763
 Alpha  occ. eigenvalues --   -9.93703  -9.93580  -9.93481  -9.93355  -9.93308
 Alpha  occ. eigenvalues --   -9.93283  -9.93167  -9.93095  -9.92991  -9.92948
 Alpha  occ. eigenvalues --   -9.92864  -9.92733  -9.92663  -9.92543  -9.92463
 Alpha  occ. eigenvalues --   -9.92372  -9.92187  -9.92113  -9.91939  -9.91764
 Alpha  occ. eigenvalues --   -9.91722  -9.91707  -9.91556  -9.91521  -9.91262
 Alpha  occ. eigenvalues --   -9.91092  -9.91000  -9.90917  -9.90914  -9.90816
 Alpha  occ. eigenvalues --   -9.90702  -9.90656  -9.90640  -9.90489  -9.90387
 Alpha  occ. eigenvalues --   -9.90327  -2.91839  -1.72249  -1.71745  -1.71533
 Alpha  occ. eigenvalues --   -1.00186  -0.97343  -0.92521  -0.89998  -0.89335
 Alpha  occ. eigenvalues --   -0.88837  -0.87724  -0.87026  -0.86844  -0.86066
 Alpha  occ. eigenvalues --   -0.75825  -0.73281  -0.73117  -0.72909  -0.72756
 Alpha  occ. eigenvalues --   -0.72583  -0.71625  -0.71353  -0.71150  -0.70608
 Alpha  occ. eigenvalues --   -0.70231  -0.69436  -0.68055  -0.67777  -0.67387
 Alpha  occ. eigenvalues --   -0.66558  -0.66082  -0.65451  -0.65179  -0.64629
 Alpha  occ. eigenvalues --   -0.64279  -0.62926  -0.62656  -0.62359  -0.61346
 Alpha  occ. eigenvalues --   -0.60526  -0.60443  -0.59864  -0.59481  -0.58846
 Alpha  occ. eigenvalues --   -0.58576  -0.58061  -0.56873  -0.55858  -0.54979
 Alpha  occ. eigenvalues --   -0.53833  -0.53373  -0.52716  -0.52322  -0.51944
 Alpha  occ. eigenvalues --   -0.51392  -0.50989  -0.50873  -0.50657  -0.49780
 Alpha  occ. eigenvalues --   -0.49777  -0.49437  -0.49085  -0.48847  -0.46751
 Alpha  occ. eigenvalues --   -0.46165  -0.46015  -0.45636  -0.45226  -0.44763
 Alpha  occ. eigenvalues --   -0.44385  -0.43849  -0.43633  -0.43583  -0.42844
 Alpha  occ. eigenvalues --   -0.42305  -0.42245  -0.42018  -0.41822  -0.41138
 Alpha  occ. eigenvalues --   -0.40766  -0.40650  -0.40322  -0.40200  -0.40104
 Alpha  occ. eigenvalues --   -0.39998  -0.39838  -0.39383  -0.39221  -0.39039
 Alpha  occ. eigenvalues --   -0.38864  -0.38776  -0.38622  -0.38572  -0.38448
 Alpha  occ. eigenvalues --   -0.38320  -0.38023  -0.37926  -0.37872  -0.37572
 Alpha  occ. eigenvalues --   -0.37260  -0.37021  -0.36855  -0.36704  -0.36594
 Alpha  occ. eigenvalues --   -0.36280  -0.36082  -0.36007  -0.35657  -0.35573
 Alpha  occ. eigenvalues --   -0.35458  -0.35315  -0.35303  -0.35167  -0.35148
 Alpha  occ. eigenvalues --   -0.34972  -0.34768  -0.34684  -0.34316  -0.34127
 Alpha  occ. eigenvalues --   -0.33902  -0.33764  -0.33509  -0.33287  -0.33176
 Alpha  occ. eigenvalues --   -0.33052  -0.32826  -0.32503  -0.32479  -0.32329
 Alpha  occ. eigenvalues --   -0.32306  -0.32202  -0.31880  -0.31745  -0.31590
 Alpha  occ. eigenvalues --   -0.31264  -0.31174  -0.31146  -0.31050  -0.30946
 Alpha  occ. eigenvalues --   -0.30868  -0.30439  -0.30220  -0.30170  -0.30019
 Alpha  occ. eigenvalues --   -0.29607  -0.29401  -0.29290  -0.29146  -0.29036
 Alpha  occ. eigenvalues --   -0.28590  -0.28462  -0.28179  -0.27951  -0.27766
 Alpha  occ. eigenvalues --   -0.27580  -0.27223  -0.26963  -0.26786  -0.26658
 Alpha  occ. eigenvalues --   -0.26593  -0.26308  -0.26106  -0.25952  -0.25750
 Alpha  occ. eigenvalues --   -0.25633  -0.24404  -0.24152  -0.23724  -0.23673
 Alpha  occ. eigenvalues --   -0.23018  -0.22826  -0.21929  -0.21442  -0.21080
 Alpha  occ. eigenvalues --   -0.20527  -0.20254  -0.19342  -0.17907  -0.17674
 Alpha  occ. eigenvalues --   -0.16302
 Alpha virt. eigenvalues --   -0.11960  -0.06898  -0.06059  -0.05009  -0.03216
 Alpha virt. eigenvalues --   -0.02505  -0.02333  -0.01886  -0.01777  -0.00811
 Alpha virt. eigenvalues --    0.00995   0.01472   0.01798   0.02587   0.02610

 Mulliken charges:
               1
     1  Mg   0.717071
     2  C    0.044989
     3  C   -0.087076
     4  C   -0.047126
     5  C   -0.070570
     6  N   -0.177964
     7  C   -0.153874
     8  C    0.013132
     9  C    0.002038
    10  C    0.001340
    11  C    0.125182
    12  C    0.168263
    13  C    0.064997
    14  C    0.102357
    15  O   -0.180757
    16  O   -0.271695
    17  N   -0.304521
    18  C    0.168289
    19  C   -0.132568
    20  C    0.020192
    21  C    0.170328
    22  C    0.201077
    23  C   -0.057011
    24  O   -0.153681
    25  C    0.092424
    26  N   -0.253941
    27  C    0.015352
    28  C   -0.045960
    29  C    0.110489
    30  C    0.002402
    31  C    0.118086
    32  C    0.065593
    33  C    0.067133
    34  N   -0.199307
    35  C    0.081285
    36  C   -0.194370
    37  C    0.096395
    38  C    0.028040
    39  C    0.193155
    40  C   -0.060291
    41  O   -0.178210
    42  C    0.111852
    43  C    0.083477
    44  O   -0.189772
    45  O   -0.229275
    46  C    0.217940
    47  C    0.349442
    48  C   -0.110450
    49  C   -0.214079
    50  C    0.167373
    51  C    0.151939
    52  C    0.072476
    53  C    0.094129
    54  C   -0.093976
    55  C    0.109419
    56  C    0.108016
    57  C    0.051711
    58  C    0.112497
    59  C   -0.081199
    60  C    0.119167
    61  C    0.098239
    62  C    0.035682
    63  C    0.145325
    64  C   -0.105358
    65  C    0.094360
    66  C    0.098986
    67  H   -0.060994
    68  H   -0.084054
    69  H   -0.082619
    70  H   -0.023928
    71  H   -0.020508
    72  H   -0.003143
    73  H   -0.008445
    74  H   -0.009489
    75  H    0.012525
    76  H   -0.012843
    77  H    0.013470
    78  H   -0.012461
    79  H    0.003318
    80  H   -0.019860
    81  H    0.005722
    82  H    0.020454
    83  H    0.020422
    84  H   -0.008509
    85  H   -0.009995
    86  H   -0.023780
    87  H   -0.018282
    88  H    0.001021
    89  H   -0.013380
    90  H   -0.001700
    91  H   -0.010991
    92  H   -0.011913
    93  H    0.008667
    94  H   -0.011881
    95  H    0.010834
    96  H   -0.012754
    97  H   -0.007144
    98  H   -0.004302
    99  H   -0.001024
   100  H    0.015365
   101  H    0.026620
   102  H   -0.025029
   103  H   -0.001476
   104  H   -0.042010
   105  H    0.000162
   106  H    0.000618
   107  H    0.000612
   108  H   -0.038677
   109  H   -0.029216
   110  H   -0.021740
   111  H   -0.035059
   112  H   -0.044177
   113  H   -0.028786
   114  H   -0.029330
   115  H    0.002041
   116  H   -0.006679
   117  H   -0.005720
   118  H   -0.029684
   119  H   -0.028153
   120  H   -0.044298
   121  H   -0.033830
   122  H   -0.054207
   123  H   -0.036520
   124  H   -0.029648
   125  H   -0.036436
   126  H   -0.008871
   127  H   -0.021232
   128  H   -0.024898
   129  H   -0.026853
   130  H   -0.030081
   131  H   -0.026497
   132  H   -0.040476
   133  H   -0.040686
   134  H   -0.031528
   135  H   -0.017318
   136  H   -0.007848
   137  H   -0.024556
   138  H   -0.026767
   139  H   -0.029308
   140  H   -0.008869
 Sum of Mulliken charges =  -0.00000

 Dipole moment (field-independent basis, Debye):
    X=              1.7056    Y=              6.5317    Z=              0.7589  Tot=              6.7932
 Quadrupole moment (field-independent basis, Debye-Ang):
   XX=           -367.6243   YY=           -434.2394   ZZ=           -417.3174
   XY=             19.8901   XZ=             -8.5530   YZ=             37.6147

 Normal termination of Gaussian 16 at Thu Apr 28 12:04:59 2022.
