 Gaussian 16, Revision A.03,
 Gaussian 16:  ES64L-G16RevA.03 25-Dec-2016

 -----------------------------------
 #p cam-b3lyp/Def2SVP td=(nstates=5)
 -----------------------------------

 --------------------------------------------------------
 step_1551_chromophore_14 TDDFT with cam-b3lyp functional
 --------------------------------------------------------
 Symbolic Z-matrix:
 Charge =  0 Multiplicity = 1

                         Standard orientation:
 ---------------------------------------------------------------------
 Center     Atomic      Atomic             Coordinates (Angstroms)
 Number     Number       Type             X           Y           Z
 ---------------------------------------------------------------------
      1         12           0        5.038475    1.094485    0.024885
      2          6           0        4.883186   -2.343501    0.654292
      3          6           0        4.617915    0.339916   -3.304668
      4          6           0        4.061915    4.220655   -0.406878
      5          6           0        5.240991    1.641998    3.496239
      6          7           0        4.782852   -0.758582   -1.115650
      7          6           0        4.784997   -2.029567   -0.678162
      8          6           0        4.647556   -3.098674   -1.849583
      9          6           0        4.942688   -2.179815   -3.076601
     10          6           0        4.872858   -0.800359   -2.465975
     11          6           0        6.228606   -2.480481   -3.884004
     12          6           0        3.324571   -3.870143   -1.903075
     13          6           0        2.035431   -3.146986   -1.394645
     14          6           0        0.623666   -3.561899   -1.724345
     15          8           0        0.230871   -4.169564   -2.700805
     16          8           0       -0.271687   -2.931344   -0.885243
     17          7           0        4.455022    2.117845   -1.658469
     18          6           0        4.298054    1.669362   -2.931624
     19          6           0        4.002355    2.782035   -3.785253
     20          6           0        4.034187    3.851191   -2.998437
     21          6           0        4.146534    3.455131   -1.610224
     22          6           0        4.064659    2.635578   -5.217911
     23          6           0        3.908951    5.331700   -3.532572
     24          8           0        3.764467    5.559466   -4.720923
     25          6           0        4.182106    6.540231   -2.549004
     26          7           0        4.744327    2.596850    1.348323
     27          6           0        4.433716    3.841381    0.885402
     28          6           0        4.386695    4.966218    1.984628
     29          6           0        4.775694    4.162278    3.253514
     30          6           0        4.971960    2.725164    2.690319
     31          6           0        5.217726    6.241552    1.659135
     32          6           0        3.630903    4.370800    4.337479
     33          6           0        3.966703    4.131622    5.837284
     34          7           0        5.149500   -0.108360    1.762644
     35          6           0        5.365699    0.232652    3.067225
     36          6           0        5.486287   -0.942709    3.864558
     37          6           0        5.300929   -1.983623    2.937780
     38          6           0        5.045300   -1.413789    1.716236
     39          6           0        5.527180   -0.969005    5.336339
     40          6           0        5.074915   -3.412904    2.799588
     41          8           0        5.075687   -4.396778    3.592695
     42          6           0        4.797222   -3.701313    1.329715
     43          6           0        5.846948   -4.708723    0.862164
     44          8           0        5.549081   -5.812805    0.427985
     45          8           0        7.062715   -4.184364    0.744346
     46          6           0        8.006481   -5.074072    0.155388
     47          6           0       -1.691253   -3.094196   -1.070746
     48          6           0       -2.471936   -1.854020   -0.740185
     49          6           0       -2.994646   -0.816217   -1.444518
     50          6           0       -2.909343   -0.718664   -2.951195
     51          6           0       -3.813929    0.219980   -0.640953
     52          6           0       -5.335159    0.020412   -0.711367
     53          6           0       -6.126735   -0.198653    0.596659
     54          6           0       -7.705885   -0.108229    0.536983
     55          6           0       -8.233963    0.648088    1.811165
     56          6           0       -8.390522   -1.534776    0.502131
     57          6           0       -9.739357   -1.564727   -0.316914
     58          6           0      -11.008748   -2.018219    0.425502
     59          6           0      -11.884348   -0.797783    0.896828
     60          6           0      -12.288717   -0.817220    2.370216
     61          6           0      -13.060947   -0.763085   -0.085804
     62          6           0      -13.466711    0.740450   -0.322335
     63          6           0      -14.918589    0.855205   -0.787616
     64          6           0      -15.870061    1.297541    0.313781
     65          6           0      -17.193361    0.461771    0.324344
     66          6           0      -16.305469    2.790951    0.342310
     67          1           0        4.649995    0.000964   -4.342348
     68          1           0        3.715088    5.255593   -0.371899
     69          1           0        5.336321    1.882124    4.556748
     70          1           0        5.489252   -3.778051   -1.714505
     71          1           0        4.094715   -2.344560   -3.740232
     72          1           0        5.944468   -2.598682   -4.930266
     73          1           0        6.747985   -3.379050   -3.550832
     74          1           0        7.009079   -1.719546   -3.900436
     75          1           0        3.589358   -4.774175   -1.353630
     76          1           0        3.074006   -4.052104   -2.948093
     77          1           0        2.067118   -2.076473   -1.594873
     78          1           0        2.092376   -3.081696   -0.308274
     79          1           0        3.123339    3.080468   -5.541299
     80          1           0        4.167996    1.593373   -5.518814
     81          1           0        4.824916    3.242836   -5.709354
     82          1           0        5.198612    6.571386   -2.156982
     83          1           0        3.463905    6.439907   -1.735854
     84          1           0        4.045560    7.455348   -3.126345
     85          1           0        3.377417    5.375938    2.018353
     86          1           0        5.794141    4.376810    3.578737
     87          1           0        5.920966    6.415368    2.474317
     88          1           0        4.685060    7.161998    1.421623
     89          1           0        5.886143    6.022295    0.826635
     90          1           0        2.757871    3.735043    4.187275
     91          1           0        3.407486    5.429321    4.204686
     92          1           0        4.187403    5.061051    6.361370
     93          1           0        4.738237    3.382641    6.017809
     94          1           0        3.005159    3.832382    6.253867
     95          1           0        4.718376   -0.363629    5.744413
     96          1           0        6.521633   -0.706644    5.696298
     97          1           0        5.480159   -1.998493    5.689000
     98          1           0        3.825284   -4.173244    1.181265
     99          1           0        8.949038   -4.564377    0.356341
    100          1           0        7.861361   -5.127138   -0.924000
    101          1           0        8.064687   -6.023908    0.688015
    102          1           0       -2.080048   -3.749147   -0.289787
    103          1           0       -1.943094   -3.574834   -2.015866
    104          1           0       -2.811839   -1.819386    0.294447
    105          1           0       -2.353615    0.170616   -3.249427
    106          1           0       -3.954189   -0.636572   -3.250734
    107          1           0       -2.378250   -1.623390   -3.249119
    108          1           0       -3.505448    1.157779   -1.101309
    109          1           0       -3.466880    0.318050    0.387875
    110          1           0       -5.584709   -0.753780   -1.435312
    111          1           0       -5.719230    0.958932   -1.110785
    112          1           0       -5.719929    0.591935    1.228024
    113          1           0       -5.771161   -1.096097    1.102785
    114          1           0       -8.079627    0.360084   -0.373881
    115          1           0       -8.919053    1.279875    1.245949
    116          1           0       -7.399307    1.112956    2.336454
    117          1           0       -8.767411   -0.052154    2.452764
    118          1           0       -8.677833   -1.868107    1.498867
    119          1           0       -7.730401   -2.267078    0.037692
    120          1           0       -9.600836   -2.287062   -1.120592
    121          1           0       -9.909147   -0.636623   -0.862757
    122          1           0      -10.772740   -2.603479    1.314303
    123          1           0      -11.555111   -2.755242   -0.162785
    124          1           0      -11.295244    0.105580    0.737195
    125          1           0      -13.373180   -0.893406    2.446396
    126          1           0      -12.012768    0.083838    2.918564
    127          1           0      -12.015293   -1.678098    2.980384
    128          1           0      -13.919267   -1.284226    0.338130
    129          1           0      -12.725738   -1.099590   -1.067847
    130          1           0      -12.807848    1.149959   -1.088188
    131          1           0      -13.442438    1.224228    0.654403
    132          1           0      -15.254584   -0.133401   -1.098148
    133          1           0      -14.930985    1.505903   -1.661943
    134          1           0      -15.386229    1.100425    1.270889
    135          1           0      -17.084015   -0.250727    1.141387
    136          1           0      -17.408714   -0.068976   -0.603036
    137          1           0      -18.009718    1.152155    0.535930
    138          1           0      -15.915062    3.308229   -0.534443
    139          1           0      -15.807731    3.337286    1.143054
    140          1           0      -17.353950    3.052419    0.485091
 ---------------------------------------------------------------------

 SCF Done:  E(RCAM-B3LYP) =  -3007.16821445     A.U. after   17 cycles

 Excitation energies and oscillator strengths:

 Excited State   1:      Singlet-A      1.7773 eV  697.60 nm  f=0.3643  <S**2>=0.000
     245 -> 248       -0.16241
     246 -> 247        0.68943
     245 <- 248       -0.10005
 This state for optimization and/or second-order correction.
 Total Energy, E(TD-HF/TD-DFT) =  -3007.10290040
 Copying the excited state density for this state as the 1-particle RhoCI density.

 Excited State   2:      Singlet-A      2.2782 eV  544.22 nm  f=0.1391  <S**2>=0.000
     245 -> 247        0.64946
     246 -> 248        0.26279

 Excited State   3:      Singlet-A      3.3599 eV  369.01 nm  f=0.0043  <S**2>=0.000
     241 -> 247       -0.22345
     243 -> 247        0.19780
     243 -> 249       -0.13217
     243 -> 251        0.13794
     244 -> 247        0.59363

 Excited State   4:      Singlet-A      3.4112 eV  363.46 nm  f=0.0019  <S**2>=0.000
     241 -> 247        0.27640
     243 -> 247        0.51198
     243 -> 249       -0.22740
     243 -> 251        0.21613
     244 -> 247       -0.17659

 Excited State   5:      Singlet-A      3.5077 eV  353.46 nm  f=0.0041  <S**2>=0.000
     239 -> 247        0.21856
     241 -> 247        0.50633
     243 -> 247       -0.16503
     244 -> 247        0.29498
     246 -> 248       -0.18903

 The electronic state is 1-A.
 Alpha  occ. eigenvalues --  -46.88549 -19.25742 -19.23686 -19.20476 -19.19231
 Alpha  occ. eigenvalues --  -19.19093 -19.17581 -14.43069 -14.42468 -14.40269
 Alpha  occ. eigenvalues --  -14.38521 -10.39286 -10.38961 -10.36617 -10.34003
 Alpha  occ. eigenvalues --  -10.32149 -10.32061 -10.31982 -10.31718 -10.31088
 Alpha  occ. eigenvalues --  -10.30893 -10.30493 -10.30449 -10.28852 -10.28831
 Alpha  occ. eigenvalues --  -10.28701 -10.28469 -10.28447 -10.28213 -10.27880
 Alpha  occ. eigenvalues --  -10.27663 -10.27616 -10.27577 -10.27576 -10.27514
 Alpha  occ. eigenvalues --  -10.27416 -10.27306 -10.27223 -10.27123 -10.27122
 Alpha  occ. eigenvalues --  -10.27061 -10.27003 -10.26681 -10.26448 -10.26315
 Alpha  occ. eigenvalues --  -10.26003 -10.25903 -10.25823 -10.25803 -10.25464
 Alpha  occ. eigenvalues --  -10.25354 -10.25229 -10.25211 -10.25146 -10.24938
 Alpha  occ. eigenvalues --  -10.24762 -10.24741 -10.24575 -10.24568 -10.24390
 Alpha  occ. eigenvalues --  -10.24353 -10.24311 -10.24141 -10.24082 -10.24006
 Alpha  occ. eigenvalues --  -10.23924  -3.17316  -1.92199  -1.91802  -1.91602
 Alpha  occ. eigenvalues --   -1.18567  -1.15779  -1.11366  -1.07818  -1.07147
 Alpha  occ. eigenvalues --   -1.06754  -1.05672  -1.04892  -1.04483  -1.03605
 Alpha  occ. eigenvalues --   -0.92759  -0.90129  -0.89959  -0.89745  -0.89658
 Alpha  occ. eigenvalues --   -0.89418  -0.88401  -0.88278  -0.87808  -0.87153
 Alpha  occ. eigenvalues --   -0.86388  -0.85882  -0.84315  -0.83743  -0.83560
 Alpha  occ. eigenvalues --   -0.82541  -0.82150  -0.81378  -0.81149  -0.80648
 Alpha  occ. eigenvalues --   -0.80080  -0.78537  -0.78375  -0.78121  -0.76756
 Alpha  occ. eigenvalues --   -0.75881  -0.75819  -0.75170  -0.74804  -0.73934
 Alpha  occ. eigenvalues --   -0.73747  -0.73085  -0.71823  -0.70717  -0.69456
 Alpha  occ. eigenvalues --   -0.68402  -0.67898  -0.67408  -0.66355  -0.66304
 Alpha  occ. eigenvalues --   -0.65668  -0.65107  -0.65045  -0.64665  -0.63766
 Alpha  occ. eigenvalues --   -0.63421  -0.63399  -0.62774  -0.62736  -0.60603
 Alpha  occ. eigenvalues --   -0.59846  -0.59770  -0.59156  -0.58690  -0.58216
 Alpha  occ. eigenvalues --   -0.57788  -0.57171  -0.57016  -0.56804  -0.56024
 Alpha  occ. eigenvalues --   -0.55421  -0.55154  -0.54980  -0.54547  -0.54077
 Alpha  occ. eigenvalues --   -0.53585  -0.53554  -0.53213  -0.53148  -0.52911
 Alpha  occ. eigenvalues --   -0.52787  -0.52460  -0.52136  -0.51948  -0.51880
 Alpha  occ. eigenvalues --   -0.51350  -0.51234  -0.51106  -0.50963  -0.50849
 Alpha  occ. eigenvalues --   -0.50760  -0.50610  -0.50260  -0.50085  -0.49905
 Alpha  occ. eigenvalues --   -0.49637  -0.49498  -0.49120  -0.49033  -0.48795
 Alpha  occ. eigenvalues --   -0.48415  -0.48201  -0.48171  -0.48088  -0.47873
 Alpha  occ. eigenvalues --   -0.47804  -0.47516  -0.47387  -0.47201  -0.47083
 Alpha  occ. eigenvalues --   -0.47001  -0.46708  -0.46400  -0.46345  -0.45943
 Alpha  occ. eigenvalues --   -0.45809  -0.45549  -0.45321  -0.45123  -0.44909
 Alpha  occ. eigenvalues --   -0.44718  -0.44614  -0.44129  -0.44083  -0.43931
 Alpha  occ. eigenvalues --   -0.43798  -0.43665  -0.43506  -0.43446  -0.43208
 Alpha  occ. eigenvalues --   -0.43136  -0.42642  -0.42521  -0.42370  -0.42282
 Alpha  occ. eigenvalues --   -0.42233  -0.41991  -0.41902  -0.41696  -0.41388
 Alpha  occ. eigenvalues --   -0.41112  -0.40651  -0.40528  -0.40243  -0.40104
 Alpha  occ. eigenvalues --   -0.39606  -0.39496  -0.39337  -0.39106  -0.38661
 Alpha  occ. eigenvalues --   -0.38419  -0.38168  -0.38006  -0.37631  -0.37599
 Alpha  occ. eigenvalues --   -0.37393  -0.37163  -0.37024  -0.36818  -0.36578
 Alpha  occ. eigenvalues --   -0.36303  -0.35086  -0.34833  -0.34732  -0.34058
 Alpha  occ. eigenvalues --   -0.33972  -0.33331  -0.33085  -0.32077  -0.31787
 Alpha  occ. eigenvalues --   -0.30958  -0.29967  -0.29889  -0.29327  -0.24624
 Alpha  occ. eigenvalues --   -0.21832
 Alpha virt. eigenvalues --   -0.09080  -0.01647   0.00495   0.01592   0.02199
 Alpha virt. eigenvalues --    0.04797   0.05208   0.05883   0.05976   0.06197
 Alpha virt. eigenvalues --    0.07596   0.07911   0.08482   0.08756   0.08836

 Mulliken charges:
               1
     1  Mg   0.851197
     2  C    0.022010
     3  C   -0.096799
     4  C   -0.078255
     5  C   -0.075553
     6  N   -0.243370
     7  C   -0.121203
     8  C   -0.020080
     9  C   -0.059597
    10  C    0.022862
    11  C    0.067459
    12  C    0.113815
    13  C   -0.007027
    14  C    0.188381
    15  O   -0.223696
    16  O   -0.336833
    17  N   -0.394919
    18  C    0.178190
    19  C   -0.130692
    20  C   -0.041581
    21  C    0.202913
    22  C    0.136639
    23  C    0.019529
    24  O   -0.190734
    25  C    0.018903
    26  N   -0.332040
    27  C    0.049304
    28  C   -0.104451
    29  C    0.054795
    30  C    0.019420
    31  C    0.057768
    32  C    0.012185
    33  C    0.008341
    34  N   -0.288877
    35  C    0.082046
    36  C   -0.191891
    37  C    0.018185
    38  C    0.060327
    39  C    0.134182
    40  C    0.036206
    41  O   -0.220706
    42  C    0.035755
    43  C    0.168470
    44  O   -0.230526
    45  O   -0.287038
    46  C    0.177040
    47  C    0.317452
    48  C   -0.136126
    49  C   -0.228779
    50  C    0.110555
    51  C    0.089046
    52  C    0.020287
    53  C    0.044415
    54  C   -0.149830
    55  C    0.055342
    56  C    0.058416
    57  C   -0.002042
    58  C    0.057075
    59  C   -0.137163
    60  C    0.058560
    61  C    0.046745
    62  C   -0.014203
    63  C    0.087233
    64  C   -0.166074
    65  C    0.037924
    66  C    0.040041
    67  H   -0.023807
    68  H   -0.048023
    69  H   -0.048669
    70  H    0.009766
    71  H    0.016614
    72  H    0.021022
    73  H    0.017427
    74  H    0.017574
    75  H    0.041170
    76  H    0.018510
    77  H    0.043109
    78  H    0.020307
    79  H    0.033633
    80  H    0.008400
    81  H    0.037201
    82  H    0.047984
    83  H    0.044114
    84  H    0.027481
    85  H    0.025418
    86  H    0.012077
    87  H    0.009836
    88  H    0.025077
    89  H    0.011836
    90  H    0.026182
    91  H    0.014219
    92  H    0.011691
    93  H    0.027878
    94  H    0.012258
    95  H    0.032189
    96  H    0.012374
    97  H    0.020605
    98  H    0.037163
    99  H    0.023953
   100  H    0.033702
   101  H    0.050765
   102  H    0.003259
   103  H    0.031293
   104  H   -0.012095
   105  H    0.023673
   106  H    0.021888
   107  H    0.023400
   108  H   -0.007953
   109  H    0.002894
   110  H    0.003158
   111  H   -0.006667
   112  H   -0.016666
   113  H   -0.002249
   114  H    0.000808
   115  H    0.022844
   116  H    0.017566
   117  H    0.014783
   118  H   -0.003125
   119  H    0.001006
   120  H   -0.013030
   121  H   -0.008911
   122  H   -0.024218
   123  H   -0.005676
   124  H   -0.000138
   125  H   -0.012470
   126  H    0.014763
   127  H    0.004514
   128  H    0.001188
   129  H    0.002036
   130  H   -0.001475
   131  H   -0.000780
   132  H   -0.010358
   133  H   -0.010324
   134  H   -0.000963
   135  H    0.005911
   136  H    0.015051
   137  H   -0.000397
   138  H   -0.002768
   139  H   -0.004741
   140  H    0.015008
 Sum of Mulliken charges =  -0.00000

 Dipole moment (field-independent basis, Debye):
    X=              1.7108    Y=              7.6192    Z=             -0.4211  Tot=              7.8202
 Quadrupole moment (field-independent basis, Debye-Ang):
   XX=           -367.4287   YY=           -430.1434   ZZ=           -416.1742
   XY=             24.2670   XZ=            -14.9893   YZ=             37.3292

 Normal termination of Gaussian 16 at Thu Apr 28 11:07:21 2022.
