 Gaussian 16, Revision A.03,
 Gaussian 16:  ES64L-G16RevA.03 25-Dec-2016

 ---------------------------------
 #p PBE1PBE/Def2SVP td=(nstates=5)
 ---------------------------------

 ------------------------------------------------------
 step_1551_chromophore_14 TDDFT with PBE1PBE functional
 ------------------------------------------------------
 Symbolic Z-matrix:
 Charge =  0 Multiplicity = 1

                         Standard orientation:
 ---------------------------------------------------------------------
 Center     Atomic      Atomic             Coordinates (Angstroms)
 Number     Number       Type             X           Y           Z
 ---------------------------------------------------------------------
      1         12           0        5.038475    1.094485    0.024885
      2          6           0        4.883186   -2.343501    0.654292
      3          6           0        4.617915    0.339916   -3.304668
      4          6           0        4.061915    4.220655   -0.406878
      5          6           0        5.240991    1.641998    3.496239
      6          7           0        4.782852   -0.758582   -1.115650
      7          6           0        4.784997   -2.029567   -0.678162
      8          6           0        4.647556   -3.098674   -1.849583
      9          6           0        4.942688   -2.179815   -3.076601
     10          6           0        4.872858   -0.800359   -2.465975
     11          6           0        6.228606   -2.480481   -3.884004
     12          6           0        3.324571   -3.870143   -1.903075
     13          6           0        2.035431   -3.146986   -1.394645
     14          6           0        0.623666   -3.561899   -1.724345
     15          8           0        0.230871   -4.169564   -2.700805
     16          8           0       -0.271687   -2.931344   -0.885243
     17          7           0        4.455022    2.117845   -1.658469
     18          6           0        4.298054    1.669362   -2.931624
     19          6           0        4.002355    2.782035   -3.785253
     20          6           0        4.034187    3.851191   -2.998437
     21          6           0        4.146534    3.455131   -1.610224
     22          6           0        4.064659    2.635578   -5.217911
     23          6           0        3.908951    5.331700   -3.532572
     24          8           0        3.764467    5.559466   -4.720923
     25          6           0        4.182106    6.540231   -2.549004
     26          7           0        4.744327    2.596850    1.348323
     27          6           0        4.433716    3.841381    0.885402
     28          6           0        4.386695    4.966218    1.984628
     29          6           0        4.775694    4.162278    3.253514
     30          6           0        4.971960    2.725164    2.690319
     31          6           0        5.217726    6.241552    1.659135
     32          6           0        3.630903    4.370800    4.337479
     33          6           0        3.966703    4.131622    5.837284
     34          7           0        5.149500   -0.108360    1.762644
     35          6           0        5.365699    0.232652    3.067225
     36          6           0        5.486287   -0.942709    3.864558
     37          6           0        5.300929   -1.983623    2.937780
     38          6           0        5.045300   -1.413789    1.716236
     39          6           0        5.527180   -0.969005    5.336339
     40          6           0        5.074915   -3.412904    2.799588
     41          8           0        5.075687   -4.396778    3.592695
     42          6           0        4.797222   -3.701313    1.329715
     43          6           0        5.846948   -4.708723    0.862164
     44          8           0        5.549081   -5.812805    0.427985
     45          8           0        7.062715   -4.184364    0.744346
     46          6           0        8.006481   -5.074072    0.155388
     47          6           0       -1.691253   -3.094196   -1.070746
     48          6           0       -2.471936   -1.854020   -0.740185
     49          6           0       -2.994646   -0.816217   -1.444518
     50          6           0       -2.909343   -0.718664   -2.951195
     51          6           0       -3.813929    0.219980   -0.640953
     52          6           0       -5.335159    0.020412   -0.711367
     53          6           0       -6.126735   -0.198653    0.596659
     54          6           0       -7.705885   -0.108229    0.536983
     55          6           0       -8.233963    0.648088    1.811165
     56          6           0       -8.390522   -1.534776    0.502131
     57          6           0       -9.739357   -1.564727   -0.316914
     58          6           0      -11.008748   -2.018219    0.425502
     59          6           0      -11.884348   -0.797783    0.896828
     60          6           0      -12.288717   -0.817220    2.370216
     61          6           0      -13.060947   -0.763085   -0.085804
     62          6           0      -13.466711    0.740450   -0.322335
     63          6           0      -14.918589    0.855205   -0.787616
     64          6           0      -15.870061    1.297541    0.313781
     65          6           0      -17.193361    0.461771    0.324344
     66          6           0      -16.305469    2.790951    0.342310
     67          1           0        4.649995    0.000964   -4.342348
     68          1           0        3.715088    5.255593   -0.371899
     69          1           0        5.336321    1.882124    4.556748
     70          1           0        5.489252   -3.778051   -1.714505
     71          1           0        4.094715   -2.344560   -3.740232
     72          1           0        5.944468   -2.598682   -4.930266
     73          1           0        6.747985   -3.379050   -3.550832
     74          1           0        7.009079   -1.719546   -3.900436
     75          1           0        3.589358   -4.774175   -1.353630
     76          1           0        3.074006   -4.052104   -2.948093
     77          1           0        2.067118   -2.076473   -1.594873
     78          1           0        2.092376   -3.081696   -0.308274
     79          1           0        3.123339    3.080468   -5.541299
     80          1           0        4.167996    1.593373   -5.518814
     81          1           0        4.824916    3.242836   -5.709354
     82          1           0        5.198612    6.571386   -2.156982
     83          1           0        3.463905    6.439907   -1.735854
     84          1           0        4.045560    7.455348   -3.126345
     85          1           0        3.377417    5.375938    2.018353
     86          1           0        5.794141    4.376810    3.578737
     87          1           0        5.920966    6.415368    2.474317
     88          1           0        4.685060    7.161998    1.421623
     89          1           0        5.886143    6.022295    0.826635
     90          1           0        2.757871    3.735043    4.187275
     91          1           0        3.407486    5.429321    4.204686
     92          1           0        4.187403    5.061051    6.361370
     93          1           0        4.738237    3.382641    6.017809
     94          1           0        3.005159    3.832382    6.253867
     95          1           0        4.718376   -0.363629    5.744413
     96          1           0        6.521633   -0.706644    5.696298
     97          1           0        5.480159   -1.998493    5.689000
     98          1           0        3.825284   -4.173244    1.181265
     99          1           0        8.949038   -4.564377    0.356341
    100          1           0        7.861361   -5.127138   -0.924000
    101          1           0        8.064687   -6.023908    0.688015
    102          1           0       -2.080048   -3.749147   -0.289787
    103          1           0       -1.943094   -3.574834   -2.015866
    104          1           0       -2.811839   -1.819386    0.294447
    105          1           0       -2.353615    0.170616   -3.249427
    106          1           0       -3.954189   -0.636572   -3.250734
    107          1           0       -2.378250   -1.623390   -3.249119
    108          1           0       -3.505448    1.157779   -1.101309
    109          1           0       -3.466880    0.318050    0.387875
    110          1           0       -5.584709   -0.753780   -1.435312
    111          1           0       -5.719230    0.958932   -1.110785
    112          1           0       -5.719929    0.591935    1.228024
    113          1           0       -5.771161   -1.096097    1.102785
    114          1           0       -8.079627    0.360084   -0.373881
    115          1           0       -8.919053    1.279875    1.245949
    116          1           0       -7.399307    1.112956    2.336454
    117          1           0       -8.767411   -0.052154    2.452764
    118          1           0       -8.677833   -1.868107    1.498867
    119          1           0       -7.730401   -2.267078    0.037692
    120          1           0       -9.600836   -2.287062   -1.120592
    121          1           0       -9.909147   -0.636623   -0.862757
    122          1           0      -10.772740   -2.603479    1.314303
    123          1           0      -11.555111   -2.755242   -0.162785
    124          1           0      -11.295244    0.105580    0.737195
    125          1           0      -13.373180   -0.893406    2.446396
    126          1           0      -12.012768    0.083838    2.918564
    127          1           0      -12.015293   -1.678098    2.980384
    128          1           0      -13.919267   -1.284226    0.338130
    129          1           0      -12.725738   -1.099590   -1.067847
    130          1           0      -12.807848    1.149959   -1.088188
    131          1           0      -13.442438    1.224228    0.654403
    132          1           0      -15.254584   -0.133401   -1.098148
    133          1           0      -14.930985    1.505903   -1.661943
    134          1           0      -15.386229    1.100425    1.270889
    135          1           0      -17.084015   -0.250727    1.141387
    136          1           0      -17.408714   -0.068976   -0.603036
    137          1           0      -18.009718    1.152155    0.535930
    138          1           0      -15.915062    3.308229   -0.534443
    139          1           0      -15.807731    3.337286    1.143054
    140          1           0      -17.353950    3.052419    0.485091
 ---------------------------------------------------------------------

 SCF Done:  E(RPBE1PBE) =  -3005.35543070     A.U. after   16 cycles

 Excitation energies and oscillator strengths:

 Excited State   1:      Singlet-A      1.8840 eV  658.09 nm  f=0.3530  <S**2>=0.000
     245 -> 248       -0.16413
     246 -> 247        0.69545
     246 <- 247       -0.10719
 This state for optimization and/or second-order correction.
 Total Energy, E(TD-HF/TD-DFT) =  -3005.28619450
 Copying the excited state density for this state as the 1-particle RhoCI density.

 Excited State   2:      Singlet-A      2.2749 eV  545.01 nm  f=0.1306  <S**2>=0.000
     245 -> 247        0.65915
     246 -> 248        0.24599

 Excited State   3:      Singlet-A      2.7735 eV  447.03 nm  f=0.0006  <S**2>=0.000
     244 -> 247        0.67845
     244 -> 249       -0.14356
     244 -> 250        0.10022

 Excited State   4:      Singlet-A      3.0005 eV  413.21 nm  f=0.0039  <S**2>=0.000
     241 -> 247        0.13606
     242 -> 247        0.68187

 Excited State   5:      Singlet-A      3.1171 eV  397.76 nm  f=0.0048  <S**2>=0.000
     241 -> 247        0.66724
     242 -> 247       -0.12188

 The electronic state is 1-A.
 Alpha  occ. eigenvalues --  -46.91936 -19.26432 -19.24359 -19.20407 -19.19480
 Alpha  occ. eigenvalues --  -19.19476 -19.18143 -14.42397 -14.42062 -14.39709
 Alpha  occ. eigenvalues --  -14.38381 -10.36271 -10.36117 -10.33555 -10.31425
 Alpha  occ. eigenvalues --  -10.29570 -10.29448 -10.29136 -10.28993 -10.28502
 Alpha  occ. eigenvalues --  -10.28451 -10.28412 -10.28090 -10.27080 -10.26625
 Alpha  occ. eigenvalues --  -10.26595 -10.26278 -10.26141 -10.25598 -10.25456
 Alpha  occ. eigenvalues --  -10.25404 -10.25374 -10.25290 -10.25133 -10.25112
 Alpha  occ. eigenvalues --  -10.24982 -10.24866 -10.24780 -10.24636 -10.24593
 Alpha  occ. eigenvalues --  -10.24581 -10.24473 -10.24368 -10.24252 -10.24050
 Alpha  occ. eigenvalues --  -10.23529 -10.23359 -10.23140 -10.23132 -10.23018
 Alpha  occ. eigenvalues --  -10.22914 -10.22874 -10.22874 -10.22799 -10.22517
 Alpha  occ. eigenvalues --  -10.22311 -10.22303 -10.22243 -10.22140 -10.21980
 Alpha  occ. eigenvalues --  -10.21944 -10.21853 -10.21782 -10.21544 -10.21480
 Alpha  occ. eigenvalues --  -10.21332  -3.14274  -1.87098  -1.86680  -1.86483
 Alpha  occ. eigenvalues --   -1.13463  -1.10568  -1.05849  -1.02757  -1.01997
 Alpha  occ. eigenvalues --   -1.01721  -1.00204  -0.99440  -0.99223  -0.98324
 Alpha  occ. eigenvalues --   -0.87290  -0.84296  -0.84068  -0.83837  -0.83767
 Alpha  occ. eigenvalues --   -0.83698  -0.82520  -0.82376  -0.82081  -0.81276
 Alpha  occ. eigenvalues --   -0.80995  -0.80068  -0.78492  -0.78130  -0.77768
 Alpha  occ. eigenvalues --   -0.76789  -0.76317  -0.75594  -0.75365  -0.74876
 Alpha  occ. eigenvalues --   -0.74232  -0.72809  -0.72510  -0.72430  -0.71160
 Alpha  occ. eigenvalues --   -0.70209  -0.69982  -0.69299  -0.68887  -0.68309
 Alpha  occ. eigenvalues --   -0.67967  -0.67482  -0.66158  -0.65061  -0.63904
 Alpha  occ. eigenvalues --   -0.62880  -0.62163  -0.61688  -0.60847  -0.60594
 Alpha  occ. eigenvalues --   -0.60012  -0.59620  -0.59330  -0.59191  -0.58034
 Alpha  occ. eigenvalues --   -0.57872  -0.57541  -0.57279  -0.56949  -0.54990
 Alpha  occ. eigenvalues --   -0.54397  -0.54273  -0.53624  -0.53129  -0.52909
 Alpha  occ. eigenvalues --   -0.52254  -0.51665  -0.51461  -0.51268  -0.50376
 Alpha  occ. eigenvalues --   -0.50027  -0.49787  -0.49450  -0.48915  -0.48720
 Alpha  occ. eigenvalues --   -0.48166  -0.48078  -0.47712  -0.47593  -0.47363
 Alpha  occ. eigenvalues --   -0.47171  -0.47010  -0.46669  -0.46529  -0.46366
 Alpha  occ. eigenvalues --   -0.45975  -0.45742  -0.45691  -0.45583  -0.45369
 Alpha  occ. eigenvalues --   -0.45304  -0.44965  -0.44820  -0.44745  -0.44425
 Alpha  occ. eigenvalues --   -0.44129  -0.44106  -0.43836  -0.43574  -0.43338
 Alpha  occ. eigenvalues --   -0.43096  -0.42956  -0.42757  -0.42647  -0.42428
 Alpha  occ. eigenvalues --   -0.42383  -0.42088  -0.42002  -0.41945  -0.41694
 Alpha  occ. eigenvalues --   -0.41605  -0.41453  -0.41086  -0.41028  -0.40657
 Alpha  occ. eigenvalues --   -0.40460  -0.40344  -0.40131  -0.39805  -0.39573
 Alpha  occ. eigenvalues --   -0.39446  -0.39280  -0.38992  -0.38893  -0.38704
 Alpha  occ. eigenvalues --   -0.38547  -0.38384  -0.38306  -0.38136  -0.38038
 Alpha  occ. eigenvalues --   -0.37800  -0.37498  -0.37234  -0.37191  -0.37074
 Alpha  occ. eigenvalues --   -0.36975  -0.36822  -0.36760  -0.36534  -0.36308
 Alpha  occ. eigenvalues --   -0.35936  -0.35616  -0.35271  -0.35207  -0.34875
 Alpha  occ. eigenvalues --   -0.34472  -0.34369  -0.34156  -0.33956  -0.33430
 Alpha  occ. eigenvalues --   -0.33230  -0.33120  -0.32804  -0.32645  -0.32444
 Alpha  occ. eigenvalues --   -0.32192  -0.32131  -0.31872  -0.31834  -0.31498
 Alpha  occ. eigenvalues --   -0.31156  -0.30043  -0.29997  -0.29714  -0.29216
 Alpha  occ. eigenvalues --   -0.28742  -0.28517  -0.28308  -0.27485  -0.26540
 Alpha  occ. eigenvalues --   -0.26151  -0.25362  -0.25264  -0.24873  -0.21447
 Alpha  occ. eigenvalues --   -0.19338
 Alpha virt. eigenvalues --   -0.11588  -0.05187  -0.03707  -0.02407  -0.00975
 Alpha virt. eigenvalues --    0.00626   0.00742   0.01177   0.01407   0.02087
 Alpha virt. eigenvalues --    0.03929   0.04260   0.04603   0.05352   0.05542

 Mulliken charges:
               1
     1  Mg   1.001082
     2  C    0.005423
     3  C   -0.089876
     4  C   -0.069187
     5  C   -0.074231
     6  N   -0.351013
     7  C   -0.039732
     8  C   -0.082470
     9  C   -0.139546
    10  C    0.059243
    11  C    0.013996
    12  C    0.056308
    13  C   -0.086477
    14  C    0.259268
    15  O   -0.259642
    16  O   -0.369157
    17  N   -0.508659
    18  C    0.202062
    19  C   -0.165905
    20  C   -0.083717
    21  C    0.223774
    22  C    0.076757
    23  C    0.074508
    24  O   -0.225991
    25  C   -0.059291
    26  N   -0.440949
    27  C    0.078703
    28  C   -0.178542
    29  C   -0.019319
    30  C    0.059828
    31  C    0.000063
    32  C   -0.051596
    33  C   -0.063808
    34  N   -0.420152
    35  C    0.116585
    36  C   -0.210989
    37  C   -0.022381
    38  C    0.117251
    39  C    0.077763
    40  C    0.126362
    41  O   -0.262914
    42  C   -0.076503
    43  C    0.260397
    44  O   -0.265670
    45  O   -0.318939
    46  C    0.120204
    47  C    0.276979
    48  C   -0.146366
    49  C   -0.268615
    50  C    0.044525
    51  C    0.024892
    52  C   -0.042889
    53  C   -0.009481
    54  C   -0.237008
    55  C   -0.003366
    56  C    0.007220
    57  C   -0.063062
    58  C    0.002925
    59  C   -0.226366
    60  C    0.002800
    61  C   -0.009806
    62  C   -0.081881
    63  C    0.035204
    64  C   -0.259774
    65  C   -0.023224
    66  C   -0.017699
    67  H    0.007059
    68  H   -0.013336
    69  H   -0.010643
    70  H    0.052958
    71  H    0.053141
    72  H    0.047239
    73  H    0.042931
    74  H    0.044369
    75  H    0.072959
    76  H    0.052078
    77  H    0.078579
    78  H    0.054830
    79  H    0.060572
    80  H    0.035203
    81  H    0.063251
    82  H    0.074189
    83  H    0.070122
    84  H    0.054799
    85  H    0.060845
    86  H    0.049111
    87  H    0.037186
    88  H    0.051226
    89  H    0.041096
    90  H    0.057511
    91  H    0.049393
    92  H    0.040487
    93  H    0.053752
    94  H    0.040483
    95  H    0.059924
    96  H    0.043059
    97  H    0.050663
    98  H    0.074637
    99  H    0.046837
   100  H    0.056245
   101  H    0.072480
   102  H    0.031059
   103  H    0.055805
   104  H    0.017380
   105  H    0.052183
   106  H    0.049938
   107  H    0.052241
   108  H    0.026476
   109  H    0.032968
   110  H    0.036098
   111  H    0.026986
   112  H    0.016626
   113  H    0.029722
   114  H    0.037313
   115  H    0.049364
   116  H    0.044184
   117  H    0.042291
   118  H    0.028627
   119  H    0.033744
   120  H    0.020936
   121  H    0.021770
   122  H    0.008381
   123  H    0.026131
   124  H    0.041391
   125  H    0.014923
   126  H    0.040961
   127  H    0.030725
   128  H    0.033957
   129  H    0.036233
   130  H    0.031313
   131  H    0.034197
   132  H    0.023042
   133  H    0.021727
   134  H    0.037397
   135  H    0.033565
   136  H    0.041568
   137  H    0.027191
   138  H    0.024842
   139  H    0.023084
   140  H    0.040497
 Sum of Mulliken charges =  -0.00000

 Dipole moment (field-independent basis, Debye):
    X=              1.8153    Y=              7.2645    Z=              0.3454  Tot=              7.4959
 Quadrupole moment (field-independent basis, Debye-Ang):
   XX=           -363.2323   YY=           -427.5343   ZZ=           -411.5795
   XY=             22.5904   XZ=            -11.4056   YZ=             38.9752

 Normal termination of Gaussian 16 at Thu Apr 28 11:25:51 2022.
