 Gaussian 16, Revision A.03,
 Gaussian 16:  ES64L-G16RevA.03 25-Dec-2016

 --------------------------------
 #p wB97XD/Def2SVP td=(nstates=5)
 --------------------------------

 -----------------------------------------------------
 step_1551_chromophore_14 TDDFT with wB97XD functional
 -----------------------------------------------------
 Symbolic Z-matrix:
 Charge =  0 Multiplicity = 1

                         Standard orientation:
 ---------------------------------------------------------------------
 Center     Atomic      Atomic             Coordinates (Angstroms)
 Number     Number       Type             X           Y           Z
 ---------------------------------------------------------------------
      1         12           0        5.038475    1.094485    0.024885
      2          6           0        4.883186   -2.343501    0.654292
      3          6           0        4.617915    0.339916   -3.304668
      4          6           0        4.061915    4.220655   -0.406878
      5          6           0        5.240991    1.641998    3.496239
      6          7           0        4.782852   -0.758582   -1.115650
      7          6           0        4.784997   -2.029567   -0.678162
      8          6           0        4.647556   -3.098674   -1.849583
      9          6           0        4.942688   -2.179815   -3.076601
     10          6           0        4.872858   -0.800359   -2.465975
     11          6           0        6.228606   -2.480481   -3.884004
     12          6           0        3.324571   -3.870143   -1.903075
     13          6           0        2.035431   -3.146986   -1.394645
     14          6           0        0.623666   -3.561899   -1.724345
     15          8           0        0.230871   -4.169564   -2.700805
     16          8           0       -0.271687   -2.931344   -0.885243
     17          7           0        4.455022    2.117845   -1.658469
     18          6           0        4.298054    1.669362   -2.931624
     19          6           0        4.002355    2.782035   -3.785253
     20          6           0        4.034187    3.851191   -2.998437
     21          6           0        4.146534    3.455131   -1.610224
     22          6           0        4.064659    2.635578   -5.217911
     23          6           0        3.908951    5.331700   -3.532572
     24          8           0        3.764467    5.559466   -4.720923
     25          6           0        4.182106    6.540231   -2.549004
     26          7           0        4.744327    2.596850    1.348323
     27          6           0        4.433716    3.841381    0.885402
     28          6           0        4.386695    4.966218    1.984628
     29          6           0        4.775694    4.162278    3.253514
     30          6           0        4.971960    2.725164    2.690319
     31          6           0        5.217726    6.241552    1.659135
     32          6           0        3.630903    4.370800    4.337479
     33          6           0        3.966703    4.131622    5.837284
     34          7           0        5.149500   -0.108360    1.762644
     35          6           0        5.365699    0.232652    3.067225
     36          6           0        5.486287   -0.942709    3.864558
     37          6           0        5.300929   -1.983623    2.937780
     38          6           0        5.045300   -1.413789    1.716236
     39          6           0        5.527180   -0.969005    5.336339
     40          6           0        5.074915   -3.412904    2.799588
     41          8           0        5.075687   -4.396778    3.592695
     42          6           0        4.797222   -3.701313    1.329715
     43          6           0        5.846948   -4.708723    0.862164
     44          8           0        5.549081   -5.812805    0.427985
     45          8           0        7.062715   -4.184364    0.744346
     46          6           0        8.006481   -5.074072    0.155388
     47          6           0       -1.691253   -3.094196   -1.070746
     48          6           0       -2.471936   -1.854020   -0.740185
     49          6           0       -2.994646   -0.816217   -1.444518
     50          6           0       -2.909343   -0.718664   -2.951195
     51          6           0       -3.813929    0.219980   -0.640953
     52          6           0       -5.335159    0.020412   -0.711367
     53          6           0       -6.126735   -0.198653    0.596659
     54          6           0       -7.705885   -0.108229    0.536983
     55          6           0       -8.233963    0.648088    1.811165
     56          6           0       -8.390522   -1.534776    0.502131
     57          6           0       -9.739357   -1.564727   -0.316914
     58          6           0      -11.008748   -2.018219    0.425502
     59          6           0      -11.884348   -0.797783    0.896828
     60          6           0      -12.288717   -0.817220    2.370216
     61          6           0      -13.060947   -0.763085   -0.085804
     62          6           0      -13.466711    0.740450   -0.322335
     63          6           0      -14.918589    0.855205   -0.787616
     64          6           0      -15.870061    1.297541    0.313781
     65          6           0      -17.193361    0.461771    0.324344
     66          6           0      -16.305469    2.790951    0.342310
     67          1           0        4.649995    0.000964   -4.342348
     68          1           0        3.715088    5.255593   -0.371899
     69          1           0        5.336321    1.882124    4.556748
     70          1           0        5.489252   -3.778051   -1.714505
     71          1           0        4.094715   -2.344560   -3.740232
     72          1           0        5.944468   -2.598682   -4.930266
     73          1           0        6.747985   -3.379050   -3.550832
     74          1           0        7.009079   -1.719546   -3.900436
     75          1           0        3.589358   -4.774175   -1.353630
     76          1           0        3.074006   -4.052104   -2.948093
     77          1           0        2.067118   -2.076473   -1.594873
     78          1           0        2.092376   -3.081696   -0.308274
     79          1           0        3.123339    3.080468   -5.541299
     80          1           0        4.167996    1.593373   -5.518814
     81          1           0        4.824916    3.242836   -5.709354
     82          1           0        5.198612    6.571386   -2.156982
     83          1           0        3.463905    6.439907   -1.735854
     84          1           0        4.045560    7.455348   -3.126345
     85          1           0        3.377417    5.375938    2.018353
     86          1           0        5.794141    4.376810    3.578737
     87          1           0        5.920966    6.415368    2.474317
     88          1           0        4.685060    7.161998    1.421623
     89          1           0        5.886143    6.022295    0.826635
     90          1           0        2.757871    3.735043    4.187275
     91          1           0        3.407486    5.429321    4.204686
     92          1           0        4.187403    5.061051    6.361370
     93          1           0        4.738237    3.382641    6.017809
     94          1           0        3.005159    3.832382    6.253867
     95          1           0        4.718376   -0.363629    5.744413
     96          1           0        6.521633   -0.706644    5.696298
     97          1           0        5.480159   -1.998493    5.689000
     98          1           0        3.825284   -4.173244    1.181265
     99          1           0        8.949038   -4.564377    0.356341
    100          1           0        7.861361   -5.127138   -0.924000
    101          1           0        8.064687   -6.023908    0.688015
    102          1           0       -2.080048   -3.749147   -0.289787
    103          1           0       -1.943094   -3.574834   -2.015866
    104          1           0       -2.811839   -1.819386    0.294447
    105          1           0       -2.353615    0.170616   -3.249427
    106          1           0       -3.954189   -0.636572   -3.250734
    107          1           0       -2.378250   -1.623390   -3.249119
    108          1           0       -3.505448    1.157779   -1.101309
    109          1           0       -3.466880    0.318050    0.387875
    110          1           0       -5.584709   -0.753780   -1.435312
    111          1           0       -5.719230    0.958932   -1.110785
    112          1           0       -5.719929    0.591935    1.228024
    113          1           0       -5.771161   -1.096097    1.102785
    114          1           0       -8.079627    0.360084   -0.373881
    115          1           0       -8.919053    1.279875    1.245949
    116          1           0       -7.399307    1.112956    2.336454
    117          1           0       -8.767411   -0.052154    2.452764
    118          1           0       -8.677833   -1.868107    1.498867
    119          1           0       -7.730401   -2.267078    0.037692
    120          1           0       -9.600836   -2.287062   -1.120592
    121          1           0       -9.909147   -0.636623   -0.862757
    122          1           0      -10.772740   -2.603479    1.314303
    123          1           0      -11.555111   -2.755242   -0.162785
    124          1           0      -11.295244    0.105580    0.737195
    125          1           0      -13.373180   -0.893406    2.446396
    126          1           0      -12.012768    0.083838    2.918564
    127          1           0      -12.015293   -1.678098    2.980384
    128          1           0      -13.919267   -1.284226    0.338130
    129          1           0      -12.725738   -1.099590   -1.067847
    130          1           0      -12.807848    1.149959   -1.088188
    131          1           0      -13.442438    1.224228    0.654403
    132          1           0      -15.254584   -0.133401   -1.098148
    133          1           0      -14.930985    1.505903   -1.661943
    134          1           0      -15.386229    1.100425    1.270889
    135          1           0      -17.084015   -0.250727    1.141387
    136          1           0      -17.408714   -0.068976   -0.603036
    137          1           0      -18.009718    1.152155    0.535930
    138          1           0      -15.915062    3.308229   -0.534443
    139          1           0      -15.807731    3.337286    1.143054
    140          1           0      -17.353950    3.052419    0.485091
 ---------------------------------------------------------------------

 SCF Done:  E(RwB97XD) =  -3007.86691728     A.U. after   17 cycles

 Excitation energies and oscillator strengths:

 Excited State   1:      Singlet-A      1.7493 eV  708.75 nm  f=0.3655  <S**2>=0.000
     245 -> 248       -0.16412
     246 -> 247        0.68730
     245 <- 248       -0.10612
 This state for optimization and/or second-order correction.
 Total Energy, E(TD-HF/TD-DFT) =  -3007.80263077
 Copying the excited state density for this state as the 1-particle RhoCI density.

 Excited State   2:      Singlet-A      2.2328 eV  555.28 nm  f=0.1364  <S**2>=0.000
     245 -> 247        0.64672
     246 -> 248        0.26387

 Excited State   3:      Singlet-A      3.4074 eV  363.86 nm  f=0.0060  <S**2>=0.000
     239 -> 247       -0.11007
     241 -> 247       -0.38968
     244 -> 247        0.53941

 Excited State   4:      Singlet-A      3.4587 eV  358.47 nm  f=0.0015  <S**2>=0.000
     239 -> 247        0.10790
     241 -> 247        0.31197
     243 -> 247        0.44982
     243 -> 249       -0.24124
     243 -> 250       -0.22211
     244 -> 247        0.14403

 Excited State   5:      Singlet-A      3.5412 eV  350.12 nm  f=0.0054  <S**2>=0.000
     239 -> 247        0.19778
     241 -> 247        0.34215
     243 -> 247       -0.32064
     243 -> 249        0.13419
     243 -> 250        0.10795
     244 -> 247        0.36672
     246 -> 248       -0.19771

 The electronic state is 1-A.
 Alpha  occ. eigenvalues --  -46.94914 -19.30911 -19.28927 -19.25546 -19.24152
 Alpha  occ. eigenvalues --  -19.24039 -19.22584 -14.47698 -14.47044 -14.44919
 Alpha  occ. eigenvalues --  -14.43055 -10.43074 -10.42809 -10.40672 -10.37973
 Alpha  occ. eigenvalues --  -10.36254 -10.36176 -10.36161 -10.35419 -10.35047
 Alpha  occ. eigenvalues --  -10.34959 -10.34437 -10.34428 -10.32900 -10.32776
 Alpha  occ. eigenvalues --  -10.32737 -10.32551 -10.32523 -10.32351 -10.32059
 Alpha  occ. eigenvalues --  -10.31684 -10.31670 -10.31590 -10.31530 -10.31504
 Alpha  occ. eigenvalues --  -10.31454 -10.31295 -10.31209 -10.31104 -10.31050
 Alpha  occ. eigenvalues --  -10.30956 -10.30903 -10.30649 -10.30424 -10.30308
 Alpha  occ. eigenvalues --  -10.29881 -10.29815 -10.29740 -10.29603 -10.29414
 Alpha  occ. eigenvalues --  -10.29260 -10.29192 -10.29163 -10.28929 -10.28863
 Alpha  occ. eigenvalues --  -10.28677 -10.28658 -10.28507 -10.28390 -10.28286
 Alpha  occ. eigenvalues --  -10.28220 -10.28208 -10.28082 -10.27909 -10.27896
 Alpha  occ. eigenvalues --  -10.27744  -3.21091  -1.94668  -1.94248  -1.94053
 Alpha  occ. eigenvalues --   -1.20730  -1.17945  -1.13643  -1.09997  -1.09339
 Alpha  occ. eigenvalues --   -1.08894  -1.07743  -1.06979  -1.06477  -1.05622
 Alpha  occ. eigenvalues --   -0.94705  -0.91985  -0.91778  -0.91662  -0.91477
 Alpha  occ. eigenvalues --   -0.91271  -0.90415  -0.90048  -0.89726  -0.88932
 Alpha  occ. eigenvalues --   -0.88266  -0.87764  -0.86175  -0.85598  -0.85445
 Alpha  occ. eigenvalues --   -0.84424  -0.84020  -0.83277  -0.83096  -0.82551
 Alpha  occ. eigenvalues --   -0.81891  -0.80456  -0.80342  -0.80019  -0.78676
 Alpha  occ. eigenvalues --   -0.77849  -0.77662  -0.76974  -0.76587  -0.75837
 Alpha  occ. eigenvalues --   -0.75604  -0.75041  -0.73774  -0.72678  -0.71353
 Alpha  occ. eigenvalues --   -0.70387  -0.69779  -0.69436  -0.68273  -0.68218
 Alpha  occ. eigenvalues --   -0.67617  -0.67103  -0.66918  -0.66643  -0.65557
 Alpha  occ. eigenvalues --   -0.65365  -0.65207  -0.64717  -0.64592  -0.62629
 Alpha  occ. eigenvalues --   -0.61848  -0.61763  -0.61078  -0.60628  -0.60178
 Alpha  occ. eigenvalues --   -0.59698  -0.59139  -0.58942  -0.58651  -0.57876
 Alpha  occ. eigenvalues --   -0.57403  -0.57091  -0.56899  -0.56386  -0.56024
 Alpha  occ. eigenvalues --   -0.55548  -0.55461  -0.55141  -0.55093  -0.54793
 Alpha  occ. eigenvalues --   -0.54756  -0.54352  -0.54030  -0.53874  -0.53813
 Alpha  occ. eigenvalues --   -0.53266  -0.53095  -0.52989  -0.52863  -0.52775
 Alpha  occ. eigenvalues --   -0.52680  -0.52560  -0.52115  -0.51998  -0.51845
 Alpha  occ. eigenvalues --   -0.51505  -0.51389  -0.51047  -0.50941  -0.50662
 Alpha  occ. eigenvalues --   -0.50348  -0.50141  -0.50072  -0.50048  -0.49806
 Alpha  occ. eigenvalues --   -0.49744  -0.49377  -0.49295  -0.49133  -0.48942
 Alpha  occ. eigenvalues --   -0.48916  -0.48664  -0.48292  -0.48232  -0.47866
 Alpha  occ. eigenvalues --   -0.47696  -0.47454  -0.47244  -0.47076  -0.46770
 Alpha  occ. eigenvalues --   -0.46571  -0.46500  -0.46039  -0.45996  -0.45887
 Alpha  occ. eigenvalues --   -0.45662  -0.45532  -0.45501  -0.45332  -0.45132
 Alpha  occ. eigenvalues --   -0.45083  -0.44547  -0.44377  -0.44281  -0.44160
 Alpha  occ. eigenvalues --   -0.44104  -0.43895  -0.43767  -0.43606  -0.43295
 Alpha  occ. eigenvalues --   -0.43024  -0.42636  -0.42383  -0.42124  -0.41955
 Alpha  occ. eigenvalues --   -0.41455  -0.41390  -0.41222  -0.41021  -0.40487
 Alpha  occ. eigenvalues --   -0.40259  -0.40126  -0.39831  -0.39648  -0.39484
 Alpha  occ. eigenvalues --   -0.39215  -0.39138  -0.38881  -0.38856  -0.38437
 Alpha  occ. eigenvalues --   -0.38137  -0.37039  -0.36712  -0.36685  -0.36062
 Alpha  occ. eigenvalues --   -0.35874  -0.35263  -0.35167  -0.34267  -0.33812
 Alpha  occ. eigenvalues --   -0.33171  -0.31979  -0.31796  -0.31403  -0.26575
 Alpha  occ. eigenvalues --   -0.23681
 Alpha virt. eigenvalues --   -0.07391   0.00297   0.02577   0.04135   0.04883
 Alpha virt. eigenvalues --    0.07323   0.07470   0.08112   0.08249   0.08672
 Alpha virt. eigenvalues --    0.10337   0.11150   0.11340   0.11967   0.12239

 Mulliken charges:
               1
     1  Mg   0.989468
     2  C    0.010794
     3  C   -0.106032
     4  C   -0.088241
     5  C   -0.082422
     6  N   -0.313125
     7  C   -0.081735
     8  C   -0.054865
     9  C   -0.113182
    10  C    0.046330
    11  C    0.021002
    12  C    0.069846
    13  C   -0.064454
    14  C    0.249380
    15  O   -0.256520
    16  O   -0.367634
    17  N   -0.479010
    18  C    0.197635
    19  C   -0.146828
    20  C   -0.080531
    21  C    0.226369
    22  C    0.084508
    23  C    0.066372
    24  O   -0.220025
    25  C   -0.043066
    26  N   -0.409388
    27  C    0.075654
    28  C   -0.154297
    29  C    0.004752
    30  C    0.043434
    31  C    0.009825
    32  C   -0.035824
    33  C   -0.047407
    34  N   -0.378110
    35  C    0.097435
    36  C   -0.206557
    37  C   -0.022018
    38  C    0.093742
    39  C    0.086828
    40  C    0.107282
    41  O   -0.256239
    42  C   -0.035770
    43  C    0.234559
    44  O   -0.260182
    45  O   -0.316997
    46  C    0.135719
    47  C    0.290189
    48  C   -0.156114
    49  C   -0.255797
    50  C    0.060839
    51  C    0.042927
    52  C   -0.027311
    53  C    0.007137
    54  C   -0.207666
    55  C    0.010422
    56  C    0.021665
    57  C   -0.047241
    58  C    0.019315
    59  C   -0.190765
    60  C    0.012163
    61  C    0.005233
    62  C   -0.058282
    63  C    0.047441
    64  C   -0.230190
    65  C   -0.008238
    66  C   -0.005333
    67  H    0.001533
    68  H   -0.026958
    69  H   -0.023740
    70  H    0.036283
    71  H    0.042871
    72  H    0.042496
    73  H    0.039283
    74  H    0.039243
    75  H    0.065779
    76  H    0.043794
    77  H    0.067434
    78  H    0.044570
    79  H    0.057827
    80  H    0.032041
    81  H    0.061971
    82  H    0.070069
    83  H    0.065253
    84  H    0.054200
    85  H    0.050870
    86  H    0.039246
    87  H    0.032758
    88  H    0.047089
    89  H    0.032639
    90  H    0.050643
    91  H    0.038108
    92  H    0.034465
    93  H    0.047927
    94  H    0.034548
    95  H    0.053182
    96  H    0.035853
    97  H    0.045538
    98  H    0.067291
    99  H    0.043163
   100  H    0.051246
   101  H    0.068425
   102  H    0.026952
   103  H    0.051889
   104  H    0.012217
   105  H    0.046425
   106  H    0.042948
   107  H    0.045439
   108  H    0.018361
   109  H    0.026381
   110  H    0.025681
   111  H    0.018462
   112  H    0.005153
   113  H    0.021135
   114  H    0.024230
   115  H    0.043078
   116  H    0.039173
   117  H    0.034508
   118  H    0.016691
   119  H    0.026261
   120  H    0.014086
   121  H    0.010443
   122  H   -0.001958
   123  H    0.018533
   124  H    0.020894
   125  H    0.007285
   126  H    0.036373
   127  H    0.025758
   128  H    0.022551
   129  H    0.026428
   130  H    0.024469
   131  H    0.019428
   132  H    0.011463
   133  H    0.014945
   134  H    0.023477
   135  H    0.027722
   136  H    0.035667
   137  H    0.020123
   138  H    0.017865
   139  H    0.017006
   140  H    0.034651
 Sum of Mulliken charges =  -0.00000

 Dipole moment (field-independent basis, Debye):
    X=              1.7363    Y=              7.8282    Z=             -0.6172  Tot=              8.0422
 Quadrupole moment (field-independent basis, Debye-Ang):
   XX=           -363.4615   YY=           -425.9552   ZZ=           -411.7484
   XY=             24.9237   XZ=            -16.2134   YZ=             37.5435

 Normal termination of Gaussian 16 at Thu Apr 28 11:51:49 2022.
