 Gaussian 16, Revision A.03,
 Gaussian 16:  ES64L-G16RevA.03 25-Dec-2016

 --------------------
 #p ZINDO=(nstates=5)
 --------------------

 ------------------------------
 step_1551_chromophore_14 ZINDO
 ------------------------------
 Symbolic Z-matrix:
 Charge =  0 Multiplicity = 1

                         Standard orientation:
 ---------------------------------------------------------------------
 Center     Atomic      Atomic             Coordinates (Angstroms)
 Number     Number       Type             X           Y           Z
 ---------------------------------------------------------------------
      1         12           0        5.038475    1.094485    0.024885
      2          6           0        4.883186   -2.343501    0.654292
      3          6           0        4.617915    0.339916   -3.304668
      4          6           0        4.061915    4.220655   -0.406878
      5          6           0        5.240991    1.641998    3.496239
      6          7           0        4.782852   -0.758582   -1.115650
      7          6           0        4.784997   -2.029567   -0.678162
      8          6           0        4.647556   -3.098674   -1.849583
      9          6           0        4.942688   -2.179815   -3.076601
     10          6           0        4.872858   -0.800359   -2.465975
     11          6           0        6.228606   -2.480481   -3.884004
     12          6           0        3.324571   -3.870143   -1.903075
     13          6           0        2.035431   -3.146986   -1.394645
     14          6           0        0.623666   -3.561899   -1.724345
     15          8           0        0.230871   -4.169564   -2.700805
     16          8           0       -0.271687   -2.931344   -0.885243
     17          7           0        4.455022    2.117845   -1.658469
     18          6           0        4.298054    1.669362   -2.931624
     19          6           0        4.002355    2.782035   -3.785253
     20          6           0        4.034187    3.851191   -2.998437
     21          6           0        4.146534    3.455131   -1.610224
     22          6           0        4.064659    2.635578   -5.217911
     23          6           0        3.908951    5.331700   -3.532572
     24          8           0        3.764467    5.559466   -4.720923
     25          6           0        4.182106    6.540231   -2.549004
     26          7           0        4.744327    2.596850    1.348323
     27          6           0        4.433716    3.841381    0.885402
     28          6           0        4.386695    4.966218    1.984628
     29          6           0        4.775694    4.162278    3.253514
     30          6           0        4.971960    2.725164    2.690319
     31          6           0        5.217726    6.241552    1.659135
     32          6           0        3.630903    4.370800    4.337479
     33          6           0        3.966703    4.131622    5.837284
     34          7           0        5.149500   -0.108360    1.762644
     35          6           0        5.365699    0.232652    3.067225
     36          6           0        5.486287   -0.942709    3.864558
     37          6           0        5.300929   -1.983623    2.937780
     38          6           0        5.045300   -1.413789    1.716236
     39          6           0        5.527180   -0.969005    5.336339
     40          6           0        5.074915   -3.412904    2.799588
     41          8           0        5.075687   -4.396778    3.592695
     42          6           0        4.797222   -3.701313    1.329715
     43          6           0        5.846948   -4.708723    0.862164
     44          8           0        5.549081   -5.812805    0.427985
     45          8           0        7.062715   -4.184364    0.744346
     46          6           0        8.006481   -5.074072    0.155388
     47          6           0       -1.691253   -3.094196   -1.070746
     48          6           0       -2.471936   -1.854020   -0.740185
     49          6           0       -2.994646   -0.816217   -1.444518
     50          6           0       -2.909343   -0.718664   -2.951195
     51          6           0       -3.813929    0.219980   -0.640953
     52          6           0       -5.335159    0.020412   -0.711367
     53          6           0       -6.126735   -0.198653    0.596659
     54          6           0       -7.705885   -0.108229    0.536983
     55          6           0       -8.233963    0.648088    1.811165
     56          6           0       -8.390522   -1.534776    0.502131
     57          6           0       -9.739357   -1.564727   -0.316914
     58          6           0      -11.008748   -2.018219    0.425502
     59          6           0      -11.884348   -0.797783    0.896828
     60          6           0      -12.288717   -0.817220    2.370216
     61          6           0      -13.060947   -0.763085   -0.085804
     62          6           0      -13.466711    0.740450   -0.322335
     63          6           0      -14.918589    0.855205   -0.787616
     64          6           0      -15.870061    1.297541    0.313781
     65          6           0      -17.193361    0.461771    0.324344
     66          6           0      -16.305469    2.790951    0.342310
     67          1           0        4.649995    0.000964   -4.342348
     68          1           0        3.715088    5.255593   -0.371899
     69          1           0        5.336321    1.882124    4.556748
     70          1           0        5.489252   -3.778051   -1.714505
     71          1           0        4.094715   -2.344560   -3.740232
     72          1           0        5.944468   -2.598682   -4.930266
     73          1           0        6.747985   -3.379050   -3.550832
     74          1           0        7.009079   -1.719546   -3.900436
     75          1           0        3.589358   -4.774175   -1.353630
     76          1           0        3.074006   -4.052104   -2.948093
     77          1           0        2.067118   -2.076473   -1.594873
     78          1           0        2.092376   -3.081696   -0.308274
     79          1           0        3.123339    3.080468   -5.541299
     80          1           0        4.167996    1.593373   -5.518814
     81          1           0        4.824916    3.242836   -5.709354
     82          1           0        5.198612    6.571386   -2.156982
     83          1           0        3.463905    6.439907   -1.735854
     84          1           0        4.045560    7.455348   -3.126345
     85          1           0        3.377417    5.375938    2.018353
     86          1           0        5.794141    4.376810    3.578737
     87          1           0        5.920966    6.415368    2.474317
     88          1           0        4.685060    7.161998    1.421623
     89          1           0        5.886143    6.022295    0.826635
     90          1           0        2.757871    3.735043    4.187275
     91          1           0        3.407486    5.429321    4.204686
     92          1           0        4.187403    5.061051    6.361370
     93          1           0        4.738237    3.382641    6.017809
     94          1           0        3.005159    3.832382    6.253867
     95          1           0        4.718376   -0.363629    5.744413
     96          1           0        6.521633   -0.706644    5.696298
     97          1           0        5.480159   -1.998493    5.689000
     98          1           0        3.825284   -4.173244    1.181265
     99          1           0        8.949038   -4.564377    0.356341
    100          1           0        7.861361   -5.127138   -0.924000
    101          1           0        8.064687   -6.023908    0.688015
    102          1           0       -2.080048   -3.749147   -0.289787
    103          1           0       -1.943094   -3.574834   -2.015866
    104          1           0       -2.811839   -1.819386    0.294447
    105          1           0       -2.353615    0.170616   -3.249427
    106          1           0       -3.954189   -0.636572   -3.250734
    107          1           0       -2.378250   -1.623390   -3.249119
    108          1           0       -3.505448    1.157779   -1.101309
    109          1           0       -3.466880    0.318050    0.387875
    110          1           0       -5.584709   -0.753780   -1.435312
    111          1           0       -5.719230    0.958932   -1.110785
    112          1           0       -5.719929    0.591935    1.228024
    113          1           0       -5.771161   -1.096097    1.102785
    114          1           0       -8.079627    0.360084   -0.373881
    115          1           0       -8.919053    1.279875    1.245949
    116          1           0       -7.399307    1.112956    2.336454
    117          1           0       -8.767411   -0.052154    2.452764
    118          1           0       -8.677833   -1.868107    1.498867
    119          1           0       -7.730401   -2.267078    0.037692
    120          1           0       -9.600836   -2.287062   -1.120592
    121          1           0       -9.909147   -0.636623   -0.862757
    122          1           0      -10.772740   -2.603479    1.314303
    123          1           0      -11.555111   -2.755242   -0.162785
    124          1           0      -11.295244    0.105580    0.737195
    125          1           0      -13.373180   -0.893406    2.446396
    126          1           0      -12.012768    0.083838    2.918564
    127          1           0      -12.015293   -1.678098    2.980384
    128          1           0      -13.919267   -1.284226    0.338130
    129          1           0      -12.725738   -1.099590   -1.067847
    130          1           0      -12.807848    1.149959   -1.088188
    131          1           0      -13.442438    1.224228    0.654403
    132          1           0      -15.254584   -0.133401   -1.098148
    133          1           0      -14.930985    1.505903   -1.661943
    134          1           0      -15.386229    1.100425    1.270889
    135          1           0      -17.084015   -0.250727    1.141387
    136          1           0      -17.408714   -0.068976   -0.603036
    137          1           0      -18.009718    1.152155    0.535930
    138          1           0      -15.915062    3.308229   -0.534443
    139          1           0      -15.807731    3.337286    1.143054
    140          1           0      -17.353950    3.052419    0.485091
 ---------------------------------------------------------------------

 SCF Done:  E(RZINDO/S) =  -474.556687973     A.U. after   18 cycles

 Excitation energies and oscillator strengths:

 Excited State   1:      Singlet-A      1.3960 eV  888.14 nm  f=0.5193  <S**2>=0.000
     175 ->178         0.14347
     176 ->177         0.67648
 This state for optimization and/or second-order correction.
 Total Energy, E(CIS/TDA) =  -474.505385805
 Copying the excited state density for this state as the 1-particle RhoCI density.

 Excited State   2:      Singlet-A      1.9769 eV  627.16 nm  f=0.0691  <S**2>=0.000
     175 ->177         0.56088
     176 ->178        -0.38782

 Excited State   3:      Singlet-A      2.9851 eV  415.34 nm  f=0.0007  <S**2>=0.000
     171 ->177         0.27780
     171 ->178        -0.13604
     171 ->179         0.25146
     171 ->180         0.30576
     171 ->181        -0.31061
     171 ->185        -0.21452
     171 ->188         0.18248

 Excited State   4:      Singlet-A      3.0351 eV  408.50 nm  f=0.1826  <S**2>=0.000
     166 ->179        -0.19240
     167 ->177        -0.17336
     167 ->179         0.32170
     167 ->180        -0.12882
     167 ->181         0.11526
     167 ->185        -0.12638
     168 ->179         0.17274
     169 ->177         0.15940
     169 ->179        -0.12921
     175 ->177         0.16449
     176 ->178         0.26020

 Excited State   5:      Singlet-A      3.0540 eV  405.98 nm  f=0.7173  <S**2>=0.000
     166 ->179         0.10140
     167 ->179        -0.18521
     168 ->179        -0.10304
     175 ->177         0.32376
     176 ->178         0.48287
     176 ->179        -0.10947
     176 ->181         0.11542

 The electronic state is 1-A.
 Alpha  occ. eigenvalues --   -1.86877  -1.85596  -1.81493  -1.76257  -1.73763
 Alpha  occ. eigenvalues --   -1.72137  -1.65410  -1.59798  -1.59536  -1.58252
 Alpha  occ. eigenvalues --   -1.55129  -1.50684  -1.48498  -1.46849  -1.46003
 Alpha  occ. eigenvalues --   -1.45081  -1.43937  -1.43134  -1.40013  -1.38238
 Alpha  occ. eigenvalues --   -1.37251  -1.34060  -1.32988  -1.32153  -1.29604
 Alpha  occ. eigenvalues --   -1.27891  -1.26844  -1.23235  -1.22339  -1.18751
 Alpha  occ. eigenvalues --   -1.16974  -1.14857  -1.14525  -1.14470  -1.13725
 Alpha  occ. eigenvalues --   -1.13570  -1.10738  -1.09938  -1.05922  -1.05333
 Alpha  occ. eigenvalues --   -1.04121  -1.02219  -1.00606  -0.98437  -0.97180
 Alpha  occ. eigenvalues --   -0.96157  -0.94600  -0.93232  -0.92461  -0.91561
 Alpha  occ. eigenvalues --   -0.90954  -0.90577  -0.89868  -0.88927  -0.87641
 Alpha  occ. eigenvalues --   -0.85453  -0.83842  -0.83022  -0.82152  -0.80784
 Alpha  occ. eigenvalues --   -0.79178  -0.78040  -0.77634  -0.77368  -0.76651
 Alpha  occ. eigenvalues --   -0.76483  -0.75641  -0.74953  -0.73812  -0.73576
 Alpha  occ. eigenvalues --   -0.72935  -0.72355  -0.71497  -0.71148  -0.70827
 Alpha  occ. eigenvalues --   -0.70612  -0.69283  -0.68790  -0.68234  -0.67981
 Alpha  occ. eigenvalues --   -0.67573  -0.66977  -0.66534  -0.66138  -0.65821
 Alpha  occ. eigenvalues --   -0.65599  -0.65230  -0.64781  -0.64488  -0.63719
 Alpha  occ. eigenvalues --   -0.63648  -0.63336  -0.63052  -0.62614  -0.62475
 Alpha  occ. eigenvalues --   -0.62175  -0.61662  -0.61482  -0.60995  -0.60083
 Alpha  occ. eigenvalues --   -0.59928  -0.59350  -0.59131  -0.59015  -0.58106
 Alpha  occ. eigenvalues --   -0.58012  -0.57930  -0.57626  -0.56956  -0.56322
 Alpha  occ. eigenvalues --   -0.56027  -0.55799  -0.55575  -0.55373  -0.55084
 Alpha  occ. eigenvalues --   -0.54850  -0.54037  -0.53763  -0.52920  -0.52796
 Alpha  occ. eigenvalues --   -0.52374  -0.52167  -0.52096  -0.51787  -0.51738
 Alpha  occ. eigenvalues --   -0.51222  -0.50958  -0.50697  -0.50410  -0.49970
 Alpha  occ. eigenvalues --   -0.49862  -0.49643  -0.49358  -0.49194  -0.48926
 Alpha  occ. eigenvalues --   -0.48652  -0.48504  -0.48130  -0.47835  -0.47749
 Alpha  occ. eigenvalues --   -0.47467  -0.47257  -0.47052  -0.46894  -0.46747
 Alpha  occ. eigenvalues --   -0.46536  -0.46356  -0.45903  -0.45643  -0.45479
 Alpha  occ. eigenvalues --   -0.45373  -0.45094  -0.44806  -0.44775  -0.44343
 Alpha  occ. eigenvalues --   -0.43815  -0.43289  -0.42667  -0.42544  -0.42103
 Alpha  occ. eigenvalues --   -0.41298  -0.40960  -0.40742  -0.39539  -0.38831
 Alpha  occ. eigenvalues --   -0.37737  -0.37311  -0.36891  -0.35439  -0.34629
 Alpha  occ. eigenvalues --   -0.33876  -0.33351  -0.32258  -0.31687  -0.27565
 Alpha  occ. eigenvalues --   -0.22839
 Alpha virt. eigenvalues --   -0.08830  -0.02523  -0.00810   0.01000   0.01146
 Alpha virt. eigenvalues --    0.02042   0.02662   0.03152   0.03697   0.04915
 Alpha virt. eigenvalues --    0.05448   0.06279   0.06673   0.07239   0.07518

 Mulliken charges:
               1
     1  Mg   0.432465
     2  C   -0.029708
     3  C   -0.087307
     4  C   -0.112432
     5  C   -0.072707
     6  N   -0.264050
     7  C    0.077745
     8  C   -0.006040
     9  C    0.008540
    10  C    0.172243
    11  C   -0.046843
    12  C   -0.015756
    13  C    0.006235
    14  C    0.473678
    15  O   -0.516473
    16  O   -0.274243
    17  N   -0.336506
    18  C    0.141220
    19  C    0.078206
    20  C   -0.024847
    21  C    0.157714
    22  C   -0.035233
    23  C    0.305844
    24  O   -0.496693
    25  C   -0.034596
    26  N   -0.269207
    27  C    0.171521
    28  C   -0.002467
    29  C    0.000421
    30  C    0.078567
    31  C   -0.054946
    32  C   -0.030301
    33  C   -0.062978
    34  N   -0.310935
    35  C    0.049649
    36  C    0.002203
    37  C   -0.062398
    38  C    0.097898
    39  C   -0.039050
    40  C    0.322549
    41  O   -0.553045
    42  C    0.054689
    43  C    0.489155
    44  O   -0.534714
    45  O   -0.251786
    46  C    0.081847
    47  C    0.112769
    48  C   -0.100826
    49  C   -0.005259
    50  C   -0.043155
    51  C   -0.017729
    52  C   -0.026491
    53  C   -0.035214
    54  C   -0.019103
    55  C   -0.070886
    56  C   -0.039434
    57  C   -0.040813
    58  C   -0.036210
    59  C   -0.009777
    60  C   -0.057462
    61  C   -0.037971
    62  C   -0.050139
    63  C   -0.031109
    64  C   -0.008580
    65  C   -0.064795
    66  C   -0.060885
    67  H    0.030310
    68  H    0.034327
    69  H    0.024702
    70  H    0.035837
    71  H    0.033560
    72  H    0.018449
    73  H    0.026808
    74  H    0.022475
    75  H    0.043733
    76  H    0.029602
    77  H    0.046246
    78  H    0.032036
    79  H    0.041362
    80  H    0.025676
    81  H    0.045699
    82  H    0.041070
    83  H    0.039152
    84  H    0.037408
    85  H    0.033360
    86  H    0.039847
    87  H    0.018882
    88  H    0.028566
    89  H    0.014699
    90  H    0.033229
    91  H    0.017695
    92  H    0.017966
    93  H    0.032423
    94  H    0.015606
    95  H    0.032692
    96  H    0.026262
    97  H    0.025136
    98  H    0.062037
    99  H    0.016147
   100  H    0.043175
   101  H    0.056055
   102  H    0.031570
   103  H    0.056096
   104  H    0.015852
   105  H    0.029063
   106  H    0.035355
   107  H    0.034242
   108  H    0.013326
   109  H    0.025229
   110  H    0.020483
   111  H    0.010233
   112  H    0.010041
   113  H    0.021344
   114  H    0.028947
   115  H    0.027305
   116  H    0.030835
   117  H    0.026887
   118  H    0.024748
   119  H    0.018229
   120  H    0.005607
   121  H    0.020661
   122  H    0.010293
   123  H    0.019325
   124  H    0.020784
   125  H    0.009734
   126  H    0.018317
   127  H    0.021055
   128  H    0.030249
   129  H    0.022804
   130  H    0.022727
   131  H    0.024713
   132  H    0.015716
   133  H    0.017253
   134  H    0.020298
   135  H    0.015401
   136  H    0.022703
   137  H    0.019138
   138  H    0.012728
   139  H    0.006917
   140  H    0.027501
 Sum of Mulliken charges =  -0.00000

 Dipole moment (field-independent basis, Debye):
    X=              1.0309    Y=             11.3780    Z=             -2.9455  Tot=             11.7982
 N-N= 4.331781572056D+03 E-N= 0.000000000000D+00  KE=-9.337476546098D+03
 Leave Link  601 at Thu Apr 28 12:05:06 2022, MaxMem=  6710886400 cpu:               1.0 elap:               0.1
 (Enter /sw/apps/gaussian-16.0/g16/l9999.exe)
 1\1\GINC-BP1-COMPUTE156\SP\RZINDO CIS\STO-3G\C55H74Mg1N4O6\OF15641\28-
 Apr-2022\0\\#p ZINDO=(nstates=5)\\step_1551_chromophore_14 ZINDO\\0,1\
 Mg,0,46.549,44.709,43.516\C,0,43.185,43.748,43.515\C,0,47.337,41.364,4
 3.367\C,0,49.522,45.612,42.394\C,0,45.508,48.071,43.45\N,0,45.387,42.8
 53,43.445\C,0,44.054,42.686,43.49\C,0,43.611,41.157,43.494\C,0,44.984,
 40.489,43.819\C,0,45.949,41.635,43.629\C,0,45.099,39.746,45.172\C,0,42
 .915,40.656,42.224\C,0,43.311,41.317,40.864\C,0,43.055,40.718,39.504\O

 Normal termination of Gaussian 16 at Thu Apr 28 12:05:06 2022.
