 Gaussian 16, Revision A.03,
 Gaussian 16:  ES64L-G16RevA.03 25-Dec-2016

 ------------------------------
 #p blyp/Def2SVP td=(nstates=5)
 ------------------------------

 ---------------------------------------------------
 step_1051_chromophore_14 TDDFT with blyp functional
 ---------------------------------------------------
 Symbolic Z-matrix:
 Charge =  0 Multiplicity = 1

                         Standard orientation:
 ---------------------------------------------------------------------
 Center     Atomic      Atomic             Coordinates (Angstroms)
 Number     Number       Type             X           Y           Z
 ---------------------------------------------------------------------
      1         12           0        5.381392    0.804596   -0.170539
      2          6           0        4.626177   -2.653599    0.092578
      3          6           0        3.789098    0.703656   -3.317706
      4          6           0        5.426261    4.257066   -0.135516
      5          6           0        6.555395    0.705026    3.094090
      6          7           0        4.306306   -0.830916   -1.467937
      7          6           0        4.212758   -2.173548   -1.169650
      8          6           0        3.543284   -2.920531   -2.329976
      9          6           0        3.390323   -1.805681   -3.394290
     10          6           0        3.921838   -0.572793   -2.680202
     11          6           0        4.133658   -2.104307   -4.726698
     12          6           0        2.188729   -3.667932   -2.067554
     13          6           0        1.361132   -3.160306   -0.847325
     14          6           0       -0.119755   -3.242629   -0.806003
     15          8           0       -0.790694   -4.261048   -0.904877
     16          8           0       -0.693155   -2.009616   -0.893964
     17          7           0        4.649773    2.280435   -1.464661
     18          6           0        4.116557    2.004337   -2.735884
     19          6           0        3.834979    3.265672   -3.405637
     20          6           0        4.222595    4.320977   -2.499460
     21          6           0        4.789042    3.676876   -1.283773
     22          6           0        3.274593    3.395860   -4.847561
     23          6           0        4.011837    5.747358   -2.771503
     24          8           0        3.471278    6.108362   -3.799412
     25          6           0        4.419473    6.795672   -1.822474
     26          7           0        5.819848    2.286669    1.272303
     27          6           0        5.917035    3.615860    0.997171
     28          6           0        6.268878    4.357812    2.265420
     29          6           0        6.712823    3.280592    3.266903
     30          6           0        6.333960    2.012639    2.473235
     31          6           0        7.243546    5.644274    2.137542
     32          6           0        6.146183    3.439245    4.727404
     33          6           0        7.264858    3.209784    5.775609
     34          7           0        5.532716   -0.659410    1.316294
     35          6           0        6.101421   -0.596483    2.630090
     36          6           0        6.078454   -1.918087    3.219117
     37          6           0        5.508071   -2.723200    2.177310
     38          6           0        5.207352   -1.928686    1.069075
     39          6           0        6.601994   -2.221798    4.594176
     40          6           0        5.145442   -4.115872    1.845789
     41          8           0        5.292819   -5.184517    2.483845
     42          6           0        4.512131   -4.069916    0.507223
     43          6           0        5.356246   -4.948145   -0.318919
     44          8           0        4.957865   -5.899159   -0.975599
     45          8           0        6.665219   -4.421647   -0.416932
     46          6           0        7.544982   -5.207454   -1.276739
     47          6           0       -2.204300   -2.013425   -0.935376
     48          6           0       -2.977957   -0.697990   -0.674273
     49          6           0       -4.082648   -0.222299   -1.305249
     50          6           0       -4.720602   -1.052139   -2.393636
     51          6           0       -4.643274    1.067517   -0.892135
     52          6           0       -6.102746    1.007231   -0.414681
     53          6           0       -6.375200   -0.052432    0.724623
     54          6           0       -7.794550    0.049904    1.177190
     55          6           0       -7.964686    0.078483    2.734879
     56          6           0       -8.640230   -1.149098    0.558089
     57          6           0      -10.037998   -0.591239    0.117037
     58          6           0      -11.135574   -1.306298    0.851203
     59          6           0      -12.100392   -0.233768    1.612674
     60          6           0      -11.842287   -0.218591    3.143456
     61          6           0      -13.599890   -0.488684    1.412613
     62          6           0      -14.443247    0.829418    1.533889
     63          6           0      -14.841486    1.394908    0.214052
     64          6           0      -16.334684    1.204327   -0.148063
     65          6           0      -16.458711    0.173470   -1.267346
     66          6           0      -16.918867    2.556886   -0.586889
     67          1           0        3.234629    0.742344   -4.258051
     68          1           0        5.476343    5.347289   -0.094831
     69          1           0        7.127387    0.734958    4.023790
     70          1           0        4.214815   -3.714187   -2.654717
     71          1           0        2.353913   -1.599600   -3.661406
     72          1           0        4.457656   -1.135334   -5.106720
     73          1           0        3.408703   -2.532695   -5.419121
     74          1           0        4.956648   -2.801907   -4.571437
     75          1           0        2.399449   -4.707536   -1.819584
     76          1           0        1.530617   -3.501505   -2.920230
     77          1           0        1.773400   -2.166985   -0.671416
     78          1           0        1.620744   -3.756420    0.027526
     79          1           0        2.272249    3.825137   -4.856367
     80          1           0        3.110948    2.423983   -5.312240
     81          1           0        4.022573    3.905549   -5.453910
     82          1           0        5.443793    6.618720   -1.493922
     83          1           0        3.777712    6.815723   -0.941635
     84          1           0        4.391725    7.729823   -2.383734
     85          1           0        5.289554    4.724011    2.574243
     86          1           0        7.793743    3.181887    3.360412
     87          1           0        7.583665    5.644405    1.102544
     88          1           0        8.140373    5.499033    2.740687
     89          1           0        6.725270    6.578853    2.354120
     90          1           0        5.401161    2.675094    4.950718
     91          1           0        5.675427    4.413663    4.854866
     92          1           0        7.367324    4.191765    6.238057
     93          1           0        8.193791    2.752505    5.432975
     94          1           0        6.889753    2.537320    6.546971
     95          1           0        7.502882   -1.658421    4.836111
     96          1           0        6.774472   -3.296181    4.653441
     97          1           0        5.824699   -2.043683    5.337784
     98          1           0        3.492980   -4.453911    0.457098
     99          1           0        8.504663   -4.710517   -1.421466
    100          1           0        7.024801   -5.651993   -2.125289
    101          1           0        7.931495   -6.017716   -0.658642
    102          1           0       -2.532344   -2.653716   -0.116065
    103          1           0       -2.513733   -2.375912   -1.915041
    104          1           0       -2.459140   -0.034902    0.017649
    105          1           0       -5.511791   -0.509747   -2.911154
    106          1           0       -5.008035   -1.988100   -1.915633
    107          1           0       -3.858565   -1.167224   -3.050526
    108          1           0       -4.495563    1.746808   -1.731260
    109          1           0       -4.042321    1.495299   -0.089280
    110          1           0       -6.784947    0.954958   -1.263332
    111          1           0       -6.268781    1.997018    0.012598
    112          1           0       -5.734160    0.285419    1.539071
    113          1           0       -6.058368   -1.015605    0.323435
    114          1           0       -8.233743    0.988673    0.839986
    115          1           0       -6.998643   -0.002692    3.232527
    116          1           0       -8.698914   -0.635590    3.108265
    117          1           0       -8.416114    1.002716    3.096171
    118          1           0       -8.650546   -1.942043    1.306155
    119          1           0       -8.287539   -1.510725   -0.408453
    120          1           0      -10.139699   -0.926289   -0.914970
    121          1           0      -10.116503    0.494025    0.044185
    122          1           0      -10.717501   -1.955329    1.620988
    123          1           0      -11.712897   -1.994546    0.233335
    124          1           0      -11.890282    0.799211    1.338187
    125          1           0      -11.506800    0.770950    3.454007
    126          1           0      -11.034815   -0.876210    3.465245
    127          1           0      -12.739452   -0.483868    3.703885
    128          1           0      -14.047467   -1.082907    2.208776
    129          1           0      -13.789528   -1.074932    0.512792
    130          1           0      -13.878311    1.530189    2.150088
    131          1           0      -15.365412    0.603948    2.068619
    132          1           0      -14.207153    1.140793   -0.635645
    133          1           0      -14.657161    2.469868    0.245257
    134          1           0      -16.986888    0.909130    0.673861
    135          1           0      -17.071417    0.474941   -2.116614
    136          1           0      -16.990891   -0.735381   -0.987806
    137          1           0      -15.492566   -0.233043   -1.564547
    138          1           0      -17.961042    2.552846   -0.267165
    139          1           0      -16.892942    2.665604   -1.671447
    140          1           0      -16.433354    3.443769   -0.180268
 ---------------------------------------------------------------------

 SCF Done:  E(RB-LYP) =  -3007.35829583     A.U. after   20 cycles

 Excitation energies and oscillator strengths:

 Excited State   1:      Singlet-A      1.6937 eV  732.02 nm  f=0.0000  <S**2>=0.000
     244 -> 247        0.70533
 This state for optimization and/or second-order correction.
 Total Energy, E(TD-HF/TD-DFT) =  -3007.29605242
 Copying the excited state density for this state as the 1-particle RhoCI density.

 Excited State   2:      Singlet-A      1.7870 eV  693.82 nm  f=0.2328  <S**2>=0.000
     243 -> 247        0.18466
     245 -> 248       -0.20455
     246 -> 247        0.65732
     246 <- 247       -0.13744

 Excited State   3:      Singlet-A      1.8542 eV  668.65 nm  f=0.0367  <S**2>=0.000
     243 -> 247        0.64690
     245 -> 247        0.20116
     246 -> 247       -0.18468

 Excited State   4:      Singlet-A      2.0115 eV  616.37 nm  f=0.0571  <S**2>=0.000
     242 -> 247       -0.27037
     243 -> 247       -0.19716
     245 -> 247        0.55734
     246 -> 248        0.25091

 Excited State   5:      Singlet-A      2.0247 eV  612.36 nm  f=0.0109  <S**2>=0.000
     242 -> 247        0.65304
     245 -> 247        0.23048
     246 -> 248        0.11063

 The electronic state is 1-A.
 Alpha  occ. eigenvalues --  -46.28086 -18.82370 -18.81386 -18.77840 -18.75645
 Alpha  occ. eigenvalues --  -18.75589 -18.74668 -14.03817 -14.03772 -14.01841
 Alpha  occ. eigenvalues --  -14.01229 -10.04680 -10.03263  -9.99645  -9.98745
 Alpha  occ. eigenvalues --   -9.97679  -9.97623  -9.97572  -9.97164  -9.97053
 Alpha  occ. eigenvalues --   -9.96973  -9.96645  -9.96497  -9.96484  -9.94528
 Alpha  occ. eigenvalues --   -9.94418  -9.94391  -9.94362  -9.94195  -9.94145
 Alpha  occ. eigenvalues --   -9.94111  -9.94002  -9.93954  -9.93875  -9.93787
 Alpha  occ. eigenvalues --   -9.93580  -9.93554  -9.93455  -9.93452  -9.92877
 Alpha  occ. eigenvalues --   -9.92832  -9.92709  -9.92664  -9.92532  -9.92433
 Alpha  occ. eigenvalues --   -9.92335  -9.92257  -9.91751  -9.91731  -9.91716
 Alpha  occ. eigenvalues --   -9.91680  -9.91669  -9.91636  -9.91613  -9.91347
 Alpha  occ. eigenvalues --   -9.91107  -9.91071  -9.90828  -9.90801  -9.90673
 Alpha  occ. eigenvalues --   -9.90640  -9.90348  -9.90336  -9.90309  -9.90271
 Alpha  occ. eigenvalues --   -9.90130  -2.92613  -1.73026  -1.72512  -1.72312
 Alpha  occ. eigenvalues --   -0.97581  -0.96888  -0.91581  -0.90311  -0.89996
 Alpha  occ. eigenvalues --   -0.88336  -0.87742  -0.87439  -0.85641  -0.83476
 Alpha  occ. eigenvalues --   -0.77683  -0.74098  -0.73078  -0.72770  -0.72562
 Alpha  occ. eigenvalues --   -0.72085  -0.72011  -0.70978  -0.70550  -0.70018
 Alpha  occ. eigenvalues --   -0.69161  -0.68828  -0.68160  -0.67843  -0.67626
 Alpha  occ. eigenvalues --   -0.66447  -0.66241  -0.65146  -0.64901  -0.64630
 Alpha  occ. eigenvalues --   -0.64123  -0.62764  -0.62317  -0.61771  -0.61392
 Alpha  occ. eigenvalues --   -0.60927  -0.60268  -0.59976  -0.58903  -0.58712
 Alpha  occ. eigenvalues --   -0.58496  -0.57891  -0.57427  -0.56170  -0.55087
 Alpha  occ. eigenvalues --   -0.54119  -0.53317  -0.52892  -0.52357  -0.52215
 Alpha  occ. eigenvalues --   -0.51755  -0.51078  -0.50884  -0.50607  -0.50035
 Alpha  occ. eigenvalues --   -0.49563  -0.49486  -0.48680  -0.48353  -0.46767
 Alpha  occ. eigenvalues --   -0.46065  -0.45827  -0.45429  -0.45118  -0.44747
 Alpha  occ. eigenvalues --   -0.44258  -0.43901  -0.43337  -0.43240  -0.42870
 Alpha  occ. eigenvalues --   -0.42347  -0.42182  -0.41705  -0.41422  -0.41202
 Alpha  occ. eigenvalues --   -0.40737  -0.40470  -0.40225  -0.40051  -0.39974
 Alpha  occ. eigenvalues --   -0.39816  -0.39615  -0.39453  -0.39444  -0.39382
 Alpha  occ. eigenvalues --   -0.39186  -0.38981  -0.38801  -0.38575  -0.38394
 Alpha  occ. eigenvalues --   -0.38334  -0.38264  -0.37692  -0.37398  -0.37375
 Alpha  occ. eigenvalues --   -0.37150  -0.37047  -0.36945  -0.36767  -0.36622
 Alpha  occ. eigenvalues --   -0.36579  -0.36355  -0.36080  -0.35703  -0.35515
 Alpha  occ. eigenvalues --   -0.35365  -0.35169  -0.35027  -0.34977  -0.34877
 Alpha  occ. eigenvalues --   -0.34596  -0.34516  -0.34419  -0.34144  -0.33880
 Alpha  occ. eigenvalues --   -0.33657  -0.33387  -0.33318  -0.33270  -0.33218
 Alpha  occ. eigenvalues --   -0.33133  -0.32968  -0.32744  -0.32612  -0.32523
 Alpha  occ. eigenvalues --   -0.32313  -0.32177  -0.31954  -0.31855  -0.31554
 Alpha  occ. eigenvalues --   -0.31434  -0.31339  -0.31079  -0.30901  -0.30851
 Alpha  occ. eigenvalues --   -0.30623  -0.30471  -0.30267  -0.30216  -0.29933
 Alpha  occ. eigenvalues --   -0.29717  -0.29120  -0.29024  -0.29010  -0.28925
 Alpha  occ. eigenvalues --   -0.28689  -0.28435  -0.28351  -0.28086  -0.28033
 Alpha  occ. eigenvalues --   -0.27751  -0.27374  -0.27191  -0.26966  -0.26832
 Alpha  occ. eigenvalues --   -0.26214  -0.26047  -0.25765  -0.25722  -0.25034
 Alpha  occ. eigenvalues --   -0.24594  -0.24465  -0.24120  -0.23938  -0.23635
 Alpha  occ. eigenvalues --   -0.22841  -0.22711  -0.21992  -0.21081  -0.20757
 Alpha  occ. eigenvalues --   -0.20356  -0.19460  -0.18738  -0.18189  -0.17790
 Alpha  occ. eigenvalues --   -0.16324
 Alpha virt. eigenvalues --   -0.12028  -0.07816  -0.06634  -0.04713  -0.03580
 Alpha virt. eigenvalues --   -0.03426  -0.02428  -0.01819  -0.01670  -0.00674
 Alpha virt. eigenvalues --    0.00633   0.01553   0.02217   0.02414   0.02970

 Mulliken charges:
               1
     1  Mg   0.691339
     2  C   -0.047285
     3  C   -0.074619
     4  C   -0.054697
     5  C   -0.067662
     6  N   -0.140432
     7  C   -0.149142
     8  C    0.080318
     9  C   -0.035516
    10  C    0.020401
    11  C    0.128206
    12  C    0.125355
    13  C    0.096072
    14  C    0.060808
    15  O   -0.202119
    16  O   -0.275908
    17  N   -0.336003
    18  C    0.143741
    19  C   -0.155531
    20  C    0.058859
    21  C    0.130320
    22  C    0.204527
    23  C   -0.135093
    24  O   -0.164117
    25  C    0.147127
    26  N   -0.205595
    27  C    0.024713
    28  C   -0.000856
    29  C    0.030275
    30  C    0.003999
    31  C    0.125524
    32  C    0.099040
    33  C    0.043695
    34  N   -0.284230
    35  C    0.108115
    36  C   -0.170347
    37  C    0.055490
    38  C    0.188019
    39  C    0.171473
    40  C   -0.065473
    41  O   -0.158169
    42  C    0.147377
    43  C    0.099683
    44  O   -0.161321
    45  O   -0.302984
    46  C    0.232895
    47  C    0.304803
    48  C   -0.119506
    49  C   -0.205269
    50  C    0.157594
    51  C    0.207959
    52  C   -0.005451
    53  C    0.152246
    54  C   -0.063219
    55  C    0.103160
    56  C    0.079126
    57  C    0.080327
    58  C    0.126237
    59  C   -0.086117
    60  C    0.092728
    61  C    0.099676
    62  C    0.086159
    63  C    0.133180
    64  C   -0.083003
    65  C    0.112158
    66  C    0.088692
    67  H   -0.037780
    68  H   -0.080553
    69  H   -0.066590
    70  H   -0.016401
    71  H   -0.012546
    72  H   -0.011720
    73  H   -0.006706
    74  H   -0.002929
    75  H    0.003791
    76  H   -0.007554
    77  H   -0.000869
    78  H    0.000878
    79  H    0.012598
    80  H   -0.045647
    81  H    0.014973
    82  H    0.009233
    83  H    0.013547
    84  H   -0.010873
    85  H   -0.008956
    86  H   -0.021806
    87  H   -0.008897
    88  H   -0.006907
    89  H    0.002294
    90  H   -0.014449
    91  H   -0.015318
    92  H   -0.003354
    93  H    0.007299
    94  H   -0.013389
    95  H    0.003251
    96  H    0.004523
    97  H    0.003707
    98  H   -0.006224
    99  H    0.006129
   100  H    0.027004
   101  H   -0.002446
   102  H    0.012263
   103  H   -0.010515
   104  H   -0.042234
   105  H   -0.012499
   106  H    0.023561
   107  H    0.015486
   108  H   -0.029470
   109  H   -0.047048
   110  H   -0.025966
   111  H   -0.030571
   112  H   -0.046209
   113  H   -0.011969
   114  H   -0.034512
   115  H   -0.016061
   116  H   -0.020966
   117  H   -0.024534
   118  H   -0.014533
   119  H   -0.034624
   120  H   -0.044545
   121  H   -0.019653
   122  H   -0.039611
   123  H   -0.037072
   124  H   -0.029938
   125  H   -0.022202
   126  H   -0.015738
   127  H   -0.018112
   128  H   -0.043713
   129  H   -0.040315
   130  H   -0.036073
   131  H   -0.042497
   132  H   -0.041007
   133  H   -0.060119
   134  H   -0.028219
   135  H   -0.023297
   136  H   -0.035337
   137  H   -0.014831
   138  H   -0.021624
   139  H   -0.019501
   140  H   -0.015258
 Sum of Mulliken charges =  -0.00000

 Dipole moment (field-independent basis, Debye):
    X=              2.4936    Y=              5.1694    Z=              0.9109  Tot=              5.8113
 Quadrupole moment (field-independent basis, Debye-Ang):
   XX=           -353.0534   YY=           -454.2501   ZZ=           -397.6669
   XY=             18.1335   XZ=              7.0413   YZ=             38.0599

 Normal termination of Gaussian 16 at Wed Apr 27 03:09:17 2022.
