 Gaussian 16, Revision A.03,
 Gaussian 16:  ES64L-G16RevA.03 25-Dec-2016

 -----------------------------------
 #p cam-b3lyp/Def2SVP td=(nstates=5)
 -----------------------------------

 --------------------------------------------------------
 step_1051_chromophore_14 TDDFT with cam-b3lyp functional
 --------------------------------------------------------
 Symbolic Z-matrix:
 Charge =  0 Multiplicity = 1

                         Standard orientation:
 ---------------------------------------------------------------------
 Center     Atomic      Atomic             Coordinates (Angstroms)
 Number     Number       Type             X           Y           Z
 ---------------------------------------------------------------------
      1         12           0        5.381392    0.804596   -0.170539
      2          6           0        4.626177   -2.653599    0.092578
      3          6           0        3.789098    0.703656   -3.317706
      4          6           0        5.426261    4.257066   -0.135516
      5          6           0        6.555395    0.705026    3.094090
      6          7           0        4.306306   -0.830916   -1.467937
      7          6           0        4.212758   -2.173548   -1.169650
      8          6           0        3.543284   -2.920531   -2.329976
      9          6           0        3.390323   -1.805681   -3.394290
     10          6           0        3.921838   -0.572793   -2.680202
     11          6           0        4.133658   -2.104307   -4.726698
     12          6           0        2.188729   -3.667932   -2.067554
     13          6           0        1.361132   -3.160306   -0.847325
     14          6           0       -0.119755   -3.242629   -0.806003
     15          8           0       -0.790694   -4.261048   -0.904877
     16          8           0       -0.693155   -2.009616   -0.893964
     17          7           0        4.649773    2.280435   -1.464661
     18          6           0        4.116557    2.004337   -2.735884
     19          6           0        3.834979    3.265672   -3.405637
     20          6           0        4.222595    4.320977   -2.499460
     21          6           0        4.789042    3.676876   -1.283773
     22          6           0        3.274593    3.395860   -4.847561
     23          6           0        4.011837    5.747358   -2.771503
     24          8           0        3.471278    6.108362   -3.799412
     25          6           0        4.419473    6.795672   -1.822474
     26          7           0        5.819848    2.286669    1.272303
     27          6           0        5.917035    3.615860    0.997171
     28          6           0        6.268878    4.357812    2.265420
     29          6           0        6.712823    3.280592    3.266903
     30          6           0        6.333960    2.012639    2.473235
     31          6           0        7.243546    5.644274    2.137542
     32          6           0        6.146183    3.439245    4.727404
     33          6           0        7.264858    3.209784    5.775609
     34          7           0        5.532716   -0.659410    1.316294
     35          6           0        6.101421   -0.596483    2.630090
     36          6           0        6.078454   -1.918087    3.219117
     37          6           0        5.508071   -2.723200    2.177310
     38          6           0        5.207352   -1.928686    1.069075
     39          6           0        6.601994   -2.221798    4.594176
     40          6           0        5.145442   -4.115872    1.845789
     41          8           0        5.292819   -5.184517    2.483845
     42          6           0        4.512131   -4.069916    0.507223
     43          6           0        5.356246   -4.948145   -0.318919
     44          8           0        4.957865   -5.899159   -0.975599
     45          8           0        6.665219   -4.421647   -0.416932
     46          6           0        7.544982   -5.207454   -1.276739
     47          6           0       -2.204300   -2.013425   -0.935376
     48          6           0       -2.977957   -0.697990   -0.674273
     49          6           0       -4.082648   -0.222299   -1.305249
     50          6           0       -4.720602   -1.052139   -2.393636
     51          6           0       -4.643274    1.067517   -0.892135
     52          6           0       -6.102746    1.007231   -0.414681
     53          6           0       -6.375200   -0.052432    0.724623
     54          6           0       -7.794550    0.049904    1.177190
     55          6           0       -7.964686    0.078483    2.734879
     56          6           0       -8.640230   -1.149098    0.558089
     57          6           0      -10.037998   -0.591239    0.117037
     58          6           0      -11.135574   -1.306298    0.851203
     59          6           0      -12.100392   -0.233768    1.612674
     60          6           0      -11.842287   -0.218591    3.143456
     61          6           0      -13.599890   -0.488684    1.412613
     62          6           0      -14.443247    0.829418    1.533889
     63          6           0      -14.841486    1.394908    0.214052
     64          6           0      -16.334684    1.204327   -0.148063
     65          6           0      -16.458711    0.173470   -1.267346
     66          6           0      -16.918867    2.556886   -0.586889
     67          1           0        3.234629    0.742344   -4.258051
     68          1           0        5.476343    5.347289   -0.094831
     69          1           0        7.127387    0.734958    4.023790
     70          1           0        4.214815   -3.714187   -2.654717
     71          1           0        2.353913   -1.599600   -3.661406
     72          1           0        4.457656   -1.135334   -5.106720
     73          1           0        3.408703   -2.532695   -5.419121
     74          1           0        4.956648   -2.801907   -4.571437
     75          1           0        2.399449   -4.707536   -1.819584
     76          1           0        1.530617   -3.501505   -2.920230
     77          1           0        1.773400   -2.166985   -0.671416
     78          1           0        1.620744   -3.756420    0.027526
     79          1           0        2.272249    3.825137   -4.856367
     80          1           0        3.110948    2.423983   -5.312240
     81          1           0        4.022573    3.905549   -5.453910
     82          1           0        5.443793    6.618720   -1.493922
     83          1           0        3.777712    6.815723   -0.941635
     84          1           0        4.391725    7.729823   -2.383734
     85          1           0        5.289554    4.724011    2.574243
     86          1           0        7.793743    3.181887    3.360412
     87          1           0        7.583665    5.644405    1.102544
     88          1           0        8.140373    5.499033    2.740687
     89          1           0        6.725270    6.578853    2.354120
     90          1           0        5.401161    2.675094    4.950718
     91          1           0        5.675427    4.413663    4.854866
     92          1           0        7.367324    4.191765    6.238057
     93          1           0        8.193791    2.752505    5.432975
     94          1           0        6.889753    2.537320    6.546971
     95          1           0        7.502882   -1.658421    4.836111
     96          1           0        6.774472   -3.296181    4.653441
     97          1           0        5.824699   -2.043683    5.337784
     98          1           0        3.492980   -4.453911    0.457098
     99          1           0        8.504663   -4.710517   -1.421466
    100          1           0        7.024801   -5.651993   -2.125289
    101          1           0        7.931495   -6.017716   -0.658642
    102          1           0       -2.532344   -2.653716   -0.116065
    103          1           0       -2.513733   -2.375912   -1.915041
    104          1           0       -2.459140   -0.034902    0.017649
    105          1           0       -5.511791   -0.509747   -2.911154
    106          1           0       -5.008035   -1.988100   -1.915633
    107          1           0       -3.858565   -1.167224   -3.050526
    108          1           0       -4.495563    1.746808   -1.731260
    109          1           0       -4.042321    1.495299   -0.089280
    110          1           0       -6.784947    0.954958   -1.263332
    111          1           0       -6.268781    1.997018    0.012598
    112          1           0       -5.734160    0.285419    1.539071
    113          1           0       -6.058368   -1.015605    0.323435
    114          1           0       -8.233743    0.988673    0.839986
    115          1           0       -6.998643   -0.002692    3.232527
    116          1           0       -8.698914   -0.635590    3.108265
    117          1           0       -8.416114    1.002716    3.096171
    118          1           0       -8.650546   -1.942043    1.306155
    119          1           0       -8.287539   -1.510725   -0.408453
    120          1           0      -10.139699   -0.926289   -0.914970
    121          1           0      -10.116503    0.494025    0.044185
    122          1           0      -10.717501   -1.955329    1.620988
    123          1           0      -11.712897   -1.994546    0.233335
    124          1           0      -11.890282    0.799211    1.338187
    125          1           0      -11.506800    0.770950    3.454007
    126          1           0      -11.034815   -0.876210    3.465245
    127          1           0      -12.739452   -0.483868    3.703885
    128          1           0      -14.047467   -1.082907    2.208776
    129          1           0      -13.789528   -1.074932    0.512792
    130          1           0      -13.878311    1.530189    2.150088
    131          1           0      -15.365412    0.603948    2.068619
    132          1           0      -14.207153    1.140793   -0.635645
    133          1           0      -14.657161    2.469868    0.245257
    134          1           0      -16.986888    0.909130    0.673861
    135          1           0      -17.071417    0.474941   -2.116614
    136          1           0      -16.990891   -0.735381   -0.987806
    137          1           0      -15.492566   -0.233043   -1.564547
    138          1           0      -17.961042    2.552846   -0.267165
    139          1           0      -16.892942    2.665604   -1.671447
    140          1           0      -16.433354    3.443769   -0.180268
 ---------------------------------------------------------------------

 SCF Done:  E(RCAM-B3LYP) =  -3007.15002411     A.U. after   17 cycles

 Excitation energies and oscillator strengths:

 Excited State   1:      Singlet-A      1.6974 eV  730.43 nm  f=0.3527  <S**2>=0.000
     245 -> 248       -0.19416
     246 -> 247        0.68079
     245 <- 248       -0.11146
 This state for optimization and/or second-order correction.
 Total Energy, E(TD-HF/TD-DFT) =  -3007.08764573
 Copying the excited state density for this state as the 1-particle RhoCI density.

 Excited State   2:      Singlet-A      2.2268 eV  556.78 nm  f=0.0827  <S**2>=0.000
     245 -> 247        0.61898
     246 -> 248        0.32755

 Excited State   3:      Singlet-A      3.2577 eV  380.59 nm  f=0.0013  <S**2>=0.000
     242 -> 247       -0.29242
     243 -> 247        0.62730

 Excited State   4:      Singlet-A      3.3639 eV  368.57 nm  f=0.2516  <S**2>=0.000
     240 -> 247       -0.18256
     240 -> 249       -0.11301
     242 -> 247       -0.39741
     243 -> 247       -0.21589
     245 -> 247       -0.19009
     246 -> 248        0.44417

 Excited State   5:      Singlet-A      3.4434 eV  360.06 nm  f=0.0992  <S**2>=0.000
     239 -> 247        0.16863
     240 -> 247        0.49691
     240 -> 249        0.30546
     240 -> 251       -0.15703
     245 -> 247       -0.11165
     246 -> 248        0.21694

 The electronic state is 1-A.
 Alpha  occ. eigenvalues --  -46.89729 -19.25238 -19.24249 -19.20991 -19.18868
 Alpha  occ. eigenvalues --  -19.18629 -19.17937 -14.42836 -14.42527 -14.40451
 Alpha  occ. eigenvalues --  -14.39561 -10.40196 -10.38529 -10.35003 -10.33889
 Alpha  occ. eigenvalues --  -10.31989 -10.31979 -10.31795 -10.31601 -10.31556
 Alpha  occ. eigenvalues --  -10.31510 -10.31177 -10.31092 -10.30704 -10.29029
 Alpha  occ. eigenvalues --  -10.28672 -10.28506 -10.28484 -10.28456 -10.28452
 Alpha  occ. eigenvalues --  -10.28269 -10.28125 -10.28114 -10.28101 -10.27873
 Alpha  occ. eigenvalues --  -10.27668 -10.27520 -10.27275 -10.27168 -10.27116
 Alpha  occ. eigenvalues --  -10.26782 -10.26711 -10.26467 -10.26428 -10.26240
 Alpha  occ. eigenvalues --  -10.26040 -10.26001 -10.25848 -10.25690 -10.25448
 Alpha  occ. eigenvalues --  -10.25432 -10.25426 -10.25356 -10.25336 -10.25282
 Alpha  occ. eigenvalues --  -10.24748 -10.24744 -10.24490 -10.24428 -10.24280
 Alpha  occ. eigenvalues --  -10.24265 -10.23998 -10.23928 -10.23868 -10.23844
 Alpha  occ. eigenvalues --  -10.23724  -3.18150  -1.93040  -1.92611  -1.92435
 Alpha  occ. eigenvalues --   -1.16109  -1.15349  -1.10075  -1.08437  -1.08162
 Alpha  occ. eigenvalues --   -1.06148  -1.05595  -1.05150  -1.03144  -1.01098
 Alpha  occ. eigenvalues --   -0.94908  -0.91044  -0.89873  -0.89556  -0.89203
 Alpha  occ. eigenvalues --   -0.88784  -0.88738  -0.87586  -0.87104  -0.86430
 Alpha  occ. eigenvalues --   -0.85586  -0.85549  -0.84450  -0.84058  -0.83817
 Alpha  occ. eigenvalues --   -0.82542  -0.82370  -0.81159  -0.80694  -0.80481
 Alpha  occ. eigenvalues --   -0.79859  -0.78393  -0.77797  -0.77369  -0.76883
 Alpha  occ. eigenvalues --   -0.76355  -0.75609  -0.75326  -0.74131  -0.73943
 Alpha  occ. eigenvalues --   -0.73578  -0.72929  -0.72417  -0.71062  -0.69665
 Alpha  occ. eigenvalues --   -0.68816  -0.67841  -0.67410  -0.66517  -0.66366
 Alpha  occ. eigenvalues --   -0.65936  -0.65127  -0.65042  -0.64706  -0.64107
 Alpha  occ. eigenvalues --   -0.63465  -0.63301  -0.62562  -0.62068  -0.60446
 Alpha  occ. eigenvalues --   -0.59627  -0.59397  -0.58843  -0.58621  -0.58090
 Alpha  occ. eigenvalues --   -0.57746  -0.57241  -0.56637  -0.56471  -0.55992
 Alpha  occ. eigenvalues --   -0.55501  -0.55209  -0.54849  -0.54462  -0.53857
 Alpha  occ. eigenvalues --   -0.53657  -0.53206  -0.52897  -0.52770  -0.52700
 Alpha  occ. eigenvalues --   -0.52504  -0.52350  -0.52201  -0.52082  -0.51882
 Alpha  occ. eigenvalues --   -0.51761  -0.51457  -0.51406  -0.51152  -0.50894
 Alpha  occ. eigenvalues --   -0.50653  -0.50557  -0.49977  -0.49853  -0.49542
 Alpha  occ. eigenvalues --   -0.49483  -0.49254  -0.49199  -0.49140  -0.48911
 Alpha  occ. eigenvalues --   -0.48683  -0.48636  -0.48583  -0.48206  -0.47825
 Alpha  occ. eigenvalues --   -0.47437  -0.47265  -0.47009  -0.46850  -0.46803
 Alpha  occ. eigenvalues --   -0.46418  -0.46391  -0.46292  -0.45933  -0.45750
 Alpha  occ. eigenvalues --   -0.45430  -0.45363  -0.45168  -0.45043  -0.45037
 Alpha  occ. eigenvalues --   -0.44844  -0.44667  -0.44411  -0.44242  -0.44194
 Alpha  occ. eigenvalues --   -0.43964  -0.43523  -0.43384  -0.43306  -0.43241
 Alpha  occ. eigenvalues --   -0.42944  -0.42877  -0.42674  -0.42522  -0.42175
 Alpha  occ. eigenvalues --   -0.42033  -0.41933  -0.41846  -0.41739  -0.41452
 Alpha  occ. eigenvalues --   -0.40989  -0.40458  -0.40237  -0.40201  -0.39909
 Alpha  occ. eigenvalues --   -0.39711  -0.39477  -0.39424  -0.39132  -0.39003
 Alpha  occ. eigenvalues --   -0.38677  -0.38202  -0.38080  -0.37985  -0.37680
 Alpha  occ. eigenvalues --   -0.37515  -0.36746  -0.36705  -0.36387  -0.36361
 Alpha  occ. eigenvalues --   -0.36043  -0.35316  -0.34635  -0.34605  -0.34494
 Alpha  occ. eigenvalues --   -0.33502  -0.33391  -0.33011  -0.31252  -0.31045
 Alpha  occ. eigenvalues --   -0.30709  -0.30044  -0.29741  -0.29120  -0.24572
 Alpha  occ. eigenvalues --   -0.21580
 Alpha virt. eigenvalues --   -0.09170  -0.02894  -0.00253   0.01444   0.02232
 Alpha virt. eigenvalues --    0.04435   0.05135   0.05495   0.05684   0.06530
 Alpha virt. eigenvalues --    0.07437   0.08110   0.08398   0.08626   0.09309

 Mulliken charges:
               1
     1  Mg   0.820158
     2  C   -0.077543
     3  C   -0.079989
     4  C   -0.079191
     5  C   -0.078058
     6  N   -0.206384
     7  C   -0.111835
     8  C    0.036002
     9  C   -0.094074
    10  C    0.039241
    11  C    0.073720
    12  C    0.072919
    13  C    0.025173
    14  C    0.147476
    15  O   -0.242669
    16  O   -0.340323
    17  N   -0.421776
    18  C    0.151450
    19  C   -0.158073
    20  C   -0.019857
    21  C    0.165966
    22  C    0.153582
    23  C   -0.053585
    24  O   -0.204784
    25  C    0.059748
    26  N   -0.283744
    27  C    0.055411
    28  C   -0.062219
    29  C   -0.027473
    30  C    0.032099
    31  C    0.066976
    32  C    0.044229
    33  C   -0.019895
    34  N   -0.373127
    35  C    0.110804
    36  C   -0.165980
    37  C   -0.025836
    38  C    0.227219
    39  C    0.121603
    40  C    0.036703
    41  O   -0.196361
    42  C    0.064347
    43  C    0.191300
    44  O   -0.200378
    45  O   -0.364310
    46  C    0.187738
    47  C    0.275333
    48  C   -0.139896
    49  C   -0.224080
    50  C    0.089740
    51  C    0.143905
    52  C   -0.055752
    53  C    0.096508
    54  C   -0.121902
    55  C    0.051067
    56  C    0.029302
    57  C    0.019488
    58  C    0.077113
    59  C   -0.141170
    60  C    0.038452
    61  C    0.047337
    62  C    0.028641
    63  C    0.073937
    64  C   -0.145641
    65  C    0.051254
    66  C    0.031540
    67  H   -0.003419
    68  H   -0.044955
    69  H   -0.033353
    70  H    0.018442
    71  H    0.021646
    72  H    0.012736
    73  H    0.018386
    74  H    0.021468
    75  H    0.034792
    76  H    0.022088
    77  H    0.034007
    78  H    0.026871
    79  H    0.040865
    80  H   -0.018620
    81  H    0.041846
    82  H    0.034712
    83  H    0.042771
    84  H    0.026360
    85  H    0.025981
    86  H    0.012332
    87  H    0.015071
    88  H    0.018660
    89  H    0.026169
    90  H    0.016536
    91  H    0.012751
    92  H    0.020419
    93  H    0.027954
    94  H    0.011303
    95  H    0.026069
    96  H    0.031482
    97  H    0.029926
    98  H    0.036944
    99  H    0.031234
   100  H    0.051474
   101  H    0.020774
   102  H    0.040931
   103  H    0.016798
   104  H   -0.006362
   105  H    0.014535
   106  H    0.046377
   107  H    0.040019
   108  H    0.002209
   109  H   -0.014029
   110  H   -0.001025
   111  H   -0.001300
   112  H   -0.015920
   113  H    0.013111
   114  H   -0.002638
   115  H    0.008889
   116  H   -0.001438
   117  H   -0.000920
   118  H    0.012745
   119  H   -0.006043
   120  H   -0.013374
   121  H    0.007626
   122  H   -0.012057
   123  H   -0.007298
   124  H   -0.000463
   125  H    0.000627
   126  H    0.005004
   127  H    0.006461
   128  H   -0.013763
   129  H   -0.013639
   130  H   -0.007182
   131  H   -0.012017
   132  H   -0.011463
   133  H   -0.027699
   134  H    0.003449
   135  H    0.002323
   136  H   -0.009408
   137  H    0.007851
   138  H    0.002818
   139  H    0.004185
   140  H    0.008782
 Sum of Mulliken charges =  -0.00000

 Dipole moment (field-independent basis, Debye):
    X=              2.5115    Y=              5.7381    Z=              0.5924  Tot=              6.2916
 Quadrupole moment (field-independent basis, Debye-Ang):
   XX=           -351.7862   YY=           -451.9457   ZZ=           -395.5889
   XY=             20.3157   XZ=              6.1129   YZ=             38.5813

 Normal termination of Gaussian 16 at Wed Apr 27 02:10:08 2022.
