 Gaussian 16, Revision A.03,
 Gaussian 16:  ES64L-G16RevA.03 25-Dec-2016

 ---------------------------------
 #p PBE1PBE/Def2SVP td=(nstates=5)
 ---------------------------------

 ------------------------------------------------------
 step_1051_chromophore_14 TDDFT with PBE1PBE functional
 ------------------------------------------------------
 Symbolic Z-matrix:
 Charge =  0 Multiplicity = 1

                         Standard orientation:
 ---------------------------------------------------------------------
 Center     Atomic      Atomic             Coordinates (Angstroms)
 Number     Number       Type             X           Y           Z
 ---------------------------------------------------------------------
      1         12           0        5.381392    0.804596   -0.170539
      2          6           0        4.626177   -2.653599    0.092578
      3          6           0        3.789098    0.703656   -3.317706
      4          6           0        5.426261    4.257066   -0.135516
      5          6           0        6.555395    0.705026    3.094090
      6          7           0        4.306306   -0.830916   -1.467937
      7          6           0        4.212758   -2.173548   -1.169650
      8          6           0        3.543284   -2.920531   -2.329976
      9          6           0        3.390323   -1.805681   -3.394290
     10          6           0        3.921838   -0.572793   -2.680202
     11          6           0        4.133658   -2.104307   -4.726698
     12          6           0        2.188729   -3.667932   -2.067554
     13          6           0        1.361132   -3.160306   -0.847325
     14          6           0       -0.119755   -3.242629   -0.806003
     15          8           0       -0.790694   -4.261048   -0.904877
     16          8           0       -0.693155   -2.009616   -0.893964
     17          7           0        4.649773    2.280435   -1.464661
     18          6           0        4.116557    2.004337   -2.735884
     19          6           0        3.834979    3.265672   -3.405637
     20          6           0        4.222595    4.320977   -2.499460
     21          6           0        4.789042    3.676876   -1.283773
     22          6           0        3.274593    3.395860   -4.847561
     23          6           0        4.011837    5.747358   -2.771503
     24          8           0        3.471278    6.108362   -3.799412
     25          6           0        4.419473    6.795672   -1.822474
     26          7           0        5.819848    2.286669    1.272303
     27          6           0        5.917035    3.615860    0.997171
     28          6           0        6.268878    4.357812    2.265420
     29          6           0        6.712823    3.280592    3.266903
     30          6           0        6.333960    2.012639    2.473235
     31          6           0        7.243546    5.644274    2.137542
     32          6           0        6.146183    3.439245    4.727404
     33          6           0        7.264858    3.209784    5.775609
     34          7           0        5.532716   -0.659410    1.316294
     35          6           0        6.101421   -0.596483    2.630090
     36          6           0        6.078454   -1.918087    3.219117
     37          6           0        5.508071   -2.723200    2.177310
     38          6           0        5.207352   -1.928686    1.069075
     39          6           0        6.601994   -2.221798    4.594176
     40          6           0        5.145442   -4.115872    1.845789
     41          8           0        5.292819   -5.184517    2.483845
     42          6           0        4.512131   -4.069916    0.507223
     43          6           0        5.356246   -4.948145   -0.318919
     44          8           0        4.957865   -5.899159   -0.975599
     45          8           0        6.665219   -4.421647   -0.416932
     46          6           0        7.544982   -5.207454   -1.276739
     47          6           0       -2.204300   -2.013425   -0.935376
     48          6           0       -2.977957   -0.697990   -0.674273
     49          6           0       -4.082648   -0.222299   -1.305249
     50          6           0       -4.720602   -1.052139   -2.393636
     51          6           0       -4.643274    1.067517   -0.892135
     52          6           0       -6.102746    1.007231   -0.414681
     53          6           0       -6.375200   -0.052432    0.724623
     54          6           0       -7.794550    0.049904    1.177190
     55          6           0       -7.964686    0.078483    2.734879
     56          6           0       -8.640230   -1.149098    0.558089
     57          6           0      -10.037998   -0.591239    0.117037
     58          6           0      -11.135574   -1.306298    0.851203
     59          6           0      -12.100392   -0.233768    1.612674
     60          6           0      -11.842287   -0.218591    3.143456
     61          6           0      -13.599890   -0.488684    1.412613
     62          6           0      -14.443247    0.829418    1.533889
     63          6           0      -14.841486    1.394908    0.214052
     64          6           0      -16.334684    1.204327   -0.148063
     65          6           0      -16.458711    0.173470   -1.267346
     66          6           0      -16.918867    2.556886   -0.586889
     67          1           0        3.234629    0.742344   -4.258051
     68          1           0        5.476343    5.347289   -0.094831
     69          1           0        7.127387    0.734958    4.023790
     70          1           0        4.214815   -3.714187   -2.654717
     71          1           0        2.353913   -1.599600   -3.661406
     72          1           0        4.457656   -1.135334   -5.106720
     73          1           0        3.408703   -2.532695   -5.419121
     74          1           0        4.956648   -2.801907   -4.571437
     75          1           0        2.399449   -4.707536   -1.819584
     76          1           0        1.530617   -3.501505   -2.920230
     77          1           0        1.773400   -2.166985   -0.671416
     78          1           0        1.620744   -3.756420    0.027526
     79          1           0        2.272249    3.825137   -4.856367
     80          1           0        3.110948    2.423983   -5.312240
     81          1           0        4.022573    3.905549   -5.453910
     82          1           0        5.443793    6.618720   -1.493922
     83          1           0        3.777712    6.815723   -0.941635
     84          1           0        4.391725    7.729823   -2.383734
     85          1           0        5.289554    4.724011    2.574243
     86          1           0        7.793743    3.181887    3.360412
     87          1           0        7.583665    5.644405    1.102544
     88          1           0        8.140373    5.499033    2.740687
     89          1           0        6.725270    6.578853    2.354120
     90          1           0        5.401161    2.675094    4.950718
     91          1           0        5.675427    4.413663    4.854866
     92          1           0        7.367324    4.191765    6.238057
     93          1           0        8.193791    2.752505    5.432975
     94          1           0        6.889753    2.537320    6.546971
     95          1           0        7.502882   -1.658421    4.836111
     96          1           0        6.774472   -3.296181    4.653441
     97          1           0        5.824699   -2.043683    5.337784
     98          1           0        3.492980   -4.453911    0.457098
     99          1           0        8.504663   -4.710517   -1.421466
    100          1           0        7.024801   -5.651993   -2.125289
    101          1           0        7.931495   -6.017716   -0.658642
    102          1           0       -2.532344   -2.653716   -0.116065
    103          1           0       -2.513733   -2.375912   -1.915041
    104          1           0       -2.459140   -0.034902    0.017649
    105          1           0       -5.511791   -0.509747   -2.911154
    106          1           0       -5.008035   -1.988100   -1.915633
    107          1           0       -3.858565   -1.167224   -3.050526
    108          1           0       -4.495563    1.746808   -1.731260
    109          1           0       -4.042321    1.495299   -0.089280
    110          1           0       -6.784947    0.954958   -1.263332
    111          1           0       -6.268781    1.997018    0.012598
    112          1           0       -5.734160    0.285419    1.539071
    113          1           0       -6.058368   -1.015605    0.323435
    114          1           0       -8.233743    0.988673    0.839986
    115          1           0       -6.998643   -0.002692    3.232527
    116          1           0       -8.698914   -0.635590    3.108265
    117          1           0       -8.416114    1.002716    3.096171
    118          1           0       -8.650546   -1.942043    1.306155
    119          1           0       -8.287539   -1.510725   -0.408453
    120          1           0      -10.139699   -0.926289   -0.914970
    121          1           0      -10.116503    0.494025    0.044185
    122          1           0      -10.717501   -1.955329    1.620988
    123          1           0      -11.712897   -1.994546    0.233335
    124          1           0      -11.890282    0.799211    1.338187
    125          1           0      -11.506800    0.770950    3.454007
    126          1           0      -11.034815   -0.876210    3.465245
    127          1           0      -12.739452   -0.483868    3.703885
    128          1           0      -14.047467   -1.082907    2.208776
    129          1           0      -13.789528   -1.074932    0.512792
    130          1           0      -13.878311    1.530189    2.150088
    131          1           0      -15.365412    0.603948    2.068619
    132          1           0      -14.207153    1.140793   -0.635645
    133          1           0      -14.657161    2.469868    0.245257
    134          1           0      -16.986888    0.909130    0.673861
    135          1           0      -17.071417    0.474941   -2.116614
    136          1           0      -16.990891   -0.735381   -0.987806
    137          1           0      -15.492566   -0.233043   -1.564547
    138          1           0      -17.961042    2.552846   -0.267165
    139          1           0      -16.892942    2.665604   -1.671447
    140          1           0      -16.433354    3.443769   -0.180268
 ---------------------------------------------------------------------

 SCF Done:  E(RPBE1PBE) =  -3005.33975933     A.U. after   15 cycles

 Excitation energies and oscillator strengths:

 Excited State   1:      Singlet-A      1.8492 eV  670.48 nm  f=0.3342  <S**2>=0.000
     245 -> 248       -0.18975
     246 -> 247        0.68769
     246 <- 247       -0.10250
 This state for optimization and/or second-order correction.
 Total Energy, E(TD-HF/TD-DFT) =  -3005.27180326
 Copying the excited state density for this state as the 1-particle RhoCI density.

 Excited State   2:      Singlet-A      2.2311 eV  555.71 nm  f=0.0876  <S**2>=0.000
     245 -> 247        0.63490
     246 -> 248        0.29739

 Excited State   3:      Singlet-A      2.8923 eV  428.67 nm  f=0.0001  <S**2>=0.000
     242 -> 247        0.35914
     243 -> 247        0.57457

 Excited State   4:      Singlet-A      2.9130 eV  425.62 nm  f=0.0009  <S**2>=0.000
     240 -> 247       -0.39901
     240 -> 249       -0.12928
     241 -> 247       -0.18622
     242 -> 247        0.45215
     243 -> 247       -0.26532

 Excited State   5:      Singlet-A      2.9411 eV  421.55 nm  f=0.0003  <S**2>=0.000
     240 -> 247        0.40338
     240 -> 249        0.12314
     241 -> 247        0.30516
     242 -> 247        0.37416
     243 -> 247       -0.27124

 The electronic state is 1-A.
 Alpha  occ. eigenvalues --  -46.93121 -19.25888 -19.24932 -19.21217 -19.19129
 Alpha  occ. eigenvalues --  -19.18911 -19.18093 -14.42221 -14.42109 -14.40088
 Alpha  occ. eigenvalues --  -14.39301 -10.37232 -10.35542 -10.32186 -10.30930
 Alpha  occ. eigenvalues --  -10.29812 -10.29541 -10.29364 -10.29216 -10.29196
 Alpha  occ. eigenvalues --  -10.28791 -10.28775 -10.28701 -10.28578 -10.26575
 Alpha  occ. eigenvalues --  -10.26514 -10.26335 -10.26284 -10.26205 -10.26008
 Alpha  occ. eigenvalues --  -10.25989 -10.25938 -10.25866 -10.25839 -10.25643
 Alpha  occ. eigenvalues --  -10.25361 -10.25173 -10.24855 -10.24771 -10.24763
 Alpha  occ. eigenvalues --  -10.24325 -10.24291 -10.23942 -10.23921 -10.23657
 Alpha  occ. eigenvalues --  -10.23593 -10.23538 -10.23354 -10.23147 -10.23128
 Alpha  occ. eigenvalues --  -10.22994 -10.22948 -10.22948 -10.22908 -10.22843
 Alpha  occ. eigenvalues --  -10.22340 -10.22269 -10.22053 -10.21823 -10.21818
 Alpha  occ. eigenvalues --  -10.21784 -10.21554 -10.21320 -10.21264 -10.21250
 Alpha  occ. eigenvalues --  -10.21235  -3.15125  -1.87954  -1.87503  -1.87332
 Alpha  occ. eigenvalues --   -1.10828  -1.10154  -1.04749  -1.03169  -1.02976
 Alpha  occ. eigenvalues --   -1.01017  -1.00182  -0.99806  -0.97889  -0.95632
 Alpha  occ. eigenvalues --   -0.89328  -0.85140  -0.84106  -0.83635  -0.83506
 Alpha  occ. eigenvalues --   -0.83045  -0.82880  -0.81889  -0.81209  -0.80815
 Alpha  occ. eigenvalues --   -0.79814  -0.79752  -0.78646  -0.78332  -0.78073
 Alpha  occ. eigenvalues --   -0.76772  -0.76517  -0.75417  -0.75078  -0.74664
 Alpha  occ. eigenvalues --   -0.74060  -0.72679  -0.72085  -0.71609  -0.71156
 Alpha  occ. eigenvalues --   -0.70467  -0.69953  -0.69405  -0.68278  -0.68101
 Alpha  occ. eigenvalues --   -0.67970  -0.67245  -0.66860  -0.65346  -0.64047
 Alpha  occ. eigenvalues --   -0.63280  -0.62097  -0.61840  -0.60921  -0.60815
 Alpha  occ. eigenvalues --   -0.60299  -0.59670  -0.59359  -0.59097  -0.58235
 Alpha  occ. eigenvalues --   -0.57827  -0.57612  -0.56734  -0.56601  -0.54995
 Alpha  occ. eigenvalues --   -0.54247  -0.53938  -0.53348  -0.53086  -0.52563
 Alpha  occ. eigenvalues --   -0.52227  -0.51673  -0.51140  -0.50922  -0.50490
 Alpha  occ. eigenvalues --   -0.50069  -0.49673  -0.49459  -0.48993  -0.48266
 Alpha  occ. eigenvalues --   -0.48222  -0.47741  -0.47568  -0.47270  -0.47189
 Alpha  occ. eigenvalues --   -0.46943  -0.46815  -0.46679  -0.46569  -0.46367
 Alpha  occ. eigenvalues --   -0.46304  -0.46109  -0.45887  -0.45714  -0.45507
 Alpha  occ. eigenvalues --   -0.45313  -0.45078  -0.44603  -0.44421  -0.44058
 Alpha  occ. eigenvalues --   -0.44042  -0.43838  -0.43822  -0.43715  -0.43541
 Alpha  occ. eigenvalues --   -0.43298  -0.43190  -0.43176  -0.42907  -0.42481
 Alpha  occ. eigenvalues --   -0.42108  -0.41963  -0.41747  -0.41546  -0.41410
 Alpha  occ. eigenvalues --   -0.41194  -0.41129  -0.40939  -0.40592  -0.40378
 Alpha  occ. eigenvalues --   -0.40070  -0.40040  -0.39861  -0.39796  -0.39698
 Alpha  occ. eigenvalues --   -0.39577  -0.39503  -0.39154  -0.38912  -0.38840
 Alpha  occ. eigenvalues --   -0.38654  -0.38374  -0.38229  -0.38110  -0.38004
 Alpha  occ. eigenvalues --   -0.37738  -0.37692  -0.37492  -0.37428  -0.37006
 Alpha  occ. eigenvalues --   -0.36877  -0.36727  -0.36607  -0.36567  -0.36294
 Alpha  occ. eigenvalues --   -0.35739  -0.35261  -0.35125  -0.34933  -0.34913
 Alpha  occ. eigenvalues --   -0.34473  -0.34414  -0.34222  -0.34030  -0.33718
 Alpha  occ. eigenvalues --   -0.33429  -0.32985  -0.32867  -0.32755  -0.32701
 Alpha  occ. eigenvalues --   -0.32540  -0.31777  -0.31547  -0.31277  -0.31217
 Alpha  occ. eigenvalues --   -0.30997  -0.30291  -0.29839  -0.29466  -0.29333
 Alpha  occ. eigenvalues --   -0.28983  -0.28145  -0.27986  -0.26962  -0.25886
 Alpha  occ. eigenvalues --   -0.25662  -0.25355  -0.25322  -0.24406  -0.21522
 Alpha  occ. eigenvalues --   -0.19255
 Alpha virt. eigenvalues --   -0.11645  -0.06302  -0.04416  -0.02173  -0.01309
 Alpha virt. eigenvalues --   -0.00237   0.00723   0.01111   0.01257   0.02315
 Alpha virt. eigenvalues --    0.03541   0.04294   0.05187   0.05287   0.05910

 Mulliken charges:
               1
     1  Mg   0.959050
     2  C   -0.094384
     3  C   -0.066015
     4  C   -0.079299
     5  C   -0.074096
     6  N   -0.313715
     7  C   -0.030514
     8  C   -0.020960
     9  C   -0.176854
    10  C    0.084495
    11  C    0.016997
    12  C    0.017648
    13  C   -0.056680
    14  C    0.218921
    15  O   -0.276084
    16  O   -0.371221
    17  N   -0.531432
    18  C    0.174845
    19  C   -0.179316
    20  C   -0.075706
    21  C    0.201841
    22  C    0.093381
    23  C   -0.001712
    24  O   -0.240735
    25  C   -0.016765
    26  N   -0.392350
    27  C    0.093504
    28  C   -0.140444
    29  C   -0.102970
    30  C    0.073487
    31  C    0.005729
    32  C   -0.013306
    33  C   -0.093135
    34  N   -0.500152
    35  C    0.132783
    36  C   -0.176881
    37  C   -0.082464
    38  C    0.282100
    39  C    0.069153
    40  C    0.135921
    41  O   -0.242728
    42  C   -0.061129
    43  C    0.285792
    44  O   -0.239234
    45  O   -0.390724
    46  C    0.132065
    47  C    0.233750
    48  C   -0.143695
    49  C   -0.273234
    50  C    0.024360
    51  C    0.081188
    52  C   -0.120523
    53  C    0.039907
    54  C   -0.208706
    55  C   -0.005135
    56  C   -0.024402
    57  C   -0.043281
    58  C    0.026437
    59  C   -0.226861
    60  C   -0.015918
    61  C   -0.007596
    62  C   -0.038810
    63  C    0.022202
    64  C   -0.241142
    65  C   -0.003486
    66  C   -0.027747
    67  H    0.025732
    68  H   -0.011246
    69  H    0.002288
    70  H    0.057794
    71  H    0.057784
    72  H    0.041320
    73  H    0.046216
    74  H    0.048129
    75  H    0.066362
    76  H    0.055444
    77  H    0.071266
    78  H    0.061263
    79  H    0.067374
    80  H    0.009020
    81  H    0.068584
    82  H    0.060254
    83  H    0.069892
    84  H    0.054326
    85  H    0.064830
    86  H    0.050652
    87  H    0.042923
    88  H    0.046260
    89  H    0.052806
    90  H    0.049251
    91  H    0.044823
    92  H    0.048935
    93  H    0.052615
    94  H    0.039329
    95  H    0.052178
    96  H    0.060258
    97  H    0.058732
    98  H    0.076240
    99  H    0.053526
   100  H    0.072281
   101  H    0.043832
   102  H    0.068194
   103  H    0.042655
   104  H    0.024369
   105  H    0.042318
   106  H    0.072652
   107  H    0.067643
   108  H    0.036717
   109  H    0.017721
   110  H    0.031149
   111  H    0.032811
   112  H    0.018090
   113  H    0.046908
   114  H    0.034482
   115  H    0.035315
   116  H    0.027366
   117  H    0.026439
   118  H    0.043046
   119  H    0.026572
   120  H    0.021432
   121  H    0.036346
   122  H    0.019634
   123  H    0.023437
   124  H    0.037306
   125  H    0.027339
   126  H    0.032109
   127  H    0.033076
   128  H    0.019411
   129  H    0.019183
   130  H    0.025100
   131  H    0.021075
   132  H    0.020077
   133  H    0.006072
   134  H    0.039288
   135  H    0.028816
   136  H    0.018791
   137  H    0.033718
   138  H    0.030897
   139  H    0.031504
   140  H    0.035652
 Sum of Mulliken charges =  -0.00000

 Dipole moment (field-independent basis, Debye):
    X=              2.6167    Y=              5.6984    Z=              0.8363  Tot=              6.3260
 Quadrupole moment (field-independent basis, Debye-Ang):
   XX=           -347.5106   YY=           -449.0211   ZZ=           -391.2755
   XY=             20.2064   XZ=              8.2871   YZ=             39.7528

 Normal termination of Gaussian 16 at Wed Apr 27 02:28:37 2022.
