 Gaussian 16, Revision A.03,
 Gaussian 16:  ES64L-G16RevA.03 25-Dec-2016

 --------------------------------
 #p wB97XD/Def2SVP td=(nstates=5)
 --------------------------------

 -----------------------------------------------------
 step_1051_chromophore_14 TDDFT with wB97XD functional
 -----------------------------------------------------
 Symbolic Z-matrix:
 Charge =  0 Multiplicity = 1

                         Standard orientation:
 ---------------------------------------------------------------------
 Center     Atomic      Atomic             Coordinates (Angstroms)
 Number     Number       Type             X           Y           Z
 ---------------------------------------------------------------------
      1         12           0        5.381392    0.804596   -0.170539
      2          6           0        4.626177   -2.653599    0.092578
      3          6           0        3.789098    0.703656   -3.317706
      4          6           0        5.426261    4.257066   -0.135516
      5          6           0        6.555395    0.705026    3.094090
      6          7           0        4.306306   -0.830916   -1.467937
      7          6           0        4.212758   -2.173548   -1.169650
      8          6           0        3.543284   -2.920531   -2.329976
      9          6           0        3.390323   -1.805681   -3.394290
     10          6           0        3.921838   -0.572793   -2.680202
     11          6           0        4.133658   -2.104307   -4.726698
     12          6           0        2.188729   -3.667932   -2.067554
     13          6           0        1.361132   -3.160306   -0.847325
     14          6           0       -0.119755   -3.242629   -0.806003
     15          8           0       -0.790694   -4.261048   -0.904877
     16          8           0       -0.693155   -2.009616   -0.893964
     17          7           0        4.649773    2.280435   -1.464661
     18          6           0        4.116557    2.004337   -2.735884
     19          6           0        3.834979    3.265672   -3.405637
     20          6           0        4.222595    4.320977   -2.499460
     21          6           0        4.789042    3.676876   -1.283773
     22          6           0        3.274593    3.395860   -4.847561
     23          6           0        4.011837    5.747358   -2.771503
     24          8           0        3.471278    6.108362   -3.799412
     25          6           0        4.419473    6.795672   -1.822474
     26          7           0        5.819848    2.286669    1.272303
     27          6           0        5.917035    3.615860    0.997171
     28          6           0        6.268878    4.357812    2.265420
     29          6           0        6.712823    3.280592    3.266903
     30          6           0        6.333960    2.012639    2.473235
     31          6           0        7.243546    5.644274    2.137542
     32          6           0        6.146183    3.439245    4.727404
     33          6           0        7.264858    3.209784    5.775609
     34          7           0        5.532716   -0.659410    1.316294
     35          6           0        6.101421   -0.596483    2.630090
     36          6           0        6.078454   -1.918087    3.219117
     37          6           0        5.508071   -2.723200    2.177310
     38          6           0        5.207352   -1.928686    1.069075
     39          6           0        6.601994   -2.221798    4.594176
     40          6           0        5.145442   -4.115872    1.845789
     41          8           0        5.292819   -5.184517    2.483845
     42          6           0        4.512131   -4.069916    0.507223
     43          6           0        5.356246   -4.948145   -0.318919
     44          8           0        4.957865   -5.899159   -0.975599
     45          8           0        6.665219   -4.421647   -0.416932
     46          6           0        7.544982   -5.207454   -1.276739
     47          6           0       -2.204300   -2.013425   -0.935376
     48          6           0       -2.977957   -0.697990   -0.674273
     49          6           0       -4.082648   -0.222299   -1.305249
     50          6           0       -4.720602   -1.052139   -2.393636
     51          6           0       -4.643274    1.067517   -0.892135
     52          6           0       -6.102746    1.007231   -0.414681
     53          6           0       -6.375200   -0.052432    0.724623
     54          6           0       -7.794550    0.049904    1.177190
     55          6           0       -7.964686    0.078483    2.734879
     56          6           0       -8.640230   -1.149098    0.558089
     57          6           0      -10.037998   -0.591239    0.117037
     58          6           0      -11.135574   -1.306298    0.851203
     59          6           0      -12.100392   -0.233768    1.612674
     60          6           0      -11.842287   -0.218591    3.143456
     61          6           0      -13.599890   -0.488684    1.412613
     62          6           0      -14.443247    0.829418    1.533889
     63          6           0      -14.841486    1.394908    0.214052
     64          6           0      -16.334684    1.204327   -0.148063
     65          6           0      -16.458711    0.173470   -1.267346
     66          6           0      -16.918867    2.556886   -0.586889
     67          1           0        3.234629    0.742344   -4.258051
     68          1           0        5.476343    5.347289   -0.094831
     69          1           0        7.127387    0.734958    4.023790
     70          1           0        4.214815   -3.714187   -2.654717
     71          1           0        2.353913   -1.599600   -3.661406
     72          1           0        4.457656   -1.135334   -5.106720
     73          1           0        3.408703   -2.532695   -5.419121
     74          1           0        4.956648   -2.801907   -4.571437
     75          1           0        2.399449   -4.707536   -1.819584
     76          1           0        1.530617   -3.501505   -2.920230
     77          1           0        1.773400   -2.166985   -0.671416
     78          1           0        1.620744   -3.756420    0.027526
     79          1           0        2.272249    3.825137   -4.856367
     80          1           0        3.110948    2.423983   -5.312240
     81          1           0        4.022573    3.905549   -5.453910
     82          1           0        5.443793    6.618720   -1.493922
     83          1           0        3.777712    6.815723   -0.941635
     84          1           0        4.391725    7.729823   -2.383734
     85          1           0        5.289554    4.724011    2.574243
     86          1           0        7.793743    3.181887    3.360412
     87          1           0        7.583665    5.644405    1.102544
     88          1           0        8.140373    5.499033    2.740687
     89          1           0        6.725270    6.578853    2.354120
     90          1           0        5.401161    2.675094    4.950718
     91          1           0        5.675427    4.413663    4.854866
     92          1           0        7.367324    4.191765    6.238057
     93          1           0        8.193791    2.752505    5.432975
     94          1           0        6.889753    2.537320    6.546971
     95          1           0        7.502882   -1.658421    4.836111
     96          1           0        6.774472   -3.296181    4.653441
     97          1           0        5.824699   -2.043683    5.337784
     98          1           0        3.492980   -4.453911    0.457098
     99          1           0        8.504663   -4.710517   -1.421466
    100          1           0        7.024801   -5.651993   -2.125289
    101          1           0        7.931495   -6.017716   -0.658642
    102          1           0       -2.532344   -2.653716   -0.116065
    103          1           0       -2.513733   -2.375912   -1.915041
    104          1           0       -2.459140   -0.034902    0.017649
    105          1           0       -5.511791   -0.509747   -2.911154
    106          1           0       -5.008035   -1.988100   -1.915633
    107          1           0       -3.858565   -1.167224   -3.050526
    108          1           0       -4.495563    1.746808   -1.731260
    109          1           0       -4.042321    1.495299   -0.089280
    110          1           0       -6.784947    0.954958   -1.263332
    111          1           0       -6.268781    1.997018    0.012598
    112          1           0       -5.734160    0.285419    1.539071
    113          1           0       -6.058368   -1.015605    0.323435
    114          1           0       -8.233743    0.988673    0.839986
    115          1           0       -6.998643   -0.002692    3.232527
    116          1           0       -8.698914   -0.635590    3.108265
    117          1           0       -8.416114    1.002716    3.096171
    118          1           0       -8.650546   -1.942043    1.306155
    119          1           0       -8.287539   -1.510725   -0.408453
    120          1           0      -10.139699   -0.926289   -0.914970
    121          1           0      -10.116503    0.494025    0.044185
    122          1           0      -10.717501   -1.955329    1.620988
    123          1           0      -11.712897   -1.994546    0.233335
    124          1           0      -11.890282    0.799211    1.338187
    125          1           0      -11.506800    0.770950    3.454007
    126          1           0      -11.034815   -0.876210    3.465245
    127          1           0      -12.739452   -0.483868    3.703885
    128          1           0      -14.047467   -1.082907    2.208776
    129          1           0      -13.789528   -1.074932    0.512792
    130          1           0      -13.878311    1.530189    2.150088
    131          1           0      -15.365412    0.603948    2.068619
    132          1           0      -14.207153    1.140793   -0.635645
    133          1           0      -14.657161    2.469868    0.245257
    134          1           0      -16.986888    0.909130    0.673861
    135          1           0      -17.071417    0.474941   -2.116614
    136          1           0      -16.990891   -0.735381   -0.987806
    137          1           0      -15.492566   -0.233043   -1.564547
    138          1           0      -17.961042    2.552846   -0.267165
    139          1           0      -16.892942    2.665604   -1.671447
    140          1           0      -16.433354    3.443769   -0.180268
 ---------------------------------------------------------------------

 SCF Done:  E(RwB97XD) =  -3007.84849847     A.U. after   17 cycles

 Excitation energies and oscillator strengths:

 Excited State   1:      Singlet-A      1.6382 eV  756.83 nm  f=0.3519  <S**2>=0.000
     245 -> 248       -0.19955
     246 -> 247        0.67883
     245 <- 248       -0.12151
 This state for optimization and/or second-order correction.
 Total Energy, E(TD-HF/TD-DFT) =  -3007.78829521
 Copying the excited state density for this state as the 1-particle RhoCI density.

 Excited State   2:      Singlet-A      2.1697 eV  571.44 nm  f=0.0803  <S**2>=0.000
     245 -> 247        0.61744
     246 -> 248        0.32829

 Excited State   3:      Singlet-A      3.2733 eV  378.78 nm  f=0.0033  <S**2>=0.000
     242 -> 247       -0.37307
     243 -> 247        0.57455

 Excited State   4:      Singlet-A      3.3775 eV  367.09 nm  f=0.2832  <S**2>=0.000
     240 -> 247       -0.14321
     240 -> 249       -0.11002
     242 -> 247       -0.34787
     243 -> 247       -0.27955
     245 -> 247       -0.19757
     246 -> 248        0.46099

 Excited State   5:      Singlet-A      3.4688 eV  357.42 nm  f=0.0842  <S**2>=0.000
     240 -> 247        0.51106
     240 -> 249        0.34695
     240 -> 250       -0.18333
     245 -> 247       -0.10025
     246 -> 248        0.19262

 The electronic state is 1-A.
 Alpha  occ. eigenvalues --  -46.96076 -19.30455 -19.29494 -19.25927 -19.23920
 Alpha  occ. eigenvalues --  -19.23583 -19.22963 -14.47427 -14.47086 -14.45094
 Alpha  occ. eigenvalues --  -14.44154 -10.44064 -10.42332 -10.39015 -10.37829
 Alpha  occ. eigenvalues --  -10.36109 -10.35984 -10.35708 -10.35651 -10.35521
 Alpha  occ. eigenvalues --  -10.35274 -10.35210 -10.35197 -10.34732 -10.33241
 Alpha  occ. eigenvalues --  -10.32761 -10.32608 -10.32557 -10.32518 -10.32416
 Alpha  occ. eigenvalues --  -10.32301 -10.32228 -10.32155 -10.32141 -10.31920
 Alpha  occ. eigenvalues --  -10.31725 -10.31503 -10.31238 -10.31163 -10.31099
 Alpha  occ. eigenvalues --  -10.30696 -10.30687 -10.30351 -10.30271 -10.30202
 Alpha  occ. eigenvalues --  -10.29878 -10.29867 -10.29831 -10.29560 -10.29422
 Alpha  occ. eigenvalues --  -10.29416 -10.29381 -10.29301 -10.29242 -10.29221
 Alpha  occ. eigenvalues --  -10.28687 -10.28668 -10.28418 -10.28260 -10.28186
 Alpha  occ. eigenvalues --  -10.28159 -10.27916 -10.27757 -10.27671 -10.27657
 Alpha  occ. eigenvalues --  -10.27625  -3.21958  -1.95532  -1.95083  -1.94907
 Alpha  occ. eigenvalues --   -1.18249  -1.17528  -1.12292  -1.10642  -1.10366
 Alpha  occ. eigenvalues --   -1.08359  -1.07599  -1.07146  -1.05161  -1.03168
 Alpha  occ. eigenvalues --   -0.96907  -0.92833  -0.91725  -0.91304  -0.91054
 Alpha  occ. eigenvalues --   -0.90677  -0.90549  -0.89508  -0.88875  -0.88352
 Alpha  occ. eigenvalues --   -0.87558  -0.87474  -0.86308  -0.85952  -0.85701
 Alpha  occ. eigenvalues --   -0.84446  -0.84213  -0.83095  -0.82669  -0.82317
 Alpha  occ. eigenvalues --   -0.81717  -0.80307  -0.79703  -0.79316  -0.78797
 Alpha  occ. eigenvalues --   -0.78172  -0.77562  -0.77099  -0.75958  -0.75764
 Alpha  occ. eigenvalues --   -0.75536  -0.74857  -0.74410  -0.72979  -0.71573
 Alpha  occ. eigenvalues --   -0.70828  -0.69720  -0.69412  -0.68449  -0.68281
 Alpha  occ. eigenvalues --   -0.67859  -0.67131  -0.66930  -0.66669  -0.65913
 Alpha  occ. eigenvalues --   -0.65283  -0.65269  -0.64381  -0.64058  -0.62437
 Alpha  occ. eigenvalues --   -0.61629  -0.61381  -0.60772  -0.60558  -0.60020
 Alpha  occ. eigenvalues --   -0.59725  -0.59148  -0.58580  -0.58385  -0.57921
 Alpha  occ. eigenvalues --   -0.57482  -0.57104  -0.56788  -0.56381  -0.55704
 Alpha  occ. eigenvalues --   -0.55599  -0.55114  -0.54875  -0.54655  -0.54600
 Alpha  occ. eigenvalues --   -0.54391  -0.54223  -0.54119  -0.53985  -0.53756
 Alpha  occ. eigenvalues --   -0.53687  -0.53402  -0.53262  -0.53053  -0.52811
 Alpha  occ. eigenvalues --   -0.52565  -0.52434  -0.51919  -0.51815  -0.51479
 Alpha  occ. eigenvalues --   -0.51380  -0.51178  -0.51088  -0.51023  -0.50811
 Alpha  occ. eigenvalues --   -0.50588  -0.50542  -0.50487  -0.50117  -0.49737
 Alpha  occ. eigenvalues --   -0.49379  -0.49207  -0.48926  -0.48741  -0.48673
 Alpha  occ. eigenvalues --   -0.48359  -0.48305  -0.48158  -0.47881  -0.47634
 Alpha  occ. eigenvalues --   -0.47309  -0.47287  -0.47072  -0.46964  -0.46937
 Alpha  occ. eigenvalues --   -0.46704  -0.46572  -0.46330  -0.46098  -0.46047
 Alpha  occ. eigenvalues --   -0.45835  -0.45460  -0.45307  -0.45231  -0.45164
 Alpha  occ. eigenvalues --   -0.44866  -0.44817  -0.44593  -0.44503  -0.44078
 Alpha  occ. eigenvalues --   -0.43999  -0.43864  -0.43778  -0.43672  -0.43372
 Alpha  occ. eigenvalues --   -0.42861  -0.42339  -0.42140  -0.42042  -0.41785
 Alpha  occ. eigenvalues --   -0.41547  -0.41373  -0.41267  -0.41036  -0.40833
 Alpha  occ. eigenvalues --   -0.40512  -0.40038  -0.39922  -0.39845  -0.39726
 Alpha  occ. eigenvalues --   -0.39516  -0.38672  -0.38557  -0.38356  -0.38221
 Alpha  occ. eigenvalues --   -0.38062  -0.37342  -0.36636  -0.36453  -0.36326
 Alpha  occ. eigenvalues --   -0.35708  -0.35299  -0.34846  -0.33483  -0.32993
 Alpha  occ. eigenvalues --   -0.32632  -0.32231  -0.31912  -0.31143  -0.26481
 Alpha  occ. eigenvalues --   -0.23374
 Alpha virt. eigenvalues --   -0.07537  -0.00989   0.01851   0.04303   0.04636
 Alpha virt. eigenvalues --    0.06606   0.07518   0.07822   0.07972   0.09019
 Alpha virt. eigenvalues --    0.10033   0.10952   0.11859   0.12079   0.12631

 Mulliken charges:
               1
     1  Mg   0.951546
     2  C   -0.088595
     3  C   -0.085503
     4  C   -0.092496
     5  C   -0.088052
     6  N   -0.273641
     7  C   -0.070510
     8  C   -0.000007
     9  C   -0.151051
    10  C    0.068049
    11  C    0.028554
    12  C    0.028209
    13  C   -0.033436
    14  C    0.208798
    15  O   -0.273160
    16  O   -0.370856
    17  N   -0.501691
    18  C    0.167526
    19  C   -0.171866
    20  C   -0.068249
    21  C    0.195025
    22  C    0.106193
    23  C   -0.004922
    24  O   -0.235689
    25  C   -0.003975
    26  N   -0.359941
    27  C    0.084767
    28  C   -0.116429
    29  C   -0.074651
    30  C    0.059416
    31  C    0.018661
    32  C   -0.001665
    33  C   -0.077463
    34  N   -0.461798
    35  C    0.122940
    36  C   -0.176663
    37  C   -0.075853
    38  C    0.259628
    39  C    0.078709
    40  C    0.116756
    41  O   -0.232697
    42  C   -0.015409
    43  C    0.261313
    44  O   -0.231857
    45  O   -0.392308
    46  C    0.146585
    47  C    0.251680
    48  C   -0.159537
    49  C   -0.251736
    50  C    0.035267
    51  C    0.093617
    52  C   -0.101152
    53  C    0.057664
    54  C   -0.177592
    55  C    0.009916
    56  C   -0.009021
    57  C   -0.028924
    58  C    0.042355
    59  C   -0.196195
    60  C   -0.005062
    61  C    0.009714
    62  C   -0.019539
    63  C    0.034805
    64  C   -0.212340
    65  C    0.006105
    66  C   -0.014842
    67  H    0.019556
    68  H   -0.023917
    69  H   -0.006757
    70  H    0.045249
    71  H    0.047921
    72  H    0.033447
    73  H    0.041274
    74  H    0.043166
    75  H    0.060387
    76  H    0.047136
    77  H    0.059311
    78  H    0.051881
    79  H    0.064561
    80  H    0.004180
    81  H    0.065100
    82  H    0.054278
    83  H    0.065816
    84  H    0.053338
    85  H    0.053135
    86  H    0.036432
    87  H    0.035242
    88  H    0.041238
    89  H    0.048307
    90  H    0.041054
    91  H    0.037399
    92  H    0.043196
    93  H    0.046785
    94  H    0.033837
    95  H    0.047053
    96  H    0.055774
    97  H    0.053321
    98  H    0.066147
    99  H    0.050497
   100  H    0.068599
   101  H    0.038986
   102  H    0.062766
   103  H    0.036064
   104  H    0.021507
   105  H    0.038164
   106  H    0.067649
   107  H    0.061025
   108  H    0.030205
   109  H    0.011033
   110  H    0.021244
   111  H    0.024545
   112  H    0.007600
   113  H    0.033863
   114  H    0.019336
   115  H    0.030161
   116  H    0.014677
   117  H    0.021003
   118  H    0.034357
   119  H    0.017889
   120  H    0.013962
   121  H    0.027843
   122  H    0.007002
   123  H    0.017213
   124  H    0.021608
   125  H    0.022104
   126  H    0.023674
   127  H    0.026930
   128  H    0.009717
   129  H    0.008704
   130  H    0.016727
   131  H    0.012301
   132  H    0.010596
   133  H   -0.003149
   134  H    0.029148
   135  H    0.023189
   136  H    0.013110
   137  H    0.026585
   138  H    0.025425
   139  H    0.024534
   140  H    0.029344
 Sum of Mulliken charges =  -0.00000

 Dipole moment (field-independent basis, Debye):
    X=              2.5339    Y=              5.8963    Z=              0.5113  Tot=              6.4381
 Quadrupole moment (field-independent basis, Debye-Ang):
   XX=           -347.4402   YY=           -448.1806   ZZ=           -391.0836
   XY=             20.6310   XZ=              6.4214   YZ=             38.9670

 Normal termination of Gaussian 16 at Wed Apr 27 02:56:00 2022.
