 Gaussian 16, Revision A.03,
 Gaussian 16:  ES64L-G16RevA.03 25-Dec-2016

 --------------------
 #p ZINDO=(nstates=5)
 --------------------

 ------------------------------
 step_1051_chromophore_14 ZINDO
 ------------------------------
 Symbolic Z-matrix:
 Charge =  0 Multiplicity = 1

                         Standard orientation:
 ---------------------------------------------------------------------
 Center     Atomic      Atomic             Coordinates (Angstroms)
 Number     Number       Type             X           Y           Z
 ---------------------------------------------------------------------
      1         12           0        5.381392    0.804596   -0.170539
      2          6           0        4.626177   -2.653599    0.092578
      3          6           0        3.789098    0.703656   -3.317706
      4          6           0        5.426261    4.257066   -0.135516
      5          6           0        6.555395    0.705026    3.094090
      6          7           0        4.306306   -0.830916   -1.467937
      7          6           0        4.212758   -2.173548   -1.169650
      8          6           0        3.543284   -2.920531   -2.329976
      9          6           0        3.390323   -1.805681   -3.394290
     10          6           0        3.921838   -0.572793   -2.680202
     11          6           0        4.133658   -2.104307   -4.726698
     12          6           0        2.188729   -3.667932   -2.067554
     13          6           0        1.361132   -3.160306   -0.847325
     14          6           0       -0.119755   -3.242629   -0.806003
     15          8           0       -0.790694   -4.261048   -0.904877
     16          8           0       -0.693155   -2.009616   -0.893964
     17          7           0        4.649773    2.280435   -1.464661
     18          6           0        4.116557    2.004337   -2.735884
     19          6           0        3.834979    3.265672   -3.405637
     20          6           0        4.222595    4.320977   -2.499460
     21          6           0        4.789042    3.676876   -1.283773
     22          6           0        3.274593    3.395860   -4.847561
     23          6           0        4.011837    5.747358   -2.771503
     24          8           0        3.471278    6.108362   -3.799412
     25          6           0        4.419473    6.795672   -1.822474
     26          7           0        5.819848    2.286669    1.272303
     27          6           0        5.917035    3.615860    0.997171
     28          6           0        6.268878    4.357812    2.265420
     29          6           0        6.712823    3.280592    3.266903
     30          6           0        6.333960    2.012639    2.473235
     31          6           0        7.243546    5.644274    2.137542
     32          6           0        6.146183    3.439245    4.727404
     33          6           0        7.264858    3.209784    5.775609
     34          7           0        5.532716   -0.659410    1.316294
     35          6           0        6.101421   -0.596483    2.630090
     36          6           0        6.078454   -1.918087    3.219117
     37          6           0        5.508071   -2.723200    2.177310
     38          6           0        5.207352   -1.928686    1.069075
     39          6           0        6.601994   -2.221798    4.594176
     40          6           0        5.145442   -4.115872    1.845789
     41          8           0        5.292819   -5.184517    2.483845
     42          6           0        4.512131   -4.069916    0.507223
     43          6           0        5.356246   -4.948145   -0.318919
     44          8           0        4.957865   -5.899159   -0.975599
     45          8           0        6.665219   -4.421647   -0.416932
     46          6           0        7.544982   -5.207454   -1.276739
     47          6           0       -2.204300   -2.013425   -0.935376
     48          6           0       -2.977957   -0.697990   -0.674273
     49          6           0       -4.082648   -0.222299   -1.305249
     50          6           0       -4.720602   -1.052139   -2.393636
     51          6           0       -4.643274    1.067517   -0.892135
     52          6           0       -6.102746    1.007231   -0.414681
     53          6           0       -6.375200   -0.052432    0.724623
     54          6           0       -7.794550    0.049904    1.177190
     55          6           0       -7.964686    0.078483    2.734879
     56          6           0       -8.640230   -1.149098    0.558089
     57          6           0      -10.037998   -0.591239    0.117037
     58          6           0      -11.135574   -1.306298    0.851203
     59          6           0      -12.100392   -0.233768    1.612674
     60          6           0      -11.842287   -0.218591    3.143456
     61          6           0      -13.599890   -0.488684    1.412613
     62          6           0      -14.443247    0.829418    1.533889
     63          6           0      -14.841486    1.394908    0.214052
     64          6           0      -16.334684    1.204327   -0.148063
     65          6           0      -16.458711    0.173470   -1.267346
     66          6           0      -16.918867    2.556886   -0.586889
     67          1           0        3.234629    0.742344   -4.258051
     68          1           0        5.476343    5.347289   -0.094831
     69          1           0        7.127387    0.734958    4.023790
     70          1           0        4.214815   -3.714187   -2.654717
     71          1           0        2.353913   -1.599600   -3.661406
     72          1           0        4.457656   -1.135334   -5.106720
     73          1           0        3.408703   -2.532695   -5.419121
     74          1           0        4.956648   -2.801907   -4.571437
     75          1           0        2.399449   -4.707536   -1.819584
     76          1           0        1.530617   -3.501505   -2.920230
     77          1           0        1.773400   -2.166985   -0.671416
     78          1           0        1.620744   -3.756420    0.027526
     79          1           0        2.272249    3.825137   -4.856367
     80          1           0        3.110948    2.423983   -5.312240
     81          1           0        4.022573    3.905549   -5.453910
     82          1           0        5.443793    6.618720   -1.493922
     83          1           0        3.777712    6.815723   -0.941635
     84          1           0        4.391725    7.729823   -2.383734
     85          1           0        5.289554    4.724011    2.574243
     86          1           0        7.793743    3.181887    3.360412
     87          1           0        7.583665    5.644405    1.102544
     88          1           0        8.140373    5.499033    2.740687
     89          1           0        6.725270    6.578853    2.354120
     90          1           0        5.401161    2.675094    4.950718
     91          1           0        5.675427    4.413663    4.854866
     92          1           0        7.367324    4.191765    6.238057
     93          1           0        8.193791    2.752505    5.432975
     94          1           0        6.889753    2.537320    6.546971
     95          1           0        7.502882   -1.658421    4.836111
     96          1           0        6.774472   -3.296181    4.653441
     97          1           0        5.824699   -2.043683    5.337784
     98          1           0        3.492980   -4.453911    0.457098
     99          1           0        8.504663   -4.710517   -1.421466
    100          1           0        7.024801   -5.651993   -2.125289
    101          1           0        7.931495   -6.017716   -0.658642
    102          1           0       -2.532344   -2.653716   -0.116065
    103          1           0       -2.513733   -2.375912   -1.915041
    104          1           0       -2.459140   -0.034902    0.017649
    105          1           0       -5.511791   -0.509747   -2.911154
    106          1           0       -5.008035   -1.988100   -1.915633
    107          1           0       -3.858565   -1.167224   -3.050526
    108          1           0       -4.495563    1.746808   -1.731260
    109          1           0       -4.042321    1.495299   -0.089280
    110          1           0       -6.784947    0.954958   -1.263332
    111          1           0       -6.268781    1.997018    0.012598
    112          1           0       -5.734160    0.285419    1.539071
    113          1           0       -6.058368   -1.015605    0.323435
    114          1           0       -8.233743    0.988673    0.839986
    115          1           0       -6.998643   -0.002692    3.232527
    116          1           0       -8.698914   -0.635590    3.108265
    117          1           0       -8.416114    1.002716    3.096171
    118          1           0       -8.650546   -1.942043    1.306155
    119          1           0       -8.287539   -1.510725   -0.408453
    120          1           0      -10.139699   -0.926289   -0.914970
    121          1           0      -10.116503    0.494025    0.044185
    122          1           0      -10.717501   -1.955329    1.620988
    123          1           0      -11.712897   -1.994546    0.233335
    124          1           0      -11.890282    0.799211    1.338187
    125          1           0      -11.506800    0.770950    3.454007
    126          1           0      -11.034815   -0.876210    3.465245
    127          1           0      -12.739452   -0.483868    3.703885
    128          1           0      -14.047467   -1.082907    2.208776
    129          1           0      -13.789528   -1.074932    0.512792
    130          1           0      -13.878311    1.530189    2.150088
    131          1           0      -15.365412    0.603948    2.068619
    132          1           0      -14.207153    1.140793   -0.635645
    133          1           0      -14.657161    2.469868    0.245257
    134          1           0      -16.986888    0.909130    0.673861
    135          1           0      -17.071417    0.474941   -2.116614
    136          1           0      -16.990891   -0.735381   -0.987806
    137          1           0      -15.492566   -0.233043   -1.564547
    138          1           0      -17.961042    2.552846   -0.267165
    139          1           0      -16.892942    2.665604   -1.671447
    140          1           0      -16.433354    3.443769   -0.180268
 ---------------------------------------------------------------------

 SCF Done:  E(RZINDO/S) =  -474.249963259     A.U. after   20 cycles

 Excitation energies and oscillator strengths:

 Excited State   1:      Singlet-A      1.2604 eV  983.66 nm  f=0.5607  <S**2>=0.000
     175 ->178        -0.20260
     176 ->177         0.65909
 This state for optimization and/or second-order correction.
 Total Energy, E(CIS/TDA) =  -474.203643037
 Copying the excited state density for this state as the 1-particle RhoCI density.

 Excited State   2:      Singlet-A      1.8806 eV  659.28 nm  f=0.0170  <S**2>=0.000
     175 ->177         0.51326
     176 ->178         0.46296

 Excited State   3:      Singlet-A      2.9126 eV  425.69 nm  f=0.0002  <S**2>=0.000
     168 ->177         0.24287
     168 ->178        -0.12746
     168 ->179        -0.27907
     168 ->181        -0.25996
     168 ->183        -0.10001
     168 ->185        -0.18968
     168 ->194         0.11260
     169 ->177         0.19511
     169 ->178        -0.10080
     169 ->179        -0.19725
     169 ->181        -0.20196
     169 ->185        -0.13530

 Excited State   4:      Singlet-A      2.9254 eV  423.82 nm  f=0.0384  <S**2>=0.000
     170 ->177         0.29641
     170 ->178        -0.12577
     170 ->179         0.34862
     170 ->181        -0.24218
     170 ->185         0.19676
     170 ->187         0.13682
     176 ->178        -0.10130
     176 ->179         0.18214

 Excited State   5:      Singlet-A      2.9658 eV  418.05 nm  f=0.6874  <S**2>=0.000
     170 ->179        -0.11271
     175 ->177         0.32282
     176 ->178        -0.37281
     176 ->179         0.40019

 The electronic state is 1-A.
 Alpha  occ. eigenvalues --   -1.85961  -1.81814  -1.78992  -1.73019  -1.72154
 Alpha  occ. eigenvalues --   -1.70067  -1.65348  -1.62242  -1.61392  -1.58321
 Alpha  occ. eigenvalues --   -1.56608  -1.51182  -1.48882  -1.47591  -1.47379
 Alpha  occ. eigenvalues --   -1.45532  -1.43213  -1.40017  -1.39763  -1.39138
 Alpha  occ. eigenvalues --   -1.35709  -1.33164  -1.32206  -1.29731  -1.28195
 Alpha  occ. eigenvalues --   -1.27834  -1.26632  -1.23155  -1.19272  -1.18820
 Alpha  occ. eigenvalues --   -1.16779  -1.15988  -1.15500  -1.13896  -1.12216
 Alpha  occ. eigenvalues --   -1.11770  -1.10555  -1.09584  -1.06288  -1.04461
 Alpha  occ. eigenvalues --   -1.03610  -1.02364  -1.00530  -0.97972  -0.97234
 Alpha  occ. eigenvalues --   -0.96852  -0.95587  -0.93721  -0.92278  -0.91419
 Alpha  occ. eigenvalues --   -0.90858  -0.90502  -0.89499  -0.88169  -0.86995
 Alpha  occ. eigenvalues --   -0.85817  -0.84245  -0.83755  -0.81719  -0.80238
 Alpha  occ. eigenvalues --   -0.79571  -0.78960  -0.78563  -0.77557  -0.76885
 Alpha  occ. eigenvalues --   -0.76405  -0.75505  -0.74526  -0.73991  -0.73772
 Alpha  occ. eigenvalues --   -0.72994  -0.72846  -0.72135  -0.71815  -0.70900
 Alpha  occ. eigenvalues --   -0.70581  -0.69952  -0.69296  -0.68384  -0.67773
 Alpha  occ. eigenvalues --   -0.67443  -0.66825  -0.66561  -0.65920  -0.65593
 Alpha  occ. eigenvalues --   -0.65366  -0.65015  -0.64442  -0.63799  -0.63437
 Alpha  occ. eigenvalues --   -0.63189  -0.62942  -0.62823  -0.62670  -0.62185
 Alpha  occ. eigenvalues --   -0.61815  -0.61248  -0.61052  -0.60406  -0.60067
 Alpha  occ. eigenvalues --   -0.59870  -0.59481  -0.58998  -0.58728  -0.58073
 Alpha  occ. eigenvalues --   -0.57651  -0.57395  -0.57153  -0.56966  -0.56687
 Alpha  occ. eigenvalues --   -0.56594  -0.56078  -0.55813  -0.55300  -0.54874
 Alpha  occ. eigenvalues --   -0.54510  -0.54216  -0.53752  -0.53506  -0.53013
 Alpha  occ. eigenvalues --   -0.52780  -0.52707  -0.52363  -0.52301  -0.51944
 Alpha  occ. eigenvalues --   -0.51541  -0.51405  -0.50860  -0.50466  -0.50241
 Alpha  occ. eigenvalues --   -0.49672  -0.49398  -0.49177  -0.49134  -0.48963
 Alpha  occ. eigenvalues --   -0.48710  -0.48515  -0.48396  -0.48166  -0.47653
 Alpha  occ. eigenvalues --   -0.47585  -0.47432  -0.47292  -0.46925  -0.46870
 Alpha  occ. eigenvalues --   -0.46581  -0.46256  -0.46187  -0.46088  -0.45562
 Alpha  occ. eigenvalues --   -0.45390  -0.45342  -0.45046  -0.44515  -0.44257
 Alpha  occ. eigenvalues --   -0.43318  -0.42991  -0.42297  -0.42241  -0.42005
 Alpha  occ. eigenvalues --   -0.41855  -0.41696  -0.40550  -0.39383  -0.38388
 Alpha  occ. eigenvalues --   -0.38233  -0.37517  -0.35376  -0.35250  -0.34870
 Alpha  occ. eigenvalues --   -0.33684  -0.32847  -0.32523  -0.31356  -0.27092
 Alpha  occ. eigenvalues --   -0.22285
 Alpha virt. eigenvalues --   -0.08956  -0.03289  -0.01234   0.00601   0.01034
 Alpha virt. eigenvalues --    0.01853   0.02511   0.02524   0.04198   0.05029
 Alpha virt. eigenvalues --    0.05789   0.06457   0.06957   0.07299   0.07855

 Mulliken charges:
               1
     1  Mg   0.434303
     2  C   -0.016044
     3  C   -0.087568
     4  C   -0.089857
     5  C   -0.084254
     6  N   -0.263887
     7  C    0.089303
     8  C    0.005617
     9  C   -0.001099
    10  C    0.160761
    11  C   -0.052457
    12  C   -0.019706
    13  C   -0.002719
    14  C    0.477548
    15  O   -0.522048
    16  O   -0.274540
    17  N   -0.340936
    18  C    0.110241
    19  C    0.047782
    20  C   -0.049893
    21  C    0.128837
    22  C   -0.032810
    23  C    0.333266
    24  O   -0.532010
    25  C   -0.029366
    26  N   -0.257620
    27  C    0.146086
    28  C    0.000864
    29  C   -0.001257
    30  C    0.118088
    31  C   -0.060501
    32  C   -0.029295
    33  C   -0.062388
    34  N   -0.338230
    35  C    0.069426
    36  C    0.022669
    37  C   -0.058807
    38  C    0.122362
    39  C   -0.033538
    40  C    0.332623
    41  O   -0.537408
    42  C    0.065387
    43  C    0.491668
    44  O   -0.523002
    45  O   -0.278437
    46  C    0.064923
    47  C    0.095101
    48  C   -0.119801
    49  C    0.008240
    50  C   -0.047588
    51  C   -0.011842
    52  C   -0.036482
    53  C   -0.026697
    54  C   -0.011448
    55  C   -0.065280
    56  C   -0.043203
    57  C   -0.037837
    58  C   -0.034182
    59  C   -0.019825
    60  C   -0.061750
    61  C   -0.036534
    62  C   -0.031708
    63  C   -0.027049
    64  C   -0.004436
    65  C   -0.060244
    66  C   -0.058964
    67  H    0.041657
    68  H    0.031148
    69  H    0.028301
    70  H    0.038516
    71  H    0.034535
    72  H    0.023371
    73  H    0.020670
    74  H    0.030535
    75  H    0.040434
    76  H    0.033745
    77  H    0.031673
    78  H    0.038272
    79  H    0.045975
    80  H    0.013140
    81  H    0.044226
    82  H    0.029816
    83  H    0.042950
    84  H    0.037333
    85  H    0.033617
    86  H    0.033469
    87  H    0.019364
    88  H    0.025911
    89  H    0.029107
    90  H    0.024373
    91  H    0.024801
    92  H    0.019830
    93  H    0.031103
    94  H    0.013904
    95  H    0.031091
    96  H    0.030888
    97  H    0.032744
    98  H    0.066738
    99  H    0.036388
   100  H    0.059547
   101  H    0.031949
   102  H    0.052231
   103  H    0.047263
   104  H    0.023417
   105  H    0.025301
   106  H    0.040309
   107  H    0.032895
   108  H    0.022933
   109  H    0.017338
   110  H    0.022487
   111  H    0.008254
   112  H    0.018912
   113  H    0.031143
   114  H    0.023767
   115  H    0.022659
   116  H    0.021602
   117  H    0.011335
   118  H    0.032952
   119  H    0.018429
   120  H    0.004035
   121  H    0.033303
   122  H    0.018995
   123  H    0.021632
   124  H    0.026526
   125  H    0.011651
   126  H    0.016448
   127  H    0.020997
   128  H    0.012069
   129  H    0.017737
   130  H    0.020525
   131  H    0.015081
   132  H    0.021775
   133  H    0.003412
   134  H    0.027498
   135  H    0.020293
   136  H    0.005991
   137  H    0.020658
   138  H    0.010721
   139  H    0.016604
   140  H    0.019150
 Sum of Mulliken charges =  -0.00000

 Dipole moment (field-independent basis, Debye):
    X=              3.1392    Y=              8.5599    Z=              0.0782  Tot=              9.1178
 N-N= 4.295908889507D+03 E-N= 0.000000000000D+00  KE=-9.265536150827D+03
 Leave Link  601 at Wed Apr 27 03:09:26 2022, MaxMem=  6710886400 cpu:               1.0 elap:               0.1
 (Enter /sw/apps/gaussian-16.0/g16/l9999.exe)
 1\1\GINC-BP1-COMPUTE139\SP\RZINDO CIS\STO-3G\C55H74Mg1N4O6\OF15641\27-
 Apr-2022\0\\#p ZINDO=(nstates=5)\\step_1051_chromophore_14 ZINDO\\0,1\
 Mg,0,46.892,46.137,43.993\C,0,43.569,44.963,43.571\C,0,47.935,42.878,4
 3.132\C,0,50.085,47.409,43.662\C,0,45.611,49.331,44.444\N,0,45.834,44.
 126,43.401\C,0,44.475,43.895,43.389\C,0,44.199,42.421,43.067\C,0,45.62
 6,41.82,43.028\C,0,46.516,43.031,43.26\C,0,45.858,40.687,44.067\C,0,43
 .381,42.069,41.775\C,0,43.383,43.155,40.656\C,0,43.262,42.81,39.218\O,

 Normal termination of Gaussian 16 at Wed Apr 27 03:09:26 2022.
