 Gaussian 16, Revision A.03,
 Gaussian 16:  ES64L-G16RevA.03 25-Dec-2016

 ------------------------------
 #p blyp/Def2SVP td=(nstates=5)
 ------------------------------

 ---------------------------------------------------
 step_1851_chromophore_21 TDDFT with blyp functional
 ---------------------------------------------------
 Symbolic Z-matrix:
 Charge =  0 Multiplicity = 1

                         Standard orientation:
 ---------------------------------------------------------------------
 Center     Atomic      Atomic             Coordinates (Angstroms)
 Number     Number       Type             X           Y           Z
 ---------------------------------------------------------------------
      1         12           0        4.965551    1.178741    0.342725
      2          6           0        4.839355   -2.427172    0.111773
      3          6           0        1.749941    1.160489   -0.790982
      4          6           0        5.242489    4.447265    0.227029
      5          6           0        8.453803    0.910251    0.528221
      6          7           0        3.378216   -0.447022   -0.062975
      7          6           0        3.569613   -1.830141   -0.107398
      8          6           0        2.149774   -2.516939   -0.122882
      9          6           0        1.261598   -1.333239   -0.730831
     10          6           0        2.169482   -0.119356   -0.521859
     11          6           0        1.133611   -1.527082   -2.320214
     12          6           0        1.788182   -2.958076    1.360204
     13          6           0        0.888810   -4.135451    1.695442
     14          6           0       -0.107435   -4.554672    0.566432
     15          8           0        0.156924   -5.334426   -0.382316
     16          8           0       -1.316811   -3.973001    0.667189
     17          7           0        3.608252    2.622856   -0.169441
     18          6           0        2.355211    2.442213   -0.659673
     19          6           0        1.718082    3.766265   -0.880248
     20          6           0        2.826981    4.666719   -0.687416
     21          6           0        3.946111    3.928421   -0.145523
     22          6           0        0.318411    4.034914   -1.309114
     23          6           0        2.872101    6.218317   -1.052949
     24          8           0        3.865714    6.908631   -0.940683
     25          6           0        1.571367    6.915469   -1.570166
     26          7           0        6.558470    2.538614    0.524594
     27          6           0        6.439708    3.855752    0.530033
     28          6           0        7.759439    4.584996    0.878244
     29          6           0        8.811422    3.418806    0.962309
     30          6           0        7.910020    2.221378    0.603484
     31          6           0        8.226383    5.740560   -0.129379
     32          6           0        9.624254    3.216699    2.334056
     33          6           0       11.056742    2.752351    2.266796
     34          7           0        6.386071   -0.378283    0.388957
     35          6           0        7.769093   -0.336357    0.504029
     36          6           0        8.331724   -1.653106    0.345911
     37          6           0        7.213857   -2.469437    0.190276
     38          6           0        6.029386   -1.668772    0.210535
     39          6           0        9.742224   -2.087141    0.366551
     40          6           0        6.835387   -3.926440   -0.046010
     41          8           0        7.523984   -4.959961   -0.204663
     42          6           0        5.244206   -3.914777   -0.042763
     43          6           0        4.637378   -4.502925   -1.326702
     44          8           0        5.064804   -4.158636   -2.390493
     45          8           0        3.667289   -5.463760   -1.090169
     46          6           0        3.093316   -5.976012   -2.327683
     47          6           0       -2.247571   -4.238064   -0.549979
     48          6           0       -3.531995   -3.415121   -0.319611
     49          6           0       -3.846621   -2.175342   -0.746155
     50          6           0       -2.871107   -1.280307   -1.579020
     51          6           0       -5.270023   -1.649402   -0.588751
     52          6           0       -5.606517   -1.110005    0.788229
     53          6           0       -6.822795   -1.855630    1.475085
     54          6           0       -8.129242   -1.060472    1.564283
     55          6           0       -8.376387   -0.680096    2.974405
     56          6           0       -9.375473   -1.766296    0.902392
     57          6           0      -10.473713   -0.777896    0.385115
     58          6           0      -11.893182   -1.020096    0.961010
     59          6           0      -12.726111    0.324851    1.171981
     60          6           0      -12.717326    0.794278    2.685811
     61          6           0      -14.167047    0.275101    0.724917
     62          6           0      -14.230827    0.593650   -0.802847
     63          6           0      -15.009476    1.894358   -1.096609
     64          6           0      -14.053928    3.154172   -1.119845
     65          6           0      -14.318540    4.145369    0.098363
     66          6           0      -14.158782    3.888665   -2.471263
     67          1           0        0.754333    1.220278   -1.236604
     68          1           0        5.155855    5.533752    0.154384
     69          1           0        9.544125    0.870921    0.479326
     70          1           0        2.229000   -3.430051   -0.712182
     71          1           0        0.221791   -1.315313   -0.403377
     72          1           0        1.584670   -2.497539   -2.524336
     73          1           0        1.489415   -0.600263   -2.769023
     74          1           0        0.132861   -1.797401   -2.658434
     75          1           0        1.408264   -2.059519    1.847963
     76          1           0        2.778017   -3.151030    1.773504
     77          1           0        0.357907   -3.977199    2.634008
     78          1           0        1.576100   -4.972688    1.817345
     79          1           0       -0.275483    3.126178   -1.212059
     80          1           0        0.384696    4.295257   -2.365719
     81          1           0       -0.012186    4.839555   -0.652877
     82          1           0        1.905127    7.892605   -1.920785
     83          1           0        0.991119    7.039917   -0.656243
     84          1           0        1.097496    6.398381   -2.403899
     85          1           0        7.621980    5.108643    1.823897
     86          1           0        9.500114    3.513931    0.122533
     87          1           0        7.342014    6.141384   -0.625218
     88          1           0        8.883579    5.475684   -0.957639
     89          1           0        8.586277    6.562635    0.490118
     90          1           0        9.111500    2.554868    3.031635
     91          1           0        9.718074    4.205324    2.783221
     92          1           0       11.112417    1.752458    2.699940
     93          1           0       11.717457    3.304308    2.935201
     94          1           0       11.515126    2.780537    1.278807
     95          1           0        9.742138   -3.130034    0.683649
     96          1           0       10.416246   -1.587424    1.061466
     97          1           0       10.112922   -2.109686   -0.659062
     98          1           0        4.892819   -4.530115    0.786029
     99          1           0        3.854276   -6.356664   -3.008910
    100          1           0        2.521444   -5.344925   -3.007658
    101          1           0        2.486863   -6.859762   -2.133969
    102          1           0       -2.519034   -5.276072   -0.742368
    103          1           0       -1.837130   -3.882508   -1.494545
    104          1           0       -4.412770   -4.006963   -0.068704
    105          1           0       -3.389919   -0.566154   -2.218430
    106          1           0       -2.225618   -1.921164   -2.179135
    107          1           0       -2.215299   -0.697338   -0.932253
    108          1           0       -5.850787   -2.552010   -0.780931
    109          1           0       -5.569398   -0.899448   -1.321256
    110          1           0       -5.730931   -0.033722    0.677775
    111          1           0       -4.762000   -1.124738    1.477248
    112          1           0       -6.515279   -2.134831    2.483499
    113          1           0       -7.103177   -2.741022    0.903991
    114          1           0       -8.008479   -0.096613    1.069296
    115          1           0       -8.190970   -1.501709    3.667939
    116          1           0       -9.445605   -0.469161    2.984860
    117          1           0       -7.702943    0.131413    3.248762
    118          1           0       -9.773695   -2.490562    1.612349
    119          1           0       -8.962583   -2.314417    0.056366
    120          1           0      -10.542563   -0.895954   -0.696491
    121          1           0      -10.189748    0.249678    0.615356
    122          1           0      -11.933315   -1.614568    1.874564
    123          1           0      -12.506884   -1.643209    0.311169
    124          1           0      -12.292039    1.188301    0.667381
    125          1           0      -12.677608    1.880731    2.619268
    126          1           0      -11.911397    0.291492    3.220740
    127          1           0      -13.619798    0.438013    3.184117
    128          1           0      -14.742478    1.039632    1.246404
    129          1           0      -14.566980   -0.734478    0.814304
    130          1           0      -14.642671   -0.252108   -1.353647
    131          1           0      -13.217556    0.711206   -1.186928
    132          1           0      -15.761596    1.998744   -0.314029
    133          1           0      -15.573857    1.757414   -2.019304
    134          1           0      -13.006353    2.855531   -1.160700
    135          1           0      -14.023236    5.159940   -0.170612
    136          1           0      -13.626527    3.853426    0.888428
    137          1           0      -15.319187    4.133092    0.530045
    138          1           0      -13.385553    4.643320   -2.611354
    139          1           0      -15.073904    4.481601   -2.467389
    140          1           0      -14.300564    3.176475   -3.284649
 ---------------------------------------------------------------------

 SCF Done:  E(RB-LYP) =  -3007.38644773     A.U. after   20 cycles

 Excitation energies and oscillator strengths:

 Excited State   1:      Singlet-A      1.8195 eV  681.41 nm  f=0.2881  <S**2>=0.000
     245 -> 248        0.19302
     246 -> 247        0.69055
     246 <- 247       -0.14852
 This state for optimization and/or second-order correction.
 Total Energy, E(TD-HF/TD-DFT) =  -3007.31958124
 Copying the excited state density for this state as the 1-particle RhoCI density.

 Excited State   2:      Singlet-A      1.9850 eV  624.59 nm  f=0.0582  <S**2>=0.000
     244 -> 247        0.44455
     245 -> 247        0.50933
     246 -> 248       -0.16359

 Excited State   3:      Singlet-A      2.0545 eV  603.48 nm  f=0.0393  <S**2>=0.000
     243 -> 247        0.17263
     244 -> 247        0.54341
     245 -> 247       -0.37915
     246 -> 248        0.15364

 Excited State   4:      Singlet-A      2.1339 eV  581.03 nm  f=0.0089  <S**2>=0.000
     243 -> 247        0.67724
     245 -> 247        0.16224

 Excited State   5:      Singlet-A      2.5294 eV  490.17 nm  f=0.0002  <S**2>=0.000
     240 -> 247        0.64886
     242 -> 247       -0.27717

 The electronic state is 1-A.
 Alpha  occ. eigenvalues --  -46.27135 -18.82979 -18.82691 -18.76621 -18.76541
 Alpha  occ. eigenvalues --  -18.76412 -18.76069 -14.03058 -14.03015 -14.00853
 Alpha  occ. eigenvalues --  -14.00842 -10.04323 -10.03663 -10.00718 -10.00245
 Alpha  occ. eigenvalues --   -9.99141  -9.96787  -9.96650  -9.96446  -9.96186
 Alpha  occ. eigenvalues --   -9.95954  -9.95745  -9.95574  -9.95265  -9.94539
 Alpha  occ. eigenvalues --   -9.94458  -9.94355  -9.94350  -9.94292  -9.94235
 Alpha  occ. eigenvalues --   -9.94235  -9.94096  -9.94094  -9.94090  -9.93574
 Alpha  occ. eigenvalues --   -9.93380  -9.93294  -9.93037  -9.92973  -9.92854
 Alpha  occ. eigenvalues --   -9.92712  -9.92614  -9.92596  -9.92476  -9.92456
 Alpha  occ. eigenvalues --   -9.92376  -9.92171  -9.92113  -9.92076  -9.92056
 Alpha  occ. eigenvalues --   -9.91850  -9.91767  -9.91724  -9.91676  -9.91664
 Alpha  occ. eigenvalues --   -9.91533  -9.91487  -9.91485  -9.91465  -9.91248
 Alpha  occ. eigenvalues --   -9.91160  -9.90783  -9.90759  -9.90724  -9.90719
 Alpha  occ. eigenvalues --   -9.90662  -2.91742  -1.72178  -1.71621  -1.71451
 Alpha  occ. eigenvalues --   -0.97863  -0.97321  -0.92548  -0.90740  -0.89537
 Alpha  occ. eigenvalues --   -0.87836  -0.86579  -0.85836  -0.85547  -0.84857
 Alpha  occ. eigenvalues --   -0.74371  -0.74139  -0.73071  -0.72432  -0.71987
 Alpha  occ. eigenvalues --   -0.71955  -0.71045  -0.70464  -0.70334  -0.70050
 Alpha  occ. eigenvalues --   -0.69796  -0.68872  -0.68142  -0.67394  -0.66941
 Alpha  occ. eigenvalues --   -0.66439  -0.65363  -0.64940  -0.64546  -0.64436
 Alpha  occ. eigenvalues --   -0.63995  -0.62422  -0.61862  -0.61568  -0.60953
 Alpha  occ. eigenvalues --   -0.60350  -0.60169  -0.59730  -0.59665  -0.58908
 Alpha  occ. eigenvalues --   -0.58321  -0.57522  -0.56443  -0.55519  -0.54437
 Alpha  occ. eigenvalues --   -0.53915  -0.53288  -0.52340  -0.51976  -0.51559
 Alpha  occ. eigenvalues --   -0.51357  -0.50817  -0.50721  -0.50078  -0.49979
 Alpha  occ. eigenvalues --   -0.49622  -0.49414  -0.48641  -0.48604  -0.46306
 Alpha  occ. eigenvalues --   -0.46228  -0.45818  -0.45336  -0.45102  -0.44053
 Alpha  occ. eigenvalues --   -0.43571  -0.43169  -0.42888  -0.42456  -0.42169
 Alpha  occ. eigenvalues --   -0.41713  -0.41652  -0.41463  -0.41320  -0.41033
 Alpha  occ. eigenvalues --   -0.40756  -0.40585  -0.40553  -0.40338  -0.39772
 Alpha  occ. eigenvalues --   -0.39424  -0.39259  -0.39202  -0.39139  -0.39043
 Alpha  occ. eigenvalues --   -0.38845  -0.38722  -0.38445  -0.38319  -0.38231
 Alpha  occ. eigenvalues --   -0.38173  -0.37986  -0.37741  -0.37575  -0.37399
 Alpha  occ. eigenvalues --   -0.37224  -0.37044  -0.36760  -0.36514  -0.36344
 Alpha  occ. eigenvalues --   -0.36193  -0.36064  -0.35842  -0.35692  -0.35526
 Alpha  occ. eigenvalues --   -0.35453  -0.35148  -0.34957  -0.34805  -0.34577
 Alpha  occ. eigenvalues --   -0.34322  -0.34301  -0.34207  -0.34029  -0.34003
 Alpha  occ. eigenvalues --   -0.33836  -0.33736  -0.33551  -0.33426  -0.33348
 Alpha  occ. eigenvalues --   -0.33123  -0.32828  -0.32629  -0.32510  -0.32375
 Alpha  occ. eigenvalues --   -0.32039  -0.31912  -0.31641  -0.31524  -0.31417
 Alpha  occ. eigenvalues --   -0.31392  -0.31275  -0.30920  -0.30888  -0.30631
 Alpha  occ. eigenvalues --   -0.30514  -0.30389  -0.30320  -0.29892  -0.29781
 Alpha  occ. eigenvalues --   -0.29714  -0.29598  -0.29377  -0.29228  -0.29097
 Alpha  occ. eigenvalues --   -0.28968  -0.28620  -0.28562  -0.27942  -0.27828
 Alpha  occ. eigenvalues --   -0.27683  -0.27537  -0.27342  -0.26911  -0.26181
 Alpha  occ. eigenvalues --   -0.26096  -0.26082  -0.25973  -0.25695  -0.25412
 Alpha  occ. eigenvalues --   -0.25259  -0.25109  -0.24839  -0.24029  -0.23592
 Alpha  occ. eigenvalues --   -0.23207  -0.22235  -0.22183  -0.21397  -0.20673
 Alpha  occ. eigenvalues --   -0.20602  -0.20278  -0.19097  -0.18709  -0.16984
 Alpha  occ. eigenvalues --   -0.15684
 Alpha virt. eigenvalues --   -0.11365  -0.06348  -0.06018  -0.04725  -0.04336
 Alpha virt. eigenvalues --   -0.03160  -0.02491  -0.02155  -0.01122   0.00216
 Alpha virt. eigenvalues --    0.00591   0.01568   0.01658   0.02162   0.02710

 Mulliken charges:
               1
     1  Mg   0.700122
     2  C   -0.049242
     3  C   -0.057511
     4  C   -0.048387
     5  C   -0.071077
     6  N   -0.188544
     7  C   -0.070966
     8  C    0.008249
     9  C   -0.019922
    10  C    0.052472
    11  C    0.103150
    12  C    0.084566
    13  C    0.220520
    14  C    0.069813
    15  O   -0.242962
    16  O   -0.258122
    17  N   -0.283155
    18  C    0.107318
    19  C   -0.182804
    20  C    0.004942
    21  C    0.040137
    22  C    0.200976
    23  C   -0.065739
    24  O   -0.149793
    25  C    0.115547
    26  N   -0.223656
    27  C    0.078244
    28  C    0.017221
    29  C    0.074985
    30  C   -0.001844
    31  C    0.101575
    32  C    0.099089
    33  C    0.059868
    34  N   -0.257812
    35  C    0.105983
    36  C   -0.168978
    37  C    0.014878
    38  C    0.109198
    39  C    0.176183
    40  C    0.041808
    41  O   -0.152632
    42  C    0.087527
    43  C    0.084050
    44  O   -0.148701
    45  O   -0.259171
    46  C    0.234162
    47  C    0.304239
    48  C   -0.088992
    49  C   -0.157906
    50  C    0.120586
    51  C    0.132928
    52  C    0.085431
    53  C    0.127929
    54  C   -0.115649
    55  C    0.122821
    56  C    0.096971
    57  C    0.085955
    58  C    0.119322
    59  C   -0.131238
    60  C    0.091031
    61  C    0.130663
    62  C    0.035567
    63  C    0.111887
    64  C   -0.071960
    65  C    0.092325
    66  C    0.078591
    67  H   -0.074165
    68  H   -0.046400
    69  H   -0.064516
    70  H   -0.010253
    71  H   -0.022109
    72  H   -0.004884
    73  H    0.014402
    74  H   -0.029536
    75  H   -0.022627
    76  H   -0.018508
    77  H   -0.005660
    78  H   -0.005794
    79  H   -0.011732
    80  H    0.017253
    81  H    0.012222
    82  H   -0.008483
    83  H    0.018187
    84  H    0.009293
    85  H   -0.016513
    86  H   -0.024532
    87  H   -0.002120
    88  H   -0.002996
    89  H   -0.008498
    90  H   -0.011451
    91  H   -0.020955
    92  H   -0.011380
    93  H   -0.017988
    94  H   -0.004317
    95  H   -0.000197
    96  H   -0.004912
    97  H    0.007740
    98  H   -0.012516
    99  H   -0.003173
   100  H    0.007431
   101  H    0.010945
   102  H    0.010601
   103  H   -0.007439
   104  H   -0.033119
   105  H   -0.010391
   106  H    0.002232
   107  H    0.016417
   108  H   -0.018103
   109  H   -0.029823
   110  H   -0.035266
   111  H   -0.028528
   112  H   -0.033515
   113  H   -0.036822
   114  H   -0.043066
   115  H   -0.024476
   116  H   -0.017405
   117  H   -0.015333
   118  H   -0.028367
   119  H   -0.040326
   120  H   -0.021213
   121  H   -0.012177
   122  H   -0.037359
   123  H   -0.046247
   124  H   -0.029856
   125  H   -0.002969
   126  H   -0.016621
   127  H   -0.020386
   128  H   -0.030928
   129  H   -0.033278
   130  H   -0.043663
   131  H   -0.027973
   132  H   -0.035959
   133  H   -0.038434
   134  H   -0.022974
   135  H   -0.021536
   136  H   -0.019446
   137  H   -0.002223
   138  H   -0.014983
   139  H   -0.030171
   140  H   -0.012197
 Sum of Mulliken charges =  -0.00000

 Dipole moment (field-independent basis, Debye):
    X=             -5.1836    Y=              3.5148    Z=              1.6825  Tot=              6.4849
 Quadrupole moment (field-independent basis, Debye-Ang):
   XX=           -398.6372   YY=           -438.0061   ZZ=           -403.1176
   XY=             36.4449   XZ=             27.0080   YZ=             -0.0098

 Normal termination of Gaussian 16 at Fri Apr 29 04:11:19 2022.
