 Gaussian 16, Revision A.03,
 Gaussian 16:  ES64L-G16RevA.03 25-Dec-2016

 -----------------------------------
 #p cam-b3lyp/Def2SVP td=(nstates=5)
 -----------------------------------

 --------------------------------------------------------
 step_1851_chromophore_21 TDDFT with cam-b3lyp functional
 --------------------------------------------------------
 Symbolic Z-matrix:
 Charge =  0 Multiplicity = 1

                         Standard orientation:
 ---------------------------------------------------------------------
 Center     Atomic      Atomic             Coordinates (Angstroms)
 Number     Number       Type             X           Y           Z
 ---------------------------------------------------------------------
      1         12           0        4.965551    1.178741    0.342725
      2          6           0        4.839355   -2.427172    0.111773
      3          6           0        1.749941    1.160489   -0.790982
      4          6           0        5.242489    4.447265    0.227029
      5          6           0        8.453803    0.910251    0.528221
      6          7           0        3.378216   -0.447022   -0.062975
      7          6           0        3.569613   -1.830141   -0.107398
      8          6           0        2.149774   -2.516939   -0.122882
      9          6           0        1.261598   -1.333239   -0.730831
     10          6           0        2.169482   -0.119356   -0.521859
     11          6           0        1.133611   -1.527082   -2.320214
     12          6           0        1.788182   -2.958076    1.360204
     13          6           0        0.888810   -4.135451    1.695442
     14          6           0       -0.107435   -4.554672    0.566432
     15          8           0        0.156924   -5.334426   -0.382316
     16          8           0       -1.316811   -3.973001    0.667189
     17          7           0        3.608252    2.622856   -0.169441
     18          6           0        2.355211    2.442213   -0.659673
     19          6           0        1.718082    3.766265   -0.880248
     20          6           0        2.826981    4.666719   -0.687416
     21          6           0        3.946111    3.928421   -0.145523
     22          6           0        0.318411    4.034914   -1.309114
     23          6           0        2.872101    6.218317   -1.052949
     24          8           0        3.865714    6.908631   -0.940683
     25          6           0        1.571367    6.915469   -1.570166
     26          7           0        6.558470    2.538614    0.524594
     27          6           0        6.439708    3.855752    0.530033
     28          6           0        7.759439    4.584996    0.878244
     29          6           0        8.811422    3.418806    0.962309
     30          6           0        7.910020    2.221378    0.603484
     31          6           0        8.226383    5.740560   -0.129379
     32          6           0        9.624254    3.216699    2.334056
     33          6           0       11.056742    2.752351    2.266796
     34          7           0        6.386071   -0.378283    0.388957
     35          6           0        7.769093   -0.336357    0.504029
     36          6           0        8.331724   -1.653106    0.345911
     37          6           0        7.213857   -2.469437    0.190276
     38          6           0        6.029386   -1.668772    0.210535
     39          6           0        9.742224   -2.087141    0.366551
     40          6           0        6.835387   -3.926440   -0.046010
     41          8           0        7.523984   -4.959961   -0.204663
     42          6           0        5.244206   -3.914777   -0.042763
     43          6           0        4.637378   -4.502925   -1.326702
     44          8           0        5.064804   -4.158636   -2.390493
     45          8           0        3.667289   -5.463760   -1.090169
     46          6           0        3.093316   -5.976012   -2.327683
     47          6           0       -2.247571   -4.238064   -0.549979
     48          6           0       -3.531995   -3.415121   -0.319611
     49          6           0       -3.846621   -2.175342   -0.746155
     50          6           0       -2.871107   -1.280307   -1.579020
     51          6           0       -5.270023   -1.649402   -0.588751
     52          6           0       -5.606517   -1.110005    0.788229
     53          6           0       -6.822795   -1.855630    1.475085
     54          6           0       -8.129242   -1.060472    1.564283
     55          6           0       -8.376387   -0.680096    2.974405
     56          6           0       -9.375473   -1.766296    0.902392
     57          6           0      -10.473713   -0.777896    0.385115
     58          6           0      -11.893182   -1.020096    0.961010
     59          6           0      -12.726111    0.324851    1.171981
     60          6           0      -12.717326    0.794278    2.685811
     61          6           0      -14.167047    0.275101    0.724917
     62          6           0      -14.230827    0.593650   -0.802847
     63          6           0      -15.009476    1.894358   -1.096609
     64          6           0      -14.053928    3.154172   -1.119845
     65          6           0      -14.318540    4.145369    0.098363
     66          6           0      -14.158782    3.888665   -2.471263
     67          1           0        0.754333    1.220278   -1.236604
     68          1           0        5.155855    5.533752    0.154384
     69          1           0        9.544125    0.870921    0.479326
     70          1           0        2.229000   -3.430051   -0.712182
     71          1           0        0.221791   -1.315313   -0.403377
     72          1           0        1.584670   -2.497539   -2.524336
     73          1           0        1.489415   -0.600263   -2.769023
     74          1           0        0.132861   -1.797401   -2.658434
     75          1           0        1.408264   -2.059519    1.847963
     76          1           0        2.778017   -3.151030    1.773504
     77          1           0        0.357907   -3.977199    2.634008
     78          1           0        1.576100   -4.972688    1.817345
     79          1           0       -0.275483    3.126178   -1.212059
     80          1           0        0.384696    4.295257   -2.365719
     81          1           0       -0.012186    4.839555   -0.652877
     82          1           0        1.905127    7.892605   -1.920785
     83          1           0        0.991119    7.039917   -0.656243
     84          1           0        1.097496    6.398381   -2.403899
     85          1           0        7.621980    5.108643    1.823897
     86          1           0        9.500114    3.513931    0.122533
     87          1           0        7.342014    6.141384   -0.625218
     88          1           0        8.883579    5.475684   -0.957639
     89          1           0        8.586277    6.562635    0.490118
     90          1           0        9.111500    2.554868    3.031635
     91          1           0        9.718074    4.205324    2.783221
     92          1           0       11.112417    1.752458    2.699940
     93          1           0       11.717457    3.304308    2.935201
     94          1           0       11.515126    2.780537    1.278807
     95          1           0        9.742138   -3.130034    0.683649
     96          1           0       10.416246   -1.587424    1.061466
     97          1           0       10.112922   -2.109686   -0.659062
     98          1           0        4.892819   -4.530115    0.786029
     99          1           0        3.854276   -6.356664   -3.008910
    100          1           0        2.521444   -5.344925   -3.007658
    101          1           0        2.486863   -6.859762   -2.133969
    102          1           0       -2.519034   -5.276072   -0.742368
    103          1           0       -1.837130   -3.882508   -1.494545
    104          1           0       -4.412770   -4.006963   -0.068704
    105          1           0       -3.389919   -0.566154   -2.218430
    106          1           0       -2.225618   -1.921164   -2.179135
    107          1           0       -2.215299   -0.697338   -0.932253
    108          1           0       -5.850787   -2.552010   -0.780931
    109          1           0       -5.569398   -0.899448   -1.321256
    110          1           0       -5.730931   -0.033722    0.677775
    111          1           0       -4.762000   -1.124738    1.477248
    112          1           0       -6.515279   -2.134831    2.483499
    113          1           0       -7.103177   -2.741022    0.903991
    114          1           0       -8.008479   -0.096613    1.069296
    115          1           0       -8.190970   -1.501709    3.667939
    116          1           0       -9.445605   -0.469161    2.984860
    117          1           0       -7.702943    0.131413    3.248762
    118          1           0       -9.773695   -2.490562    1.612349
    119          1           0       -8.962583   -2.314417    0.056366
    120          1           0      -10.542563   -0.895954   -0.696491
    121          1           0      -10.189748    0.249678    0.615356
    122          1           0      -11.933315   -1.614568    1.874564
    123          1           0      -12.506884   -1.643209    0.311169
    124          1           0      -12.292039    1.188301    0.667381
    125          1           0      -12.677608    1.880731    2.619268
    126          1           0      -11.911397    0.291492    3.220740
    127          1           0      -13.619798    0.438013    3.184117
    128          1           0      -14.742478    1.039632    1.246404
    129          1           0      -14.566980   -0.734478    0.814304
    130          1           0      -14.642671   -0.252108   -1.353647
    131          1           0      -13.217556    0.711206   -1.186928
    132          1           0      -15.761596    1.998744   -0.314029
    133          1           0      -15.573857    1.757414   -2.019304
    134          1           0      -13.006353    2.855531   -1.160700
    135          1           0      -14.023236    5.159940   -0.170612
    136          1           0      -13.626527    3.853426    0.888428
    137          1           0      -15.319187    4.133092    0.530045
    138          1           0      -13.385553    4.643320   -2.611354
    139          1           0      -15.073904    4.481601   -2.467389
    140          1           0      -14.300564    3.176475   -3.284649
 ---------------------------------------------------------------------

 SCF Done:  E(RCAM-B3LYP) =  -3007.16612324     A.U. after   19 cycles

 Excitation energies and oscillator strengths:

 Excited State   1:      Singlet-A      1.7039 eV  727.65 nm  f=0.3671  <S**2>=0.000
     245 -> 248        0.18196
     246 -> 247        0.68610
     245 <- 248        0.11088
 This state for optimization and/or second-order correction.
 Total Energy, E(TD-HF/TD-DFT) =  -3007.10350593
 Copying the excited state density for this state as the 1-particle RhoCI density.

 Excited State   2:      Singlet-A      2.2268 eV  556.77 nm  f=0.1408  <S**2>=0.000
     245 -> 247        0.64713
     246 -> 248       -0.27755

 Excited State   3:      Singlet-A      3.4238 eV  362.13 nm  f=0.0004  <S**2>=0.000
     243 -> 247       -0.20233
     244 -> 247        0.65998

 Excited State   4:      Singlet-A      3.5259 eV  351.64 nm  f=0.0493  <S**2>=0.000
     241 -> 247        0.17582
     241 -> 249        0.14298
     242 -> 247        0.27043
     242 -> 249        0.17174
     242 -> 250        0.10398
     243 -> 247        0.46911
     246 -> 248        0.27246

 Excited State   5:      Singlet-A      3.5697 eV  347.33 nm  f=0.0099  <S**2>=0.000
     241 -> 247        0.23971
     241 -> 249        0.13586
     242 -> 247        0.36454
     242 -> 249        0.23240
     242 -> 250        0.11276
     243 -> 247       -0.35856
     244 -> 247       -0.18497
     246 -> 248       -0.15523

 The electronic state is 1-A.
 Alpha  occ. eigenvalues --  -46.88672 -19.25921 -19.25641 -19.19816 -19.19756
 Alpha  occ. eigenvalues --  -19.19301 -19.19274 -14.41912 -14.41895 -14.39299
 Alpha  occ. eigenvalues --  -14.39245 -10.39602 -10.39090 -10.36073 -10.35742
 Alpha  occ. eigenvalues --  -10.33516 -10.31386 -10.30844 -10.30614 -10.30599
 Alpha  occ. eigenvalues --  -10.30334 -10.30147 -10.29988 -10.29433 -10.28835
 Alpha  occ. eigenvalues --  -10.28775 -10.28705 -10.28699 -10.28527 -10.28418
 Alpha  occ. eigenvalues --  -10.28347 -10.28306 -10.28165 -10.28038 -10.27513
 Alpha  occ. eigenvalues --  -10.27378 -10.27309 -10.27257 -10.27064 -10.26793
 Alpha  occ. eigenvalues --  -10.26716 -10.26567 -10.26563 -10.26421 -10.26398
 Alpha  occ. eigenvalues --  -10.26306 -10.25826 -10.25812 -10.25801 -10.25767
 Alpha  occ. eigenvalues --  -10.25534 -10.25507 -10.25499 -10.25397 -10.25387
 Alpha  occ. eigenvalues --  -10.25336 -10.25317 -10.25221 -10.25155 -10.25111
 Alpha  occ. eigenvalues --  -10.24943 -10.24446 -10.24390 -10.24370 -10.24356
 Alpha  occ. eigenvalues --  -10.24219  -3.17183  -1.92095  -1.91630  -1.91486
 Alpha  occ. eigenvalues --   -1.16434  -1.15708  -1.11046  -1.08742  -1.07858
 Alpha  occ. eigenvalues --   -1.05562  -1.04289  -1.03509  -1.03135  -1.02365
 Alpha  occ. eigenvalues --   -0.91471  -0.91026  -0.89890  -0.89173  -0.88681
 Alpha  occ. eigenvalues --   -0.88632  -0.87686  -0.87022  -0.86988  -0.86561
 Alpha  occ. eigenvalues --   -0.86294  -0.85191  -0.84416  -0.83480  -0.83047
 Alpha  occ. eigenvalues --   -0.82547  -0.81445  -0.80909  -0.80510  -0.80244
 Alpha  occ. eigenvalues --   -0.79775  -0.78178  -0.77459  -0.77054  -0.76344
 Alpha  occ. eigenvalues --   -0.75758  -0.75520  -0.75004  -0.74951  -0.74158
 Alpha  occ. eigenvalues --   -0.73373  -0.72528  -0.71319  -0.70292  -0.68970
 Alpha  occ. eigenvalues --   -0.68462  -0.67831  -0.66732  -0.66403  -0.65804
 Alpha  occ. eigenvalues --   -0.65399  -0.65044  -0.64765  -0.64048  -0.63981
 Alpha  occ. eigenvalues --   -0.63389  -0.63368  -0.62533  -0.62308  -0.59969
 Alpha  occ. eigenvalues --   -0.59681  -0.59430  -0.58814  -0.58434  -0.57588
 Alpha  occ. eigenvalues --   -0.57091  -0.56385  -0.56022  -0.55555  -0.55244
 Alpha  occ. eigenvalues --   -0.54894  -0.54651  -0.54398  -0.54289  -0.53982
 Alpha  occ. eigenvalues --   -0.53841  -0.53446  -0.53275  -0.53029  -0.52809
 Alpha  occ. eigenvalues --   -0.52184  -0.52056  -0.51710  -0.51547  -0.51526
 Alpha  occ. eigenvalues --   -0.51370  -0.51072  -0.51059  -0.50898  -0.50798
 Alpha  occ. eigenvalues --   -0.50512  -0.50289  -0.50177  -0.49809  -0.49558
 Alpha  occ. eigenvalues --   -0.49417  -0.49298  -0.49180  -0.49045  -0.48932
 Alpha  occ. eigenvalues --   -0.48622  -0.48351  -0.48185  -0.47966  -0.47804
 Alpha  occ. eigenvalues --   -0.47317  -0.47229  -0.47093  -0.46719  -0.46420
 Alpha  occ. eigenvalues --   -0.46319  -0.46090  -0.46039  -0.45924  -0.45764
 Alpha  occ. eigenvalues --   -0.45481  -0.45474  -0.45328  -0.45105  -0.45066
 Alpha  occ. eigenvalues --   -0.44947  -0.44556  -0.44419  -0.44193  -0.44024
 Alpha  occ. eigenvalues --   -0.43768  -0.43558  -0.43332  -0.43167  -0.43074
 Alpha  occ. eigenvalues --   -0.42874  -0.42824  -0.42648  -0.42476  -0.42169
 Alpha  occ. eigenvalues --   -0.41955  -0.41595  -0.41564  -0.41502  -0.41053
 Alpha  occ. eigenvalues --   -0.41032  -0.40894  -0.40601  -0.40292  -0.40162
 Alpha  occ. eigenvalues --   -0.39923  -0.39744  -0.39543  -0.38923  -0.38861
 Alpha  occ. eigenvalues --   -0.38526  -0.38445  -0.38149  -0.37612  -0.37334
 Alpha  occ. eigenvalues --   -0.36959  -0.36883  -0.36809  -0.36741  -0.36614
 Alpha  occ. eigenvalues --   -0.36253  -0.35849  -0.35305  -0.34483  -0.34325
 Alpha  occ. eigenvalues --   -0.34169  -0.33698  -0.32669  -0.31244  -0.31013
 Alpha  occ. eigenvalues --   -0.30855  -0.30617  -0.29958  -0.29601  -0.23683
 Alpha  occ. eigenvalues --   -0.20998
 Alpha virt. eigenvalues --   -0.08487  -0.01160   0.00651   0.02255   0.02776
 Alpha virt. eigenvalues --    0.03046   0.04821   0.05740   0.05750   0.06464
 Alpha virt. eigenvalues --    0.07498   0.07893   0.08333   0.08658   0.09085

 Mulliken charges:
               1
     1  Mg   0.832160
     2  C   -0.070347
     3  C   -0.070086
     4  C   -0.068684
     5  C   -0.080795
     6  N   -0.255169
     7  C   -0.034083
     8  C   -0.039037
     9  C   -0.069094
    10  C    0.063206
    11  C    0.057724
    12  C    0.039236
    13  C    0.151648
    14  C    0.144204
    15  O   -0.286714
    16  O   -0.321166
    17  N   -0.374046
    18  C    0.120936
    19  C   -0.185644
    20  C   -0.065378
    21  C    0.070527
    22  C    0.140342
    23  C    0.014295
    24  O   -0.191427
    25  C    0.037461
    26  N   -0.298736
    27  C    0.093915
    28  C   -0.031307
    29  C    0.016891
    30  C    0.019682
    31  C    0.046267
    32  C    0.043093
    33  C   -0.004421
    34  N   -0.346187
    35  C    0.114506
    36  C   -0.168529
    37  C   -0.063895
    38  C    0.144890
    39  C    0.120227
    40  C    0.143523
    41  O   -0.191005
    42  C    0.017196
    43  C    0.166874
    44  O   -0.183744
    45  O   -0.322919
    46  C    0.189201
    47  C    0.278390
    48  C   -0.111412
    49  C   -0.175335
    50  C    0.065791
    51  C    0.073712
    52  C    0.030194
    53  C    0.069188
    54  C   -0.167382
    55  C    0.071235
    56  C    0.043966
    57  C    0.030620
    58  C    0.065242
    59  C   -0.180890
    60  C    0.039195
    61  C    0.072476
    62  C   -0.014698
    63  C    0.053557
    64  C   -0.132476
    65  C    0.036152
    66  C    0.022386
    67  H   -0.042037
    68  H   -0.006808
    69  H   -0.028243
    70  H    0.020036
    71  H    0.009992
    72  H    0.017058
    73  H    0.039118
    74  H   -0.008010
    75  H    0.006855
    76  H    0.010905
    77  H    0.028899
    78  H    0.026565
    79  H    0.016074
    80  H    0.042650
    81  H    0.037387
    82  H    0.026737
    83  H    0.044160
    84  H    0.035844
    85  H    0.018368
    86  H    0.009584
    87  H    0.022123
    88  H    0.021425
    89  H    0.015925
    90  H    0.017806
    91  H    0.006739
    92  H    0.011302
    93  H    0.008139
    94  H    0.018223
    95  H    0.027519
    96  H    0.019797
    97  H    0.035258
    98  H    0.030126
    99  H    0.022587
   100  H    0.028881
   101  H    0.036623
   102  H    0.040315
   103  H    0.019173
   104  H   -0.003171
   105  H    0.015292
   106  H    0.020167
   107  H    0.036326
   108  H    0.009902
   109  H    0.001112
   110  H   -0.007051
   111  H    0.002784
   112  H   -0.002678
   113  H   -0.009440
   114  H   -0.012098
   115  H   -0.000578
   116  H   -0.000154
   117  H    0.009224
   118  H   -0.000480
   119  H   -0.011148
   120  H    0.007259
   121  H    0.013464
   122  H   -0.008767
   123  H   -0.016562
   124  H   -0.002613
   125  H    0.017536
   126  H    0.005246
   127  H    0.004120
   128  H   -0.002186
   129  H   -0.003551
   130  H   -0.012799
   131  H   -0.002542
   132  H   -0.007992
   133  H   -0.007402
   134  H    0.006277
   135  H    0.003601
   136  H    0.000841
   137  H    0.020665
   138  H    0.009320
   139  H   -0.006087
   140  H    0.011573
 Sum of Mulliken charges =  -0.00000

 Dipole moment (field-independent basis, Debye):
    X=             -5.6089    Y=              3.8754    Z=              1.5801  Tot=              6.9982
 Quadrupole moment (field-independent basis, Debye-Ang):
   XX=           -399.2168   YY=           -434.6601   ZZ=           -402.6666
   XY=             37.2233   XZ=             28.5819   YZ=             -1.0412

 Normal termination of Gaussian 16 at Fri Apr 29 03:13:23 2022.
