 Gaussian 16, Revision A.03,
 Gaussian 16:  ES64L-G16RevA.03 25-Dec-2016

 ---------------------------------
 #p PBE1PBE/Def2SVP td=(nstates=5)
 ---------------------------------

 ------------------------------------------------------
 step_1851_chromophore_21 TDDFT with PBE1PBE functional
 ------------------------------------------------------
 Symbolic Z-matrix:
 Charge =  0 Multiplicity = 1

                         Standard orientation:
 ---------------------------------------------------------------------
 Center     Atomic      Atomic             Coordinates (Angstroms)
 Number     Number       Type             X           Y           Z
 ---------------------------------------------------------------------
      1         12           0        4.965551    1.178741    0.342725
      2          6           0        4.839355   -2.427172    0.111773
      3          6           0        1.749941    1.160489   -0.790982
      4          6           0        5.242489    4.447265    0.227029
      5          6           0        8.453803    0.910251    0.528221
      6          7           0        3.378216   -0.447022   -0.062975
      7          6           0        3.569613   -1.830141   -0.107398
      8          6           0        2.149774   -2.516939   -0.122882
      9          6           0        1.261598   -1.333239   -0.730831
     10          6           0        2.169482   -0.119356   -0.521859
     11          6           0        1.133611   -1.527082   -2.320214
     12          6           0        1.788182   -2.958076    1.360204
     13          6           0        0.888810   -4.135451    1.695442
     14          6           0       -0.107435   -4.554672    0.566432
     15          8           0        0.156924   -5.334426   -0.382316
     16          8           0       -1.316811   -3.973001    0.667189
     17          7           0        3.608252    2.622856   -0.169441
     18          6           0        2.355211    2.442213   -0.659673
     19          6           0        1.718082    3.766265   -0.880248
     20          6           0        2.826981    4.666719   -0.687416
     21          6           0        3.946111    3.928421   -0.145523
     22          6           0        0.318411    4.034914   -1.309114
     23          6           0        2.872101    6.218317   -1.052949
     24          8           0        3.865714    6.908631   -0.940683
     25          6           0        1.571367    6.915469   -1.570166
     26          7           0        6.558470    2.538614    0.524594
     27          6           0        6.439708    3.855752    0.530033
     28          6           0        7.759439    4.584996    0.878244
     29          6           0        8.811422    3.418806    0.962309
     30          6           0        7.910020    2.221378    0.603484
     31          6           0        8.226383    5.740560   -0.129379
     32          6           0        9.624254    3.216699    2.334056
     33          6           0       11.056742    2.752351    2.266796
     34          7           0        6.386071   -0.378283    0.388957
     35          6           0        7.769093   -0.336357    0.504029
     36          6           0        8.331724   -1.653106    0.345911
     37          6           0        7.213857   -2.469437    0.190276
     38          6           0        6.029386   -1.668772    0.210535
     39          6           0        9.742224   -2.087141    0.366551
     40          6           0        6.835387   -3.926440   -0.046010
     41          8           0        7.523984   -4.959961   -0.204663
     42          6           0        5.244206   -3.914777   -0.042763
     43          6           0        4.637378   -4.502925   -1.326702
     44          8           0        5.064804   -4.158636   -2.390493
     45          8           0        3.667289   -5.463760   -1.090169
     46          6           0        3.093316   -5.976012   -2.327683
     47          6           0       -2.247571   -4.238064   -0.549979
     48          6           0       -3.531995   -3.415121   -0.319611
     49          6           0       -3.846621   -2.175342   -0.746155
     50          6           0       -2.871107   -1.280307   -1.579020
     51          6           0       -5.270023   -1.649402   -0.588751
     52          6           0       -5.606517   -1.110005    0.788229
     53          6           0       -6.822795   -1.855630    1.475085
     54          6           0       -8.129242   -1.060472    1.564283
     55          6           0       -8.376387   -0.680096    2.974405
     56          6           0       -9.375473   -1.766296    0.902392
     57          6           0      -10.473713   -0.777896    0.385115
     58          6           0      -11.893182   -1.020096    0.961010
     59          6           0      -12.726111    0.324851    1.171981
     60          6           0      -12.717326    0.794278    2.685811
     61          6           0      -14.167047    0.275101    0.724917
     62          6           0      -14.230827    0.593650   -0.802847
     63          6           0      -15.009476    1.894358   -1.096609
     64          6           0      -14.053928    3.154172   -1.119845
     65          6           0      -14.318540    4.145369    0.098363
     66          6           0      -14.158782    3.888665   -2.471263
     67          1           0        0.754333    1.220278   -1.236604
     68          1           0        5.155855    5.533752    0.154384
     69          1           0        9.544125    0.870921    0.479326
     70          1           0        2.229000   -3.430051   -0.712182
     71          1           0        0.221791   -1.315313   -0.403377
     72          1           0        1.584670   -2.497539   -2.524336
     73          1           0        1.489415   -0.600263   -2.769023
     74          1           0        0.132861   -1.797401   -2.658434
     75          1           0        1.408264   -2.059519    1.847963
     76          1           0        2.778017   -3.151030    1.773504
     77          1           0        0.357907   -3.977199    2.634008
     78          1           0        1.576100   -4.972688    1.817345
     79          1           0       -0.275483    3.126178   -1.212059
     80          1           0        0.384696    4.295257   -2.365719
     81          1           0       -0.012186    4.839555   -0.652877
     82          1           0        1.905127    7.892605   -1.920785
     83          1           0        0.991119    7.039917   -0.656243
     84          1           0        1.097496    6.398381   -2.403899
     85          1           0        7.621980    5.108643    1.823897
     86          1           0        9.500114    3.513931    0.122533
     87          1           0        7.342014    6.141384   -0.625218
     88          1           0        8.883579    5.475684   -0.957639
     89          1           0        8.586277    6.562635    0.490118
     90          1           0        9.111500    2.554868    3.031635
     91          1           0        9.718074    4.205324    2.783221
     92          1           0       11.112417    1.752458    2.699940
     93          1           0       11.717457    3.304308    2.935201
     94          1           0       11.515126    2.780537    1.278807
     95          1           0        9.742138   -3.130034    0.683649
     96          1           0       10.416246   -1.587424    1.061466
     97          1           0       10.112922   -2.109686   -0.659062
     98          1           0        4.892819   -4.530115    0.786029
     99          1           0        3.854276   -6.356664   -3.008910
    100          1           0        2.521444   -5.344925   -3.007658
    101          1           0        2.486863   -6.859762   -2.133969
    102          1           0       -2.519034   -5.276072   -0.742368
    103          1           0       -1.837130   -3.882508   -1.494545
    104          1           0       -4.412770   -4.006963   -0.068704
    105          1           0       -3.389919   -0.566154   -2.218430
    106          1           0       -2.225618   -1.921164   -2.179135
    107          1           0       -2.215299   -0.697338   -0.932253
    108          1           0       -5.850787   -2.552010   -0.780931
    109          1           0       -5.569398   -0.899448   -1.321256
    110          1           0       -5.730931   -0.033722    0.677775
    111          1           0       -4.762000   -1.124738    1.477248
    112          1           0       -6.515279   -2.134831    2.483499
    113          1           0       -7.103177   -2.741022    0.903991
    114          1           0       -8.008479   -0.096613    1.069296
    115          1           0       -8.190970   -1.501709    3.667939
    116          1           0       -9.445605   -0.469161    2.984860
    117          1           0       -7.702943    0.131413    3.248762
    118          1           0       -9.773695   -2.490562    1.612349
    119          1           0       -8.962583   -2.314417    0.056366
    120          1           0      -10.542563   -0.895954   -0.696491
    121          1           0      -10.189748    0.249678    0.615356
    122          1           0      -11.933315   -1.614568    1.874564
    123          1           0      -12.506884   -1.643209    0.311169
    124          1           0      -12.292039    1.188301    0.667381
    125          1           0      -12.677608    1.880731    2.619268
    126          1           0      -11.911397    0.291492    3.220740
    127          1           0      -13.619798    0.438013    3.184117
    128          1           0      -14.742478    1.039632    1.246404
    129          1           0      -14.566980   -0.734478    0.814304
    130          1           0      -14.642671   -0.252108   -1.353647
    131          1           0      -13.217556    0.711206   -1.186928
    132          1           0      -15.761596    1.998744   -0.314029
    133          1           0      -15.573857    1.757414   -2.019304
    134          1           0      -13.006353    2.855531   -1.160700
    135          1           0      -14.023236    5.159940   -0.170612
    136          1           0      -13.626527    3.853426    0.888428
    137          1           0      -15.319187    4.133092    0.530045
    138          1           0      -13.385553    4.643320   -2.611354
    139          1           0      -15.073904    4.481601   -2.467389
    140          1           0      -14.300564    3.176475   -3.284649
 ---------------------------------------------------------------------

 SCF Done:  E(RPBE1PBE) =  -3005.35335081     A.U. after   15 cycles

 Excitation energies and oscillator strengths:

 Excited State   1:      Singlet-A      1.8661 eV  664.41 nm  f=0.3557  <S**2>=0.000
     245 -> 248        0.17546
     246 -> 247        0.69322
     246 <- 247       -0.10647
 This state for optimization and/or second-order correction.
 Total Energy, E(TD-HF/TD-DFT) =  -3005.28477414
 Copying the excited state density for this state as the 1-particle RhoCI density.

 Excited State   2:      Singlet-A      2.2394 eV  553.66 nm  f=0.1366  <S**2>=0.000
     245 -> 247        0.65707
     246 -> 248       -0.25477

 Excited State   3:      Singlet-A      3.0565 eV  405.65 nm  f=0.0001  <S**2>=0.000
     242 -> 247        0.37768
     242 -> 249        0.13376
     243 -> 247        0.13713
     244 -> 247        0.55032

 Excited State   4:      Singlet-A      3.1083 eV  398.89 nm  f=0.0001  <S**2>=0.000
     242 -> 247       -0.39539
     242 -> 249       -0.10489
     243 -> 247       -0.38436
     244 -> 247        0.41015

 Excited State   5:      Singlet-A      3.1739 eV  390.64 nm  f=0.0056  <S**2>=0.000
     241 -> 247        0.25723
     242 -> 247       -0.35797
     243 -> 247        0.51277
     244 -> 247        0.14267

 The electronic state is 1-A.
 Alpha  occ. eigenvalues --  -46.92075 -19.26570 -19.26288 -19.20004 -19.19945
 Alpha  occ. eigenvalues --  -19.19601 -19.19559 -14.41421 -14.41392 -14.38929
 Alpha  occ. eigenvalues --  -14.38922 -10.36673 -10.36114 -10.33224 -10.32952
 Alpha  occ. eigenvalues --  -10.30911 -10.29190 -10.28655 -10.28268 -10.28002
 Alpha  occ. eigenvalues --  -10.27840 -10.27803 -10.27644 -10.27210 -10.26561
 Alpha  occ. eigenvalues --  -10.26420 -10.26399 -10.26368 -10.26331 -10.26249
 Alpha  occ. eigenvalues --  -10.26153 -10.26140 -10.26042 -10.25517 -10.25076
 Alpha  occ. eigenvalues --  -10.25019 -10.24891 -10.24874 -10.24471 -10.24451
 Alpha  occ. eigenvalues --  -10.24369 -10.24189 -10.24094 -10.24013 -10.23877
 Alpha  occ. eigenvalues --  -10.23825 -10.23399 -10.23319 -10.23315 -10.23314
 Alpha  occ. eigenvalues --  -10.23231 -10.23205 -10.23111 -10.22975 -10.22966
 Alpha  occ. eigenvalues --  -10.22942 -10.22843 -10.22823 -10.22779 -10.22523
 Alpha  occ. eigenvalues --  -10.22510 -10.22002 -10.21947 -10.21772 -10.21750
 Alpha  occ. eigenvalues --  -10.21581  -3.14166  -1.87019  -1.86532  -1.86392
 Alpha  occ. eigenvalues --   -1.11192  -1.10507  -1.05761  -1.03561  -1.02619
 Alpha  occ. eigenvalues --   -1.00419  -0.98912  -0.98115  -0.97823  -0.97045
 Alpha  occ. eigenvalues --   -0.85801  -0.85165  -0.83987  -0.83287  -0.82920
 Alpha  occ. eigenvalues --   -0.82870  -0.81956  -0.81270  -0.81119  -0.80879
 Alpha  occ. eigenvalues --   -0.80640  -0.79395  -0.78614  -0.77746  -0.77252
 Alpha  occ. eigenvalues --   -0.76843  -0.75666  -0.75050  -0.74701  -0.74425
 Alpha  occ. eigenvalues --   -0.74110  -0.72479  -0.71736  -0.71376  -0.70526
 Alpha  occ. eigenvalues --   -0.70082  -0.69597  -0.69338  -0.69115  -0.68316
 Alpha  occ. eigenvalues --   -0.67660  -0.67000  -0.65729  -0.64630  -0.63332
 Alpha  occ. eigenvalues --   -0.62702  -0.62302  -0.60992  -0.60785  -0.60017
 Alpha  occ. eigenvalues --   -0.59819  -0.59520  -0.59338  -0.58568  -0.58136
 Alpha  occ. eigenvalues --   -0.57900  -0.57545  -0.56902  -0.56749  -0.54503
 Alpha  occ. eigenvalues --   -0.54073  -0.53934  -0.53402  -0.53068  -0.52121
 Alpha  occ. eigenvalues --   -0.51600  -0.50812  -0.50599  -0.50050  -0.49738
 Alpha  occ. eigenvalues --   -0.49486  -0.49227  -0.48785  -0.48671  -0.48445
 Alpha  occ. eigenvalues --   -0.48387  -0.47838  -0.47792  -0.47563  -0.47381
 Alpha  occ. eigenvalues --   -0.46772  -0.46616  -0.46275  -0.46103  -0.46045
 Alpha  occ. eigenvalues --   -0.45891  -0.45650  -0.45554  -0.45420  -0.45315
 Alpha  occ. eigenvalues --   -0.45067  -0.44921  -0.44861  -0.44386  -0.44102
 Alpha  occ. eigenvalues --   -0.44004  -0.43816  -0.43742  -0.43610  -0.43488
 Alpha  occ. eigenvalues --   -0.43192  -0.43009  -0.42798  -0.42595  -0.42448
 Alpha  occ. eigenvalues --   -0.41968  -0.41945  -0.41752  -0.41365  -0.41090
 Alpha  occ. eigenvalues --   -0.41005  -0.40813  -0.40714  -0.40665  -0.40490
 Alpha  occ. eigenvalues --   -0.40203  -0.40090  -0.40054  -0.39851  -0.39775
 Alpha  occ. eigenvalues --   -0.39713  -0.39339  -0.39174  -0.38933  -0.38704
 Alpha  occ. eigenvalues --   -0.38531  -0.38333  -0.38105  -0.37992  -0.37895
 Alpha  occ. eigenvalues --   -0.37717  -0.37590  -0.37399  -0.37268  -0.36936
 Alpha  occ. eigenvalues --   -0.36820  -0.36424  -0.36388  -0.36308  -0.35919
 Alpha  occ. eigenvalues --   -0.35794  -0.35787  -0.35439  -0.35059  -0.35029
 Alpha  occ. eigenvalues --   -0.34897  -0.34555  -0.34314  -0.33842  -0.33589
 Alpha  occ. eigenvalues --   -0.33426  -0.33299  -0.32961  -0.32410  -0.32342
 Alpha  occ. eigenvalues --   -0.31922  -0.31836  -0.31737  -0.31658  -0.31593
 Alpha  occ. eigenvalues --   -0.31290  -0.30731  -0.30276  -0.29513  -0.29423
 Alpha  occ. eigenvalues --   -0.29087  -0.28530  -0.28212  -0.26656  -0.26283
 Alpha  occ. eigenvalues --   -0.25928  -0.25626  -0.25472  -0.25210  -0.20644
 Alpha  occ. eigenvalues --   -0.18624
 Alpha virt. eigenvalues --   -0.10944  -0.04670  -0.03645  -0.02121  -0.01445
 Alpha virt. eigenvalues --   -0.00223   0.00259   0.01024   0.01571   0.03229
 Alpha virt. eigenvalues --    0.03323   0.04225   0.04585   0.05079   0.05685

 Mulliken charges:
               1
     1  Mg   0.979538
     2  C   -0.076129
     3  C   -0.064951
     4  C   -0.067441
     5  C   -0.072335
     6  N   -0.353386
     7  C    0.032467
     8  C   -0.115419
     9  C   -0.151028
    10  C    0.095197
    11  C    0.001973
    12  C   -0.002998
    13  C    0.072083
    14  C    0.207782
    15  O   -0.316706
    16  O   -0.348356
    17  N   -0.496058
    18  C    0.152179
    19  C   -0.210683
    20  C   -0.114751
    21  C    0.112962
    22  C    0.072555
    23  C    0.066669
    24  O   -0.228057
    25  C   -0.039144
    26  N   -0.404757
    27  C    0.126817
    28  C   -0.101191
    29  C   -0.054838
    30  C    0.053340
    31  C   -0.012055
    32  C   -0.020642
    33  C   -0.075058
    34  N   -0.472765
    35  C    0.139319
    36  C   -0.193922
    37  C   -0.112406
    38  C    0.198004
    39  C    0.065269
    40  C    0.238657
    41  O   -0.235466
    42  C   -0.086839
    43  C    0.251847
    44  O   -0.216294
    45  O   -0.355925
    46  C    0.130247
    47  C    0.230961
    48  C   -0.120197
    49  C   -0.216756
    50  C   -0.000604
    51  C    0.009066
    52  C   -0.026485
    53  C    0.010764
    54  C   -0.246719
    55  C    0.003279
    56  C   -0.014036
    57  C   -0.035754
    58  C    0.016455
    59  C   -0.269080
    60  C   -0.026481
    61  C    0.017663
    62  C   -0.077347
    63  C   -0.001551
    64  C   -0.221576
    65  C   -0.028182
    66  C   -0.039932
    67  H   -0.008712
    68  H    0.027326
    69  H    0.006429
    70  H    0.066560
    71  H    0.050009
    72  H    0.045669
    73  H    0.066390
    74  H    0.022923
    75  H    0.039525
    76  H    0.046494
    77  H    0.060190
    78  H    0.059213
    79  H    0.043899
    80  H    0.070571
    81  H    0.065602
    82  H    0.054560
    83  H    0.071284
    84  H    0.061788
    85  H    0.054795
    86  H    0.046965
    87  H    0.050321
    88  H    0.047742
    89  H    0.043602
    90  H    0.049827
    91  H    0.040688
    92  H    0.038852
    93  H    0.036480
    94  H    0.044448
    95  H    0.055730
    96  H    0.045889
    97  H    0.063826
    98  H    0.066901
    99  H    0.045443
   100  H    0.051402
   101  H    0.058795
   102  H    0.065735
   103  H    0.045870
   104  H    0.026313
   105  H    0.042186
   106  H    0.048865
   107  H    0.064045
   108  H    0.042032
   109  H    0.032681
   110  H    0.024532
   111  H    0.035299
   112  H    0.029807
   113  H    0.022286
   114  H    0.026353
   115  H    0.027382
   116  H    0.035352
   117  H    0.037959
   118  H    0.031716
   119  H    0.022709
   120  H    0.040141
   121  H    0.044589
   122  H    0.022050
   123  H    0.016744
   124  H    0.037559
   125  H    0.046441
   126  H    0.035372
   127  H    0.032329
   128  H    0.030584
   129  H    0.029653
   130  H    0.019857
   131  H    0.031468
   132  H    0.024404
   133  H    0.024314
   134  H    0.042162
   135  H    0.031353
   136  H    0.031339
   137  H    0.046555
   138  H    0.037030
   139  H    0.023142
   140  H    0.039572
 Sum of Mulliken charges =  -0.00000

 Dipole moment (field-independent basis, Debye):
    X=             -5.5051    Y=              3.8682    Z=              1.6356  Tot=              6.9241
 Quadrupole moment (field-independent basis, Debye-Ang):
   XX=           -392.1532   YY=           -431.8013   ZZ=           -400.1921
   XY=             38.0934   XZ=             29.3585   YZ=             -0.6393

 Normal termination of Gaussian 16 at Fri Apr 29 03:31:33 2022.
