 Gaussian 16, Revision A.03,
 Gaussian 16:  ES64L-G16RevA.03 25-Dec-2016

 --------------------------------
 #p wB97XD/Def2SVP td=(nstates=5)
 --------------------------------

 -----------------------------------------------------
 step_1851_chromophore_21 TDDFT with wB97XD functional
 -----------------------------------------------------
 Symbolic Z-matrix:
 Charge =  0 Multiplicity = 1

                         Standard orientation:
 ---------------------------------------------------------------------
 Center     Atomic      Atomic             Coordinates (Angstroms)
 Number     Number       Type             X           Y           Z
 ---------------------------------------------------------------------
      1         12           0        4.965551    1.178741    0.342725
      2          6           0        4.839355   -2.427172    0.111773
      3          6           0        1.749941    1.160489   -0.790982
      4          6           0        5.242489    4.447265    0.227029
      5          6           0        8.453803    0.910251    0.528221
      6          7           0        3.378216   -0.447022   -0.062975
      7          6           0        3.569613   -1.830141   -0.107398
      8          6           0        2.149774   -2.516939   -0.122882
      9          6           0        1.261598   -1.333239   -0.730831
     10          6           0        2.169482   -0.119356   -0.521859
     11          6           0        1.133611   -1.527082   -2.320214
     12          6           0        1.788182   -2.958076    1.360204
     13          6           0        0.888810   -4.135451    1.695442
     14          6           0       -0.107435   -4.554672    0.566432
     15          8           0        0.156924   -5.334426   -0.382316
     16          8           0       -1.316811   -3.973001    0.667189
     17          7           0        3.608252    2.622856   -0.169441
     18          6           0        2.355211    2.442213   -0.659673
     19          6           0        1.718082    3.766265   -0.880248
     20          6           0        2.826981    4.666719   -0.687416
     21          6           0        3.946111    3.928421   -0.145523
     22          6           0        0.318411    4.034914   -1.309114
     23          6           0        2.872101    6.218317   -1.052949
     24          8           0        3.865714    6.908631   -0.940683
     25          6           0        1.571367    6.915469   -1.570166
     26          7           0        6.558470    2.538614    0.524594
     27          6           0        6.439708    3.855752    0.530033
     28          6           0        7.759439    4.584996    0.878244
     29          6           0        8.811422    3.418806    0.962309
     30          6           0        7.910020    2.221378    0.603484
     31          6           0        8.226383    5.740560   -0.129379
     32          6           0        9.624254    3.216699    2.334056
     33          6           0       11.056742    2.752351    2.266796
     34          7           0        6.386071   -0.378283    0.388957
     35          6           0        7.769093   -0.336357    0.504029
     36          6           0        8.331724   -1.653106    0.345911
     37          6           0        7.213857   -2.469437    0.190276
     38          6           0        6.029386   -1.668772    0.210535
     39          6           0        9.742224   -2.087141    0.366551
     40          6           0        6.835387   -3.926440   -0.046010
     41          8           0        7.523984   -4.959961   -0.204663
     42          6           0        5.244206   -3.914777   -0.042763
     43          6           0        4.637378   -4.502925   -1.326702
     44          8           0        5.064804   -4.158636   -2.390493
     45          8           0        3.667289   -5.463760   -1.090169
     46          6           0        3.093316   -5.976012   -2.327683
     47          6           0       -2.247571   -4.238064   -0.549979
     48          6           0       -3.531995   -3.415121   -0.319611
     49          6           0       -3.846621   -2.175342   -0.746155
     50          6           0       -2.871107   -1.280307   -1.579020
     51          6           0       -5.270023   -1.649402   -0.588751
     52          6           0       -5.606517   -1.110005    0.788229
     53          6           0       -6.822795   -1.855630    1.475085
     54          6           0       -8.129242   -1.060472    1.564283
     55          6           0       -8.376387   -0.680096    2.974405
     56          6           0       -9.375473   -1.766296    0.902392
     57          6           0      -10.473713   -0.777896    0.385115
     58          6           0      -11.893182   -1.020096    0.961010
     59          6           0      -12.726111    0.324851    1.171981
     60          6           0      -12.717326    0.794278    2.685811
     61          6           0      -14.167047    0.275101    0.724917
     62          6           0      -14.230827    0.593650   -0.802847
     63          6           0      -15.009476    1.894358   -1.096609
     64          6           0      -14.053928    3.154172   -1.119845
     65          6           0      -14.318540    4.145369    0.098363
     66          6           0      -14.158782    3.888665   -2.471263
     67          1           0        0.754333    1.220278   -1.236604
     68          1           0        5.155855    5.533752    0.154384
     69          1           0        9.544125    0.870921    0.479326
     70          1           0        2.229000   -3.430051   -0.712182
     71          1           0        0.221791   -1.315313   -0.403377
     72          1           0        1.584670   -2.497539   -2.524336
     73          1           0        1.489415   -0.600263   -2.769023
     74          1           0        0.132861   -1.797401   -2.658434
     75          1           0        1.408264   -2.059519    1.847963
     76          1           0        2.778017   -3.151030    1.773504
     77          1           0        0.357907   -3.977199    2.634008
     78          1           0        1.576100   -4.972688    1.817345
     79          1           0       -0.275483    3.126178   -1.212059
     80          1           0        0.384696    4.295257   -2.365719
     81          1           0       -0.012186    4.839555   -0.652877
     82          1           0        1.905127    7.892605   -1.920785
     83          1           0        0.991119    7.039917   -0.656243
     84          1           0        1.097496    6.398381   -2.403899
     85          1           0        7.621980    5.108643    1.823897
     86          1           0        9.500114    3.513931    0.122533
     87          1           0        7.342014    6.141384   -0.625218
     88          1           0        8.883579    5.475684   -0.957639
     89          1           0        8.586277    6.562635    0.490118
     90          1           0        9.111500    2.554868    3.031635
     91          1           0        9.718074    4.205324    2.783221
     92          1           0       11.112417    1.752458    2.699940
     93          1           0       11.717457    3.304308    2.935201
     94          1           0       11.515126    2.780537    1.278807
     95          1           0        9.742138   -3.130034    0.683649
     96          1           0       10.416246   -1.587424    1.061466
     97          1           0       10.112922   -2.109686   -0.659062
     98          1           0        4.892819   -4.530115    0.786029
     99          1           0        3.854276   -6.356664   -3.008910
    100          1           0        2.521444   -5.344925   -3.007658
    101          1           0        2.486863   -6.859762   -2.133969
    102          1           0       -2.519034   -5.276072   -0.742368
    103          1           0       -1.837130   -3.882508   -1.494545
    104          1           0       -4.412770   -4.006963   -0.068704
    105          1           0       -3.389919   -0.566154   -2.218430
    106          1           0       -2.225618   -1.921164   -2.179135
    107          1           0       -2.215299   -0.697338   -0.932253
    108          1           0       -5.850787   -2.552010   -0.780931
    109          1           0       -5.569398   -0.899448   -1.321256
    110          1           0       -5.730931   -0.033722    0.677775
    111          1           0       -4.762000   -1.124738    1.477248
    112          1           0       -6.515279   -2.134831    2.483499
    113          1           0       -7.103177   -2.741022    0.903991
    114          1           0       -8.008479   -0.096613    1.069296
    115          1           0       -8.190970   -1.501709    3.667939
    116          1           0       -9.445605   -0.469161    2.984860
    117          1           0       -7.702943    0.131413    3.248762
    118          1           0       -9.773695   -2.490562    1.612349
    119          1           0       -8.962583   -2.314417    0.056366
    120          1           0      -10.542563   -0.895954   -0.696491
    121          1           0      -10.189748    0.249678    0.615356
    122          1           0      -11.933315   -1.614568    1.874564
    123          1           0      -12.506884   -1.643209    0.311169
    124          1           0      -12.292039    1.188301    0.667381
    125          1           0      -12.677608    1.880731    2.619268
    126          1           0      -11.911397    0.291492    3.220740
    127          1           0      -13.619798    0.438013    3.184117
    128          1           0      -14.742478    1.039632    1.246404
    129          1           0      -14.566980   -0.734478    0.814304
    130          1           0      -14.642671   -0.252108   -1.353647
    131          1           0      -13.217556    0.711206   -1.186928
    132          1           0      -15.761596    1.998744   -0.314029
    133          1           0      -15.573857    1.757414   -2.019304
    134          1           0      -13.006353    2.855531   -1.160700
    135          1           0      -14.023236    5.159940   -0.170612
    136          1           0      -13.626527    3.853426    0.888428
    137          1           0      -15.319187    4.133092    0.530045
    138          1           0      -13.385553    4.643320   -2.611354
    139          1           0      -15.073904    4.481601   -2.467389
    140          1           0      -14.300564    3.176475   -3.284649
 ---------------------------------------------------------------------

 SCF Done:  E(RwB97XD) =  -3007.86669731     A.U. after   20 cycles

 Excitation energies and oscillator strengths:

 Excited State   1:      Singlet-A      1.6451 eV  753.66 nm  f=0.3654  <S**2>=0.000
     245 -> 248        0.18771
     246 -> 247        0.68397
     245 <- 248        0.12034
 This state for optimization and/or second-order correction.
 Total Energy, E(TD-HF/TD-DFT) =  -3007.80624123
 Copying the excited state density for this state as the 1-particle RhoCI density.

 Excited State   2:      Singlet-A      2.1713 eV  571.02 nm  f=0.1368  <S**2>=0.000
     245 -> 247        0.64499
     246 -> 248       -0.28054

 Excited State   3:      Singlet-A      3.4475 eV  359.63 nm  f=0.0005  <S**2>=0.000
     243 -> 247       -0.22397
     244 -> 247        0.64877

 Excited State   4:      Singlet-A      3.5505 eV  349.20 nm  f=0.0994  <S**2>=0.000
     241 -> 247       -0.10346
     242 -> 247        0.22284
     242 -> 249        0.17086
     242 -> 250       -0.10727
     243 -> 247        0.47367
     244 -> 247        0.13810
     246 -> 248        0.34138

 Excited State   5:      Singlet-A      3.5979 eV  344.60 nm  f=0.0185  <S**2>=0.000
     241 -> 247       -0.13655
     242 -> 247        0.44666
     242 -> 249        0.30414
     242 -> 250       -0.16280
     243 -> 247       -0.25798
     244 -> 247       -0.15645
     246 -> 248       -0.16182

 The electronic state is 1-A.
 Alpha  occ. eigenvalues --  -46.95017 -19.31127 -19.30856 -19.24841 -19.24669
 Alpha  occ. eigenvalues --  -19.24379 -19.24220 -14.46513 -14.46496 -14.43891
 Alpha  occ. eigenvalues --  -14.43842 -10.43422 -10.42935 -10.40077 -10.39811
 Alpha  occ. eigenvalues --  -10.37461 -10.35450 -10.34863 -10.34629 -10.34348
 Alpha  occ. eigenvalues --  -10.34342 -10.34212 -10.34043 -10.33453 -10.32943
 Alpha  occ. eigenvalues --  -10.32839 -10.32755 -10.32730 -10.32629 -10.32551
 Alpha  occ. eigenvalues --  -10.32407 -10.32359 -10.32227 -10.31931 -10.31515
 Alpha  occ. eigenvalues --  -10.31454 -10.31412 -10.31221 -10.30930 -10.30829
 Alpha  occ. eigenvalues --  -10.30648 -10.30620 -10.30453 -10.30377 -10.30367
 Alpha  occ. eigenvalues --  -10.30246 -10.29749 -10.29710 -10.29698 -10.29675
 Alpha  occ. eigenvalues --  -10.29607 -10.29501 -10.29382 -10.29364 -10.29342
 Alpha  occ. eigenvalues --  -10.29332 -10.29172 -10.29151 -10.29116 -10.28933
 Alpha  occ. eigenvalues --  -10.28869 -10.28370 -10.28295 -10.28193 -10.28187
 Alpha  occ. eigenvalues --  -10.28035  -3.20969  -1.94570  -1.94085  -1.93942
 Alpha  occ. eigenvalues --   -1.18591  -1.17879  -1.13272  -1.10938  -1.10112
 Alpha  occ. eigenvalues --   -1.07750  -1.06297  -1.05518  -1.05178  -1.04405
 Alpha  occ. eigenvalues --   -0.93429  -0.92833  -0.91662  -0.90952  -0.90524
 Alpha  occ. eigenvalues --   -0.90515  -0.89606  -0.88938  -0.88789  -0.88484
 Alpha  occ. eigenvalues --   -0.88240  -0.87054  -0.86272  -0.85336  -0.84905
 Alpha  occ. eigenvalues --   -0.84475  -0.83376  -0.82777  -0.82401  -0.82097
 Alpha  occ. eigenvalues --   -0.81733  -0.80156  -0.79376  -0.78978  -0.78202
 Alpha  occ. eigenvalues --   -0.77697  -0.77303  -0.76920  -0.76798  -0.75989
 Alpha  occ. eigenvalues --   -0.75282  -0.74522  -0.73283  -0.72231  -0.70879
 Alpha  occ. eigenvalues --   -0.70340  -0.69836  -0.68614  -0.68392  -0.67660
 Alpha  occ. eigenvalues --   -0.67318  -0.67040  -0.66780  -0.65986  -0.65837
 Alpha  occ. eigenvalues --   -0.65358  -0.65204  -0.64376  -0.64296  -0.61972
 Alpha  occ. eigenvalues --   -0.61596  -0.61393  -0.60810  -0.60422  -0.59558
 Alpha  occ. eigenvalues --   -0.59076  -0.58293  -0.57996  -0.57482  -0.57173
 Alpha  occ. eigenvalues --   -0.56873  -0.56613  -0.56266  -0.56151  -0.55844
 Alpha  occ. eigenvalues --   -0.55776  -0.55371  -0.55197  -0.54928  -0.54775
 Alpha  occ. eigenvalues --   -0.54131  -0.53970  -0.53615  -0.53430  -0.53403
 Alpha  occ. eigenvalues --   -0.53255  -0.53001  -0.52927  -0.52842  -0.52761
 Alpha  occ. eigenvalues --   -0.52401  -0.52207  -0.52133  -0.51694  -0.51432
 Alpha  occ. eigenvalues --   -0.51337  -0.51223  -0.51068  -0.50961  -0.50842
 Alpha  occ. eigenvalues --   -0.50539  -0.50324  -0.50126  -0.49884  -0.49745
 Alpha  occ. eigenvalues --   -0.49203  -0.49169  -0.48982  -0.48606  -0.48309
 Alpha  occ. eigenvalues --   -0.48270  -0.48020  -0.47904  -0.47835  -0.47687
 Alpha  occ. eigenvalues --   -0.47378  -0.47308  -0.47236  -0.47020  -0.46954
 Alpha  occ. eigenvalues --   -0.46865  -0.46471  -0.46338  -0.46118  -0.45885
 Alpha  occ. eigenvalues --   -0.45683  -0.45470  -0.45270  -0.45175  -0.45018
 Alpha  occ. eigenvalues --   -0.44810  -0.44731  -0.44585  -0.44393  -0.44056
 Alpha  occ. eigenvalues --   -0.43884  -0.43571  -0.43438  -0.43387  -0.42935
 Alpha  occ. eigenvalues --   -0.42893  -0.42800  -0.42500  -0.42141  -0.42047
 Alpha  occ. eigenvalues --   -0.41834  -0.41648  -0.41409  -0.40835  -0.40686
 Alpha  occ. eigenvalues --   -0.40380  -0.40339  -0.39987  -0.39449  -0.39262
 Alpha  occ. eigenvalues --   -0.39001  -0.38871  -0.38686  -0.38595  -0.38567
 Alpha  occ. eigenvalues --   -0.38314  -0.37686  -0.37154  -0.36331  -0.36322
 Alpha  occ. eigenvalues --   -0.36136  -0.35621  -0.34919  -0.33339  -0.33035
 Alpha  occ. eigenvalues --   -0.32912  -0.32646  -0.32140  -0.31773  -0.25600
 Alpha  occ. eigenvalues --   -0.22809
 Alpha virt. eigenvalues --   -0.06841   0.00738   0.02695   0.04397   0.05233
 Alpha virt. eigenvalues --    0.05818   0.07118   0.07863   0.08156   0.09490
 Alpha virt. eigenvalues --    0.10014   0.10747   0.11369   0.11763   0.12355

 Mulliken charges:
               1
     1  Mg   0.969185
     2  C   -0.082674
     3  C   -0.081698
     4  C   -0.078591
     5  C   -0.086583
     6  N   -0.321452
     7  C    0.005478
     8  C   -0.074377
     9  C   -0.124810
    10  C    0.086544
    11  C    0.017621
    12  C    0.004390
    13  C    0.089842
    14  C    0.194800
    15  O   -0.314262
    16  O   -0.348261
    17  N   -0.460744
    18  C    0.141816
    19  C   -0.201024
    20  C   -0.108618
    21  C    0.099039
    22  C    0.089008
    23  C    0.061575
    24  O   -0.222876
    25  C   -0.026040
    26  N   -0.372806
    27  C    0.115573
    28  C   -0.082260
    29  C   -0.030172
    30  C    0.041423
    31  C   -0.000026
    32  C   -0.005304
    33  C   -0.061518
    34  N   -0.434046
    35  C    0.129234
    36  C   -0.185285
    37  C   -0.107215
    38  C    0.179782
    39  C    0.074612
    40  C    0.216740
    41  O   -0.225546
    42  C   -0.050499
    43  C    0.233006
    44  O   -0.212419
    45  O   -0.353742
    46  C    0.145319
    47  C    0.248459
    48  C   -0.130656
    49  C   -0.202507
    50  C    0.019752
    51  C    0.029931
    52  C   -0.015660
    53  C    0.029165
    54  C   -0.219431
    55  C    0.023543
    56  C    0.003715
    57  C   -0.016898
    58  C    0.025694
    59  C   -0.231155
    60  C   -0.009757
    61  C    0.030042
    62  C   -0.055822
    63  C    0.012095
    64  C   -0.195333
    65  C   -0.013581
    66  C   -0.026115
    67  H   -0.017901
    68  H    0.018633
    69  H   -0.001369
    70  H    0.036527
    71  H    0.036865
    72  H    0.038798
    73  H    0.059529
    74  H    0.013703
    75  H    0.031873
    76  H    0.034834
    77  H    0.056586
    78  H    0.054189
    79  H    0.039764
    80  H    0.064975
    81  H    0.059362
    82  H    0.053164
    83  H    0.066369
    84  H    0.056686
    85  H    0.046251
    86  H    0.034711
    87  H    0.043311
    88  H    0.043066
    89  H    0.038273
    90  H    0.042570
    91  H    0.031859
    92  H    0.032353
    93  H    0.031550
    94  H    0.038824
    95  H    0.050981
    96  H    0.041530
    97  H    0.059338
    98  H    0.061359
    99  H    0.040569
   100  H    0.047216
   101  H    0.056702
   102  H    0.063036
   103  H    0.038356
   104  H    0.021773
   105  H    0.037992
   106  H    0.036151
   107  H    0.056946
   108  H    0.030604
   109  H    0.026973
   110  H    0.017014
   111  H    0.027751
   112  H    0.022159
   113  H    0.009969
   114  H    0.011621
   115  H    0.020411
   116  H    0.019234
   117  H    0.032270
   118  H    0.022552
   119  H    0.013311
   120  H    0.033610
   121  H    0.033404
   122  H    0.013111
   123  H    0.008276
   124  H    0.016724
   125  H    0.039888
   126  H    0.027683
   127  H    0.025744
   128  H    0.018163
   129  H    0.021911
   130  H    0.013763
   131  H    0.016528
   132  H    0.014038
   133  H    0.017538
   134  H    0.030627
   135  H    0.025904
   136  H    0.022667
   137  H    0.041214
   138  H    0.031858
   139  H    0.015329
   140  H    0.033230
 Sum of Mulliken charges =  -0.00000

 Dipole moment (field-independent basis, Debye):
    X=             -5.6846    Y=              3.9797    Z=              1.5990  Tot=              7.1211
 Quadrupole moment (field-independent basis, Debye-Ang):
   XX=           -394.2117   YY=           -430.4282   ZZ=           -399.7114
   XY=             37.4272   XZ=             29.2557   YZ=             -1.1961

 Normal termination of Gaussian 16 at Fri Apr 29 03:59:17 2022.
