 Gaussian 16, Revision A.03,
 Gaussian 16:  ES64L-G16RevA.03 25-Dec-2016

 --------------------
 #p ZINDO=(nstates=5)
 --------------------

 ------------------------------
 step_1851_chromophore_21 ZINDO
 ------------------------------
 Symbolic Z-matrix:
 Charge =  0 Multiplicity = 1

                         Standard orientation:
 ---------------------------------------------------------------------
 Center     Atomic      Atomic             Coordinates (Angstroms)
 Number     Number       Type             X           Y           Z
 ---------------------------------------------------------------------
      1         12           0        4.965551    1.178741    0.342725
      2          6           0        4.839355   -2.427172    0.111773
      3          6           0        1.749941    1.160489   -0.790982
      4          6           0        5.242489    4.447265    0.227029
      5          6           0        8.453803    0.910251    0.528221
      6          7           0        3.378216   -0.447022   -0.062975
      7          6           0        3.569613   -1.830141   -0.107398
      8          6           0        2.149774   -2.516939   -0.122882
      9          6           0        1.261598   -1.333239   -0.730831
     10          6           0        2.169482   -0.119356   -0.521859
     11          6           0        1.133611   -1.527082   -2.320214
     12          6           0        1.788182   -2.958076    1.360204
     13          6           0        0.888810   -4.135451    1.695442
     14          6           0       -0.107435   -4.554672    0.566432
     15          8           0        0.156924   -5.334426   -0.382316
     16          8           0       -1.316811   -3.973001    0.667189
     17          7           0        3.608252    2.622856   -0.169441
     18          6           0        2.355211    2.442213   -0.659673
     19          6           0        1.718082    3.766265   -0.880248
     20          6           0        2.826981    4.666719   -0.687416
     21          6           0        3.946111    3.928421   -0.145523
     22          6           0        0.318411    4.034914   -1.309114
     23          6           0        2.872101    6.218317   -1.052949
     24          8           0        3.865714    6.908631   -0.940683
     25          6           0        1.571367    6.915469   -1.570166
     26          7           0        6.558470    2.538614    0.524594
     27          6           0        6.439708    3.855752    0.530033
     28          6           0        7.759439    4.584996    0.878244
     29          6           0        8.811422    3.418806    0.962309
     30          6           0        7.910020    2.221378    0.603484
     31          6           0        8.226383    5.740560   -0.129379
     32          6           0        9.624254    3.216699    2.334056
     33          6           0       11.056742    2.752351    2.266796
     34          7           0        6.386071   -0.378283    0.388957
     35          6           0        7.769093   -0.336357    0.504029
     36          6           0        8.331724   -1.653106    0.345911
     37          6           0        7.213857   -2.469437    0.190276
     38          6           0        6.029386   -1.668772    0.210535
     39          6           0        9.742224   -2.087141    0.366551
     40          6           0        6.835387   -3.926440   -0.046010
     41          8           0        7.523984   -4.959961   -0.204663
     42          6           0        5.244206   -3.914777   -0.042763
     43          6           0        4.637378   -4.502925   -1.326702
     44          8           0        5.064804   -4.158636   -2.390493
     45          8           0        3.667289   -5.463760   -1.090169
     46          6           0        3.093316   -5.976012   -2.327683
     47          6           0       -2.247571   -4.238064   -0.549979
     48          6           0       -3.531995   -3.415121   -0.319611
     49          6           0       -3.846621   -2.175342   -0.746155
     50          6           0       -2.871107   -1.280307   -1.579020
     51          6           0       -5.270023   -1.649402   -0.588751
     52          6           0       -5.606517   -1.110005    0.788229
     53          6           0       -6.822795   -1.855630    1.475085
     54          6           0       -8.129242   -1.060472    1.564283
     55          6           0       -8.376387   -0.680096    2.974405
     56          6           0       -9.375473   -1.766296    0.902392
     57          6           0      -10.473713   -0.777896    0.385115
     58          6           0      -11.893182   -1.020096    0.961010
     59          6           0      -12.726111    0.324851    1.171981
     60          6           0      -12.717326    0.794278    2.685811
     61          6           0      -14.167047    0.275101    0.724917
     62          6           0      -14.230827    0.593650   -0.802847
     63          6           0      -15.009476    1.894358   -1.096609
     64          6           0      -14.053928    3.154172   -1.119845
     65          6           0      -14.318540    4.145369    0.098363
     66          6           0      -14.158782    3.888665   -2.471263
     67          1           0        0.754333    1.220278   -1.236604
     68          1           0        5.155855    5.533752    0.154384
     69          1           0        9.544125    0.870921    0.479326
     70          1           0        2.229000   -3.430051   -0.712182
     71          1           0        0.221791   -1.315313   -0.403377
     72          1           0        1.584670   -2.497539   -2.524336
     73          1           0        1.489415   -0.600263   -2.769023
     74          1           0        0.132861   -1.797401   -2.658434
     75          1           0        1.408264   -2.059519    1.847963
     76          1           0        2.778017   -3.151030    1.773504
     77          1           0        0.357907   -3.977199    2.634008
     78          1           0        1.576100   -4.972688    1.817345
     79          1           0       -0.275483    3.126178   -1.212059
     80          1           0        0.384696    4.295257   -2.365719
     81          1           0       -0.012186    4.839555   -0.652877
     82          1           0        1.905127    7.892605   -1.920785
     83          1           0        0.991119    7.039917   -0.656243
     84          1           0        1.097496    6.398381   -2.403899
     85          1           0        7.621980    5.108643    1.823897
     86          1           0        9.500114    3.513931    0.122533
     87          1           0        7.342014    6.141384   -0.625218
     88          1           0        8.883579    5.475684   -0.957639
     89          1           0        8.586277    6.562635    0.490118
     90          1           0        9.111500    2.554868    3.031635
     91          1           0        9.718074    4.205324    2.783221
     92          1           0       11.112417    1.752458    2.699940
     93          1           0       11.717457    3.304308    2.935201
     94          1           0       11.515126    2.780537    1.278807
     95          1           0        9.742138   -3.130034    0.683649
     96          1           0       10.416246   -1.587424    1.061466
     97          1           0       10.112922   -2.109686   -0.659062
     98          1           0        4.892819   -4.530115    0.786029
     99          1           0        3.854276   -6.356664   -3.008910
    100          1           0        2.521444   -5.344925   -3.007658
    101          1           0        2.486863   -6.859762   -2.133969
    102          1           0       -2.519034   -5.276072   -0.742368
    103          1           0       -1.837130   -3.882508   -1.494545
    104          1           0       -4.412770   -4.006963   -0.068704
    105          1           0       -3.389919   -0.566154   -2.218430
    106          1           0       -2.225618   -1.921164   -2.179135
    107          1           0       -2.215299   -0.697338   -0.932253
    108          1           0       -5.850787   -2.552010   -0.780931
    109          1           0       -5.569398   -0.899448   -1.321256
    110          1           0       -5.730931   -0.033722    0.677775
    111          1           0       -4.762000   -1.124738    1.477248
    112          1           0       -6.515279   -2.134831    2.483499
    113          1           0       -7.103177   -2.741022    0.903991
    114          1           0       -8.008479   -0.096613    1.069296
    115          1           0       -8.190970   -1.501709    3.667939
    116          1           0       -9.445605   -0.469161    2.984860
    117          1           0       -7.702943    0.131413    3.248762
    118          1           0       -9.773695   -2.490562    1.612349
    119          1           0       -8.962583   -2.314417    0.056366
    120          1           0      -10.542563   -0.895954   -0.696491
    121          1           0      -10.189748    0.249678    0.615356
    122          1           0      -11.933315   -1.614568    1.874564
    123          1           0      -12.506884   -1.643209    0.311169
    124          1           0      -12.292039    1.188301    0.667381
    125          1           0      -12.677608    1.880731    2.619268
    126          1           0      -11.911397    0.291492    3.220740
    127          1           0      -13.619798    0.438013    3.184117
    128          1           0      -14.742478    1.039632    1.246404
    129          1           0      -14.566980   -0.734478    0.814304
    130          1           0      -14.642671   -0.252108   -1.353647
    131          1           0      -13.217556    0.711206   -1.186928
    132          1           0      -15.761596    1.998744   -0.314029
    133          1           0      -15.573857    1.757414   -2.019304
    134          1           0      -13.006353    2.855531   -1.160700
    135          1           0      -14.023236    5.159940   -0.170612
    136          1           0      -13.626527    3.853426    0.888428
    137          1           0      -15.319187    4.133092    0.530045
    138          1           0      -13.385553    4.643320   -2.611354
    139          1           0      -15.073904    4.481601   -2.467389
    140          1           0      -14.300564    3.176475   -3.284649
 ---------------------------------------------------------------------

 SCF Done:  E(RZINDO/S) =  -473.821222203     A.U. after   20 cycles

 Excitation energies and oscillator strengths:

 Excited State   1:      Singlet-A      1.2320 eV 1006.36 nm  f=0.5796  <S**2>=0.000
     175 ->178         0.19113
     176 ->177         0.66318
 This state for optimization and/or second-order correction.
 Total Energy, E(CIS/TDA) =  -473.775946748
 Copying the excited state density for this state as the 1-particle RhoCI density.

 Excited State   2:      Singlet-A      1.9269 eV  643.46 nm  f=0.0583  <S**2>=0.000
     175 ->177         0.55696
     176 ->178        -0.41041

 Excited State   3:      Singlet-A      3.0443 eV  407.27 nm  f=0.8236  <S**2>=0.000
     175 ->177         0.31690
     176 ->178         0.48029
     176 ->179         0.30549

 Excited State   4:      Singlet-A      3.0791 eV  402.66 nm  f=0.0271  <S**2>=0.000
     167 ->181         0.10784
     168 ->177        -0.17964
     168 ->179         0.32670
     168 ->181         0.27877
     168 ->186         0.18052
     168 ->187         0.15707
     169 ->177         0.17731
     169 ->179        -0.10692
     169 ->181        -0.23618
     169 ->187        -0.11280
     172 ->177         0.10209

 Excited State   5:      Singlet-A      3.0944 eV  400.67 nm  f=0.0479  <S**2>=0.000
     168 ->177         0.18794
     168 ->179         0.15771
     168 ->181        -0.23175
     168 ->186         0.10048
     169 ->177         0.21815
     169 ->178         0.12523
     169 ->179         0.34064
     169 ->181        -0.22835
     169 ->186         0.20655

 The electronic state is 1-A.
 Alpha  occ. eigenvalues --   -1.82219  -1.81090  -1.79234  -1.71300  -1.71113
 Alpha  occ. eigenvalues --   -1.69311  -1.65639  -1.62200  -1.58308  -1.55580
 Alpha  occ. eigenvalues --   -1.53821  -1.50375  -1.47171  -1.46788  -1.46065
 Alpha  occ. eigenvalues --   -1.43456  -1.41261  -1.39930  -1.38197  -1.37594
 Alpha  occ. eigenvalues --   -1.35663  -1.33623  -1.32958  -1.31995  -1.29532
 Alpha  occ. eigenvalues --   -1.28779  -1.24099  -1.21120  -1.20392  -1.17813
 Alpha  occ. eigenvalues --   -1.16012  -1.15446  -1.13972  -1.13850  -1.13592
 Alpha  occ. eigenvalues --   -1.12165  -1.10471  -1.10122  -1.04547  -1.03566
 Alpha  occ. eigenvalues --   -1.03329  -1.00299  -0.98642  -0.97916  -0.96465
 Alpha  occ. eigenvalues --   -0.95887  -0.94465  -0.93754  -0.93082  -0.92440
 Alpha  occ. eigenvalues --   -0.90723  -0.89993  -0.89893  -0.88471  -0.85785
 Alpha  occ. eigenvalues --   -0.85541  -0.84194  -0.83253  -0.82211  -0.80240
 Alpha  occ. eigenvalues --   -0.79756  -0.79602  -0.77014  -0.76914  -0.76435
 Alpha  occ. eigenvalues --   -0.75982  -0.75497  -0.74069  -0.73723  -0.73188
 Alpha  occ. eigenvalues --   -0.72186  -0.71670  -0.71316  -0.71106  -0.70757
 Alpha  occ. eigenvalues --   -0.69859  -0.69573  -0.69382  -0.68629  -0.68151
 Alpha  occ. eigenvalues --   -0.67394  -0.67273  -0.66213  -0.65956  -0.65758
 Alpha  occ. eigenvalues --   -0.65650  -0.64449  -0.64261  -0.63606  -0.63187
 Alpha  occ. eigenvalues --   -0.62863  -0.62628  -0.62550  -0.62349  -0.62012
 Alpha  occ. eigenvalues --   -0.61692  -0.61353  -0.60917  -0.60820  -0.60367
 Alpha  occ. eigenvalues --   -0.59611  -0.59105  -0.58690  -0.58161  -0.58080
 Alpha  occ. eigenvalues --   -0.57959  -0.57739  -0.57564  -0.57384  -0.56938
 Alpha  occ. eigenvalues --   -0.56101  -0.55982  -0.55588  -0.55391  -0.55172
 Alpha  occ. eigenvalues --   -0.54251  -0.54136  -0.53422  -0.52617  -0.52436
 Alpha  occ. eigenvalues --   -0.52209  -0.52103  -0.52065  -0.51976  -0.51450
 Alpha  occ. eigenvalues --   -0.51364  -0.51000  -0.50924  -0.50239  -0.50083
 Alpha  occ. eigenvalues --   -0.49910  -0.49829  -0.49554  -0.49407  -0.49355
 Alpha  occ. eigenvalues --   -0.49013  -0.48503  -0.48315  -0.48077  -0.47708
 Alpha  occ. eigenvalues --   -0.47574  -0.47455  -0.47234  -0.46944  -0.46779
 Alpha  occ. eigenvalues --   -0.46655  -0.46515  -0.46227  -0.45603  -0.45492
 Alpha  occ. eigenvalues --   -0.45445  -0.45278  -0.44878  -0.44536  -0.44463
 Alpha  occ. eigenvalues --   -0.44180  -0.43625  -0.42805  -0.42749  -0.42279
 Alpha  occ. eigenvalues --   -0.42202  -0.42080  -0.41816  -0.39093  -0.38709
 Alpha  occ. eigenvalues --   -0.37608  -0.37144  -0.35310  -0.35039  -0.34484
 Alpha  occ. eigenvalues --   -0.33251  -0.32987  -0.32567  -0.32132  -0.26430
 Alpha  occ. eigenvalues --   -0.21636
 Alpha virt. eigenvalues --   -0.08429  -0.01720   0.00123   0.01285   0.01570
 Alpha virt. eigenvalues --    0.02311   0.02862   0.03311   0.03446   0.04741
 Alpha virt. eigenvalues --    0.06041   0.06583   0.06877   0.07644   0.08073

 Mulliken charges:
               1
     1  Mg   0.426231
     2  C   -0.041228
     3  C   -0.085962
     4  C   -0.073765
     5  C   -0.065353
     6  N   -0.293757
     7  C    0.106805
     8  C    0.000657
     9  C   -0.004546
    10  C    0.163517
    11  C   -0.070517
    12  C   -0.020400
    13  C    0.015760
    14  C    0.464501
    15  O   -0.539533
    16  O   -0.257083
    17  N   -0.309383
    18  C    0.107672
    19  C   -0.001530
    20  C   -0.055809
    21  C    0.133287
    22  C   -0.036319
    23  C    0.312957
    24  O   -0.506643
    25  C   -0.036627
    26  N   -0.258652
    27  C    0.151757
    28  C    0.005087
    29  C   -0.000441
    30  C    0.101719
    31  C   -0.060410
    32  C   -0.023808
    33  C   -0.054234
    34  N   -0.318695
    35  C    0.085439
    36  C    0.040344
    37  C   -0.058648
    38  C    0.115811
    39  C   -0.035997
    40  C    0.327470
    41  O   -0.512321
    42  C    0.055350
    43  C    0.482861
    44  O   -0.502551
    45  O   -0.256531
    46  C    0.073340
    47  C    0.103849
    48  C   -0.105005
    49  C    0.009141
    50  C   -0.047533
    51  C   -0.016941
    52  C   -0.029851
    53  C   -0.036238
    54  C   -0.014145
    55  C   -0.053662
    56  C   -0.037330
    57  C   -0.030833
    58  C   -0.034916
    59  C   -0.023702
    60  C   -0.070680
    61  C   -0.032407
    62  C   -0.045408
    63  C   -0.032904
    64  C   -0.013805
    65  C   -0.058811
    66  C   -0.060537
    67  H    0.010996
    68  H    0.041663
    69  H    0.025869
    70  H    0.045857
    71  H    0.040717
    72  H    0.033991
    73  H    0.040470
    74  H    0.015489
    75  H    0.019864
    76  H    0.022758
    77  H    0.040385
    78  H    0.040104
    79  H    0.026946
    80  H    0.039008
    81  H    0.037480
    82  H    0.034844
    83  H    0.043657
    84  H    0.039900
    85  H    0.035240
    86  H    0.034691
    87  H    0.021937
    88  H    0.032056
    89  H    0.021803
    90  H    0.029373
    91  H    0.014438
    92  H    0.014779
    93  H    0.015268
    94  H    0.024137
    95  H    0.027084
    96  H    0.027593
    97  H    0.040268
    98  H    0.048415
    99  H    0.035414
   100  H    0.046795
   101  H    0.031088
   102  H    0.057192
   103  H    0.048414
   104  H    0.025182
   105  H    0.024655
   106  H    0.026594
   107  H    0.026974
   108  H    0.022386
   109  H    0.022465
   110  H    0.016234
   111  H    0.016976
   112  H    0.021308
   113  H    0.021880
   114  H    0.014210
   115  H    0.015052
   116  H    0.017639
   117  H    0.019147
   118  H    0.024177
   119  H    0.013273
   120  H    0.020489
   121  H    0.024819
   122  H    0.022751
   123  H    0.013101
   124  H    0.021116
   125  H    0.025485
   126  H    0.018427
   127  H    0.016768
   128  H    0.026141
   129  H    0.022617
   130  H    0.012053
   131  H    0.016484
   132  H    0.017837
   133  H    0.018018
   134  H    0.024360
   135  H    0.018257
   136  H    0.011089
   137  H    0.029262
   138  H    0.020589
   139  H    0.006642
   140  H    0.021456
 Sum of Mulliken charges =  -0.00000

 Dipole moment (field-independent basis, Debye):
    X=             -7.8486    Y=              5.0592    Z=              2.5376  Tot=              9.6766
 N-N= 4.313559266716D+03 E-N= 0.000000000000D+00  KE=-9.300927475020D+03
 Leave Link  601 at Fri Apr 29 04:11:25 2022, MaxMem=  6710886400 cpu:               0.8 elap:               0.0
 (Enter /sw/apps/gaussian-16.0/g16/l9999.exe)
 1\1\GINC-BP1-COMPUTE103\SP\RZINDO CIS\STO-3G\C55H74Mg1N4O6\OF15641\29-
 Apr-2022\0\\#p ZINDO=(nstates=5)\\step_1851_chromophore_21 ZINDO\\0,1\
 Mg,0,15.659,50.862,26.031\C,0,17.784,50.067,28.846\C,0,13.073,50.895,2
 8.253\C,0,13.724,51.227,23.405\C,0,18.265,49.81,23.939\N,0,15.468,50.7
 41,28.328\C,0,16.462,50.396,29.247\C,0,15.93,50.742,30.691\C,0,14.351,
 50.684,30.44\C,0,14.271,50.781,28.915\C,0,13.805,49.223,30.824\C,0,16.
 509,52.16,31.114\C,0,16.771,52.57,32.553\C,0,15.948,51.789,33.628\O,0,

 Normal termination of Gaussian 16 at Fri Apr 29 04:11:25 2022.
