 Gaussian 16, Revision A.03,
 Gaussian 16:  ES64L-G16RevA.03 25-Dec-2016

 ------------------------------
 #p blyp/Def2SVP td=(nstates=5)
 ------------------------------

 -------------------------------------------------
 step_51_chromophore_14 TDDFT with blyp functional
 -------------------------------------------------
 Symbolic Z-matrix:
 Charge =  0 Multiplicity = 1

                         Standard orientation:
 ---------------------------------------------------------------------
 Center     Atomic      Atomic             Coordinates (Angstroms)
 Number     Number       Type             X           Y           Z
 ---------------------------------------------------------------------
      1         12           0        5.467607    0.686443   -0.190225
      2          6           0        4.233290   -2.499800    0.686533
      3          6           0        3.692717    0.419490   -3.150754
      4          6           0        5.688809    4.045827   -0.572606
      5          6           0        6.273344    1.135614    3.260946
      6          7           0        4.260137   -0.939368   -1.185561
      7          6           0        3.808471   -2.082702   -0.639763
      8          6           0        2.893192   -2.968970   -1.559742
      9          6           0        3.051763   -2.138018   -2.899095
     10          6           0        3.765351   -0.795979   -2.425690
     11          6           0        3.874580   -2.895927   -3.949586
     12          6           0        1.395643   -2.954067   -1.006453
     13          6           0        0.743131   -4.330213   -1.154990
     14          6           0       -0.652472   -4.329202   -1.749980
     15          8           0       -1.000005   -4.966963   -2.724349
     16          8           0       -1.479046   -3.535325   -1.070454
     17          7           0        4.871111    1.994599   -1.708730
     18          6           0        4.221965    1.723669   -2.876686
     19          6           0        4.080513    2.911871   -3.706386
     20          6           0        4.828509    3.926035   -3.051796
     21          6           0        5.173352    3.335600   -1.736776
     22          6           0        3.480471    3.073830   -5.072809
     23          6           0        5.081248    5.352271   -3.503249
     24          8           0        4.685761    5.705209   -4.597149
     25          6           0        5.796564    6.375679   -2.704856
     26          7           0        5.827661    2.392348    1.250499
     27          6           0        6.029130    3.599491    0.695318
     28          6           0        6.703503    4.553339    1.741812
     29          6           0        6.740183    3.637515    3.082594
     30          6           0        6.219433    2.346681    2.534864
     31          6           0        8.102287    5.071121    1.251371
     32          6           0        5.821248    4.179250    4.287133
     33          6           0        6.593290    4.777849    5.506963
     34          7           0        5.466742   -0.432404    1.548046
     35          6           0        5.853852   -0.149355    2.810599
     36          6           0        5.897082   -1.332716    3.680146
     37          6           0        5.247278   -2.297486    2.854772
     38          6           0        4.973137   -1.709871    1.573385
     39          6           0        6.464473   -1.409389    5.100828
     40          6           0        4.817897   -3.639862    2.792915
     41          8           0        4.842056   -4.594885    3.627945
     42          6           0        4.075020   -3.807921    1.392337
     43          6           0        4.701033   -4.974982    0.672881
     44          8           0        4.379873   -6.132710    0.785435
     45          8           0        5.752971   -4.569306   -0.072847
     46          6           0        6.625734   -5.665115   -0.617923
     47          6           0       -2.923447   -3.571872   -1.449703
     48          6           0       -3.503669   -2.121970   -1.239647
     49          6           0       -3.956030   -1.209467   -2.135065
     50          6           0       -3.877390   -1.256780   -3.646059
     51          6           0       -4.382353    0.025326   -1.522810
     52          6           0       -5.800067    0.256310   -0.972769
     53          6           0       -5.912188    0.064202    0.608930
     54          6           0       -7.350560    0.527885    1.200168
     55          6           0       -7.236436    1.002654    2.622539
     56          6           0       -8.343132   -0.714633    0.980418
     57          6           0       -9.614245   -0.273323    0.190823
     58          6           0      -10.818949   -1.102873    0.620642
     59          6           0      -11.923713   -0.290288    1.295067
     60          6           0      -12.524612   -0.987031    2.530389
     61          6           0      -13.074954    0.015476    0.297364
     62          6           0      -13.703179    1.332731    0.713758
     63          6           0      -15.112107    1.572694   -0.000373
     64          6           0      -15.924048    2.561846    0.824957
     65          6           0      -17.445440    2.364411    0.645710
     66          6           0      -15.403357    3.947526    0.474348
     67          1           0        3.207169    0.250051   -4.114915
     68          1           0        5.972339    5.100911   -0.578864
     69          1           0        6.740277    1.182091    4.246436
     70          1           0        3.238038   -4.002926   -1.588153
     71          1           0        2.083641   -1.833250   -3.296532
     72          1           0        4.106638   -3.835826   -3.448395
     73          1           0        4.789696   -2.455824   -4.345021
     74          1           0        3.130214   -2.907612   -4.746272
     75          1           0        0.815772   -2.209210   -1.551759
     76          1           0        1.418156   -2.601792    0.025827
     77          1           0        0.808230   -4.782470   -0.165235
     78          1           0        1.267002   -4.937949   -1.892622
     79          1           0        2.941008    2.141973   -5.241894
     80          1           0        4.219451    3.204289   -5.864090
     81          1           0        2.568794    3.642767   -4.893591
     82          1           0        6.748820    6.036341   -2.296502
     83          1           0        5.161934    6.808993   -1.931957
     84          1           0        5.918500    7.232190   -3.367860
     85          1           0        6.051298    5.425223    1.793208
     86          1           0        7.716576    3.484455    3.542018
     87          1           0        8.474909    4.514741    0.391909
     88          1           0        8.763418    5.163466    2.113356
     89          1           0        7.832175    6.007256    0.763019
     90          1           0        5.222254    3.384950    4.732809
     91          1           0        5.198688    5.004998    3.943805
     92          1           0        6.215514    4.287165    6.403151
     93          1           0        6.427023    5.851952    5.591339
     94          1           0        7.658062    4.563941    5.593753
     95          1           0        5.893872   -0.645180    5.628526
     96          1           0        7.502669   -1.077640    5.078157
     97          1           0        6.256391   -2.420179    5.451578
     98          1           0        3.022668   -3.931703    1.646359
     99          1           0        7.418023   -5.165353   -1.174852
    100          1           0        6.144308   -6.305397   -1.356474
    101          1           0        6.886592   -6.286297    0.238191
    102          1           0       -3.572573   -4.094354   -0.747801
    103          1           0       -3.151575   -3.668799   -2.511347
    104          1           0       -3.672511   -1.966356   -0.174252
    105          1           0       -4.885523   -1.146746   -4.045489
    106          1           0       -3.642088   -2.253528   -4.020106
    107          1           0       -3.381072   -0.421334   -4.139500
    108          1           0       -4.385709    0.848712   -2.236088
    109          1           0       -3.754952    0.346696   -0.691938
    110          1           0       -6.401435   -0.595437   -1.288920
    111          1           0       -6.257792    1.201243   -1.266242
    112          1           0       -5.128940    0.566381    1.176764
    113          1           0       -5.822281   -1.008257    0.782881
    114          1           0       -7.754475    1.359237    0.622316
    115          1           0       -6.168258    1.160283    2.776485
    116          1           0       -7.603912    0.195566    3.255056
    117          1           0       -7.705821    1.985893    2.665051
    118          1           0       -8.639837   -1.090081    1.959854
    119          1           0       -7.861894   -1.525809    0.434548
    120          1           0       -9.375290   -0.535469   -0.840456
    121          1           0       -9.754816    0.806858    0.170491
    122          1           0      -10.486891   -1.796554    1.393524
    123          1           0      -11.137068   -1.658747   -0.262086
    124          1           0      -11.486060    0.664730    1.584732
    125          1           0      -12.426706   -0.188848    3.265934
    126          1           0      -11.914144   -1.838942    2.829272
    127          1           0      -13.582619   -1.200837    2.378123
    128          1           0      -13.828131   -0.767846    0.222196
    129          1           0      -12.744407    0.132614   -0.734460
    130          1           0      -12.944374    2.096092    0.544582
    131          1           0      -13.862830    1.257100    1.789922
    132          1           0      -15.704743    0.679752   -0.196867
    133          1           0      -14.769475    2.030639   -0.927916
    134          1           0      -15.644843    2.377250    1.862606
    135          1           0      -17.822096    2.937383   -0.200584
    136          1           0      -17.914727    2.694316    1.572869
    137          1           0      -17.708415    1.352412    0.337856
    138          1           0      -14.707699    4.185008    1.278003
    139          1           0      -16.207371    4.675665    0.366856
    140          1           0      -14.841360    3.964965   -0.459721
 ---------------------------------------------------------------------

 SCF Done:  E(RB-LYP) =  -3007.33758878     A.U. after   20 cycles

 Excitation energies and oscillator strengths:

 Excited State   1:      Singlet-A      1.8071 eV  686.10 nm  f=0.2832  <S**2>=0.000
     245 -> 248       -0.21484
     246 -> 247        0.67808
     246 <- 247       -0.14144
 This state for optimization and/or second-order correction.
 Total Energy, E(TD-HF/TD-DFT) =  -3007.27117938
 Copying the excited state density for this state as the 1-particle RhoCI density.

 Excited State   2:      Singlet-A      1.8883 eV  656.59 nm  f=0.0136  <S**2>=0.000
     243 -> 247        0.50396
     244 -> 247       -0.35505
     245 -> 247        0.32901

 Excited State   3:      Singlet-A      1.9046 eV  650.96 nm  f=0.0102  <S**2>=0.000
     243 -> 247        0.28426
     244 -> 247        0.60455
     245 -> 247        0.20413

 Excited State   4:      Singlet-A      1.9822 eV  625.48 nm  f=0.0575  <S**2>=0.000
     243 -> 247       -0.40194
     245 -> 247        0.52968
     246 -> 248        0.21596

 Excited State   5:      Singlet-A      2.3883 eV  519.14 nm  f=0.0010  <S**2>=0.000
     242 -> 247        0.70439

 The electronic state is 1-A.
 Alpha  occ. eigenvalues --  -46.29079 -18.82196 -18.82161 -18.75963 -18.75795
 Alpha  occ. eigenvalues --  -18.75567 -18.75199 -14.03945 -14.02852 -14.01921
 Alpha  occ. eigenvalues --  -14.01451 -10.03422 -10.03403  -9.99631  -9.99573
 Alpha  occ. eigenvalues --   -9.98333  -9.98156  -9.97346  -9.96726  -9.96650
 Alpha  occ. eigenvalues --   -9.96456  -9.96290  -9.96070  -9.95947  -9.94941
 Alpha  occ. eigenvalues --   -9.94859  -9.94668  -9.94656  -9.94473  -9.94450
 Alpha  occ. eigenvalues --   -9.93992  -9.93764  -9.93622  -9.93450  -9.93444
 Alpha  occ. eigenvalues --   -9.93438  -9.93432  -9.93336  -9.93150  -9.93057
 Alpha  occ. eigenvalues --   -9.92995  -9.92925  -9.92753  -9.92475  -9.92433
 Alpha  occ. eigenvalues --   -9.92207  -9.91990  -9.91976  -9.91940  -9.91937
 Alpha  occ. eigenvalues --   -9.91813  -9.91790  -9.91455  -9.91344  -9.91244
 Alpha  occ. eigenvalues --   -9.91188  -9.91140  -9.90906  -9.90702  -9.90700
 Alpha  occ. eigenvalues --   -9.90668  -9.90665  -9.90590  -9.90371  -9.90370
 Alpha  occ. eigenvalues --   -9.90224  -2.93531  -1.73919  -1.73444  -1.73234
 Alpha  occ. eigenvalues --   -0.98350  -0.98029  -0.91985  -0.89527  -0.89364
 Alpha  occ. eigenvalues --   -0.88848  -0.87080  -0.86568  -0.86003  -0.85400
 Alpha  occ. eigenvalues --   -0.75943  -0.74199  -0.73254  -0.72854  -0.72046
 Alpha  occ. eigenvalues --   -0.71901  -0.71380  -0.70881  -0.70640  -0.70182
 Alpha  occ. eigenvalues --   -0.69894  -0.69363  -0.67893  -0.67534  -0.67240
 Alpha  occ. eigenvalues --   -0.66655  -0.66161  -0.65433  -0.65023  -0.64573
 Alpha  occ. eigenvalues --   -0.64285  -0.62689  -0.62460  -0.62044  -0.61077
 Alpha  occ. eigenvalues --   -0.60856  -0.60291  -0.60043  -0.59262  -0.58471
 Alpha  occ. eigenvalues --   -0.57956  -0.57562  -0.56551  -0.55627  -0.54506
 Alpha  occ. eigenvalues --   -0.54288  -0.52984  -0.52958  -0.52042  -0.51932
 Alpha  occ. eigenvalues --   -0.51747  -0.50959  -0.50868  -0.50387  -0.49956
 Alpha  occ. eigenvalues --   -0.49493  -0.49254  -0.49087  -0.48300  -0.46533
 Alpha  occ. eigenvalues --   -0.46113  -0.46061  -0.45723  -0.45190  -0.44232
 Alpha  occ. eigenvalues --   -0.43991  -0.43946  -0.43598  -0.43241  -0.42511
 Alpha  occ. eigenvalues --   -0.42475  -0.41386  -0.41328  -0.41251  -0.41112
 Alpha  occ. eigenvalues --   -0.40858  -0.40670  -0.40314  -0.40241  -0.40069
 Alpha  occ. eigenvalues --   -0.40008  -0.39845  -0.39513  -0.39274  -0.39193
 Alpha  occ. eigenvalues --   -0.39109  -0.38943  -0.38849  -0.38712  -0.38578
 Alpha  occ. eigenvalues --   -0.38150  -0.37937  -0.37809  -0.37745  -0.37672
 Alpha  occ. eigenvalues --   -0.37375  -0.37194  -0.36846  -0.36690  -0.36419
 Alpha  occ. eigenvalues --   -0.36350  -0.36159  -0.35845  -0.35644  -0.35506
 Alpha  occ. eigenvalues --   -0.35229  -0.35144  -0.34913  -0.34877  -0.34768
 Alpha  occ. eigenvalues --   -0.34496  -0.34461  -0.34360  -0.34341  -0.34250
 Alpha  occ. eigenvalues --   -0.33844  -0.33716  -0.33493  -0.33302  -0.32998
 Alpha  occ. eigenvalues --   -0.32780  -0.32703  -0.32662  -0.32587  -0.32452
 Alpha  occ. eigenvalues --   -0.32020  -0.31874  -0.31790  -0.31529  -0.31406
 Alpha  occ. eigenvalues --   -0.31360  -0.31057  -0.30977  -0.30785  -0.30676
 Alpha  occ. eigenvalues --   -0.30437  -0.30244  -0.30235  -0.30097  -0.29824
 Alpha  occ. eigenvalues --   -0.29748  -0.29432  -0.29060  -0.28936  -0.28737
 Alpha  occ. eigenvalues --   -0.28478  -0.28376  -0.28129  -0.27997  -0.27696
 Alpha  occ. eigenvalues --   -0.27581  -0.27385  -0.26923  -0.26901  -0.26680
 Alpha  occ. eigenvalues --   -0.26592  -0.26127  -0.25914  -0.25642  -0.25257
 Alpha  occ. eigenvalues --   -0.25194  -0.24777  -0.24160  -0.23991  -0.23471
 Alpha  occ. eigenvalues --   -0.22541  -0.22361  -0.21564  -0.21235  -0.21006
 Alpha  occ. eigenvalues --   -0.20765  -0.20380  -0.18527  -0.18510  -0.17225
 Alpha  occ. eigenvalues --   -0.15962
 Alpha virt. eigenvalues --   -0.11614  -0.07185  -0.06783  -0.04769  -0.04584
 Alpha virt. eigenvalues --   -0.03222  -0.02032  -0.01748  -0.01325   0.00270
 Alpha virt. eigenvalues --    0.01090   0.01625   0.02167   0.02723   0.02786

 Mulliken charges:
               1
     1  Mg   0.715131
     2  C    0.023688
     3  C   -0.059616
     4  C    0.004492
     5  C   -0.103602
     6  N   -0.167554
     7  C   -0.082386
     8  C   -0.039235
     9  C   -0.022548
    10  C   -0.007259
    11  C    0.147428
    12  C    0.112777
    13  C    0.145452
    14  C    0.032456
    15  O   -0.184391
    16  O   -0.252003
    17  N   -0.278441
    18  C    0.152264
    19  C   -0.216735
    20  C    0.055833
    21  C    0.119058
    22  C    0.277858
    23  C   -0.109950
    24  O   -0.159437
    25  C    0.163901
    26  N   -0.171196
    27  C   -0.066842
    28  C   -0.003667
    29  C    0.053705
    30  C    0.009564
    31  C    0.121391
    32  C    0.074056
    33  C    0.033938
    34  N   -0.249601
    35  C    0.120119
    36  C   -0.213900
    37  C    0.143704
    38  C    0.044587
    39  C    0.202846
    40  C   -0.092700
    41  O   -0.173865
    42  C    0.060623
    43  C    0.107900
    44  O   -0.161743
    45  O   -0.282818
    46  C    0.220007
    47  C    0.345508
    48  C   -0.197832
    49  C   -0.073059
    50  C    0.164537
    51  C    0.164387
    52  C    0.049630
    53  C    0.030003
    54  C   -0.117028
    55  C    0.166776
    56  C    0.076570
    57  C    0.055373
    58  C    0.146852
    59  C   -0.103724
    60  C    0.139158
    61  C    0.102131
    62  C    0.010448
    63  C    0.110659
    64  C   -0.094864
    65  C    0.127387
    66  C    0.113925
    67  H   -0.061736
    68  H   -0.100368
    69  H   -0.071338
    70  H    0.008922
    71  H   -0.020056
    72  H   -0.008395
    73  H   -0.001184
    74  H    0.003596
    75  H   -0.013196
    76  H   -0.013337
    77  H    0.020049
    78  H   -0.005929
    79  H   -0.067914
    80  H    0.033383
    81  H   -0.010280
    82  H    0.013174
    83  H    0.008530
    84  H   -0.018679
    85  H   -0.015353
    86  H   -0.023871
    87  H   -0.004904
    88  H    0.009493
    89  H   -0.011117
    90  H   -0.008137
    91  H   -0.013831
    92  H   -0.013440
    93  H   -0.000227
    94  H   -0.013987
    95  H    0.004600
    96  H    0.007809
    97  H    0.023952
    98  H    0.003020
    99  H    0.015424
   100  H    0.013414
   101  H    0.031905
   102  H    0.007766
   103  H    0.000886
   104  H   -0.024417
   105  H   -0.019586
   106  H   -0.012480
   107  H    0.007371
   108  H   -0.054807
   109  H   -0.023353
   110  H   -0.032998
   111  H   -0.018394
   112  H   -0.032451
   113  H   -0.019346
   114  H   -0.034595
   115  H   -0.031822
   116  H   -0.011615
   117  H   -0.012454
   118  H   -0.031336
   119  H   -0.019322
   120  H   -0.042851
   121  H   -0.023971
   122  H   -0.048412
   123  H   -0.034805
   124  H   -0.036629
   125  H   -0.016959
   126  H   -0.016781
   127  H   -0.007834
   128  H   -0.037849
   129  H   -0.050322
   130  H   -0.021441
   131  H   -0.043256
   132  H   -0.035491
   133  H   -0.031678
   134  H   -0.033477
   135  H   -0.026558
   136  H   -0.007932
   137  H   -0.024198
   138  H   -0.015468
   139  H   -0.020499
   140  H   -0.020759
 Sum of Mulliken charges =  -0.00000

 Dipole moment (field-independent basis, Debye):
    X=              1.9175    Y=              4.9945    Z=              0.4505  Tot=              5.3689
 Quadrupole moment (field-independent basis, Debye-Ang):
   XX=           -357.8120   YY=           -448.1188   ZZ=           -418.5103
   XY=             14.5352   XZ=              7.5569   YZ=             38.3450

 Normal termination of Gaussian 16 at Sat Apr 30 00:35:00 2022.
