 Gaussian 16, Revision A.03,
 Gaussian 16:  ES64L-G16RevA.03 25-Dec-2016

 -----------------------------------
 #p cam-b3lyp/Def2SVP td=(nstates=5)
 -----------------------------------

 ------------------------------------------------------
 step_51_chromophore_14 TDDFT with cam-b3lyp functional
 ------------------------------------------------------
 Symbolic Z-matrix:
 Charge =  0 Multiplicity = 1

                         Standard orientation:
 ---------------------------------------------------------------------
 Center     Atomic      Atomic             Coordinates (Angstroms)
 Number     Number       Type             X           Y           Z
 ---------------------------------------------------------------------
      1         12           0        5.467607    0.686443   -0.190225
      2          6           0        4.233290   -2.499800    0.686533
      3          6           0        3.692717    0.419490   -3.150754
      4          6           0        5.688809    4.045827   -0.572606
      5          6           0        6.273344    1.135614    3.260946
      6          7           0        4.260137   -0.939368   -1.185561
      7          6           0        3.808471   -2.082702   -0.639763
      8          6           0        2.893192   -2.968970   -1.559742
      9          6           0        3.051763   -2.138018   -2.899095
     10          6           0        3.765351   -0.795979   -2.425690
     11          6           0        3.874580   -2.895927   -3.949586
     12          6           0        1.395643   -2.954067   -1.006453
     13          6           0        0.743131   -4.330213   -1.154990
     14          6           0       -0.652472   -4.329202   -1.749980
     15          8           0       -1.000005   -4.966963   -2.724349
     16          8           0       -1.479046   -3.535325   -1.070454
     17          7           0        4.871111    1.994599   -1.708730
     18          6           0        4.221965    1.723669   -2.876686
     19          6           0        4.080513    2.911871   -3.706386
     20          6           0        4.828509    3.926035   -3.051796
     21          6           0        5.173352    3.335600   -1.736776
     22          6           0        3.480471    3.073830   -5.072809
     23          6           0        5.081248    5.352271   -3.503249
     24          8           0        4.685761    5.705209   -4.597149
     25          6           0        5.796564    6.375679   -2.704856
     26          7           0        5.827661    2.392348    1.250499
     27          6           0        6.029130    3.599491    0.695318
     28          6           0        6.703503    4.553339    1.741812
     29          6           0        6.740183    3.637515    3.082594
     30          6           0        6.219433    2.346681    2.534864
     31          6           0        8.102287    5.071121    1.251371
     32          6           0        5.821248    4.179250    4.287133
     33          6           0        6.593290    4.777849    5.506963
     34          7           0        5.466742   -0.432404    1.548046
     35          6           0        5.853852   -0.149355    2.810599
     36          6           0        5.897082   -1.332716    3.680146
     37          6           0        5.247278   -2.297486    2.854772
     38          6           0        4.973137   -1.709871    1.573385
     39          6           0        6.464473   -1.409389    5.100828
     40          6           0        4.817897   -3.639862    2.792915
     41          8           0        4.842056   -4.594885    3.627945
     42          6           0        4.075020   -3.807921    1.392337
     43          6           0        4.701033   -4.974982    0.672881
     44          8           0        4.379873   -6.132710    0.785435
     45          8           0        5.752971   -4.569306   -0.072847
     46          6           0        6.625734   -5.665115   -0.617923
     47          6           0       -2.923447   -3.571872   -1.449703
     48          6           0       -3.503669   -2.121970   -1.239647
     49          6           0       -3.956030   -1.209467   -2.135065
     50          6           0       -3.877390   -1.256780   -3.646059
     51          6           0       -4.382353    0.025326   -1.522810
     52          6           0       -5.800067    0.256310   -0.972769
     53          6           0       -5.912188    0.064202    0.608930
     54          6           0       -7.350560    0.527885    1.200168
     55          6           0       -7.236436    1.002654    2.622539
     56          6           0       -8.343132   -0.714633    0.980418
     57          6           0       -9.614245   -0.273323    0.190823
     58          6           0      -10.818949   -1.102873    0.620642
     59          6           0      -11.923713   -0.290288    1.295067
     60          6           0      -12.524612   -0.987031    2.530389
     61          6           0      -13.074954    0.015476    0.297364
     62          6           0      -13.703179    1.332731    0.713758
     63          6           0      -15.112107    1.572694   -0.000373
     64          6           0      -15.924048    2.561846    0.824957
     65          6           0      -17.445440    2.364411    0.645710
     66          6           0      -15.403357    3.947526    0.474348
     67          1           0        3.207169    0.250051   -4.114915
     68          1           0        5.972339    5.100911   -0.578864
     69          1           0        6.740277    1.182091    4.246436
     70          1           0        3.238038   -4.002926   -1.588153
     71          1           0        2.083641   -1.833250   -3.296532
     72          1           0        4.106638   -3.835826   -3.448395
     73          1           0        4.789696   -2.455824   -4.345021
     74          1           0        3.130214   -2.907612   -4.746272
     75          1           0        0.815772   -2.209210   -1.551759
     76          1           0        1.418156   -2.601792    0.025827
     77          1           0        0.808230   -4.782470   -0.165235
     78          1           0        1.267002   -4.937949   -1.892622
     79          1           0        2.941008    2.141973   -5.241894
     80          1           0        4.219451    3.204289   -5.864090
     81          1           0        2.568794    3.642767   -4.893591
     82          1           0        6.748820    6.036341   -2.296502
     83          1           0        5.161934    6.808993   -1.931957
     84          1           0        5.918500    7.232190   -3.367860
     85          1           0        6.051298    5.425223    1.793208
     86          1           0        7.716576    3.484455    3.542018
     87          1           0        8.474909    4.514741    0.391909
     88          1           0        8.763418    5.163466    2.113356
     89          1           0        7.832175    6.007256    0.763019
     90          1           0        5.222254    3.384950    4.732809
     91          1           0        5.198688    5.004998    3.943805
     92          1           0        6.215514    4.287165    6.403151
     93          1           0        6.427023    5.851952    5.591339
     94          1           0        7.658062    4.563941    5.593753
     95          1           0        5.893872   -0.645180    5.628526
     96          1           0        7.502669   -1.077640    5.078157
     97          1           0        6.256391   -2.420179    5.451578
     98          1           0        3.022668   -3.931703    1.646359
     99          1           0        7.418023   -5.165353   -1.174852
    100          1           0        6.144308   -6.305397   -1.356474
    101          1           0        6.886592   -6.286297    0.238191
    102          1           0       -3.572573   -4.094354   -0.747801
    103          1           0       -3.151575   -3.668799   -2.511347
    104          1           0       -3.672511   -1.966356   -0.174252
    105          1           0       -4.885523   -1.146746   -4.045489
    106          1           0       -3.642088   -2.253528   -4.020106
    107          1           0       -3.381072   -0.421334   -4.139500
    108          1           0       -4.385709    0.848712   -2.236088
    109          1           0       -3.754952    0.346696   -0.691938
    110          1           0       -6.401435   -0.595437   -1.288920
    111          1           0       -6.257792    1.201243   -1.266242
    112          1           0       -5.128940    0.566381    1.176764
    113          1           0       -5.822281   -1.008257    0.782881
    114          1           0       -7.754475    1.359237    0.622316
    115          1           0       -6.168258    1.160283    2.776485
    116          1           0       -7.603912    0.195566    3.255056
    117          1           0       -7.705821    1.985893    2.665051
    118          1           0       -8.639837   -1.090081    1.959854
    119          1           0       -7.861894   -1.525809    0.434548
    120          1           0       -9.375290   -0.535469   -0.840456
    121          1           0       -9.754816    0.806858    0.170491
    122          1           0      -10.486891   -1.796554    1.393524
    123          1           0      -11.137068   -1.658747   -0.262086
    124          1           0      -11.486060    0.664730    1.584732
    125          1           0      -12.426706   -0.188848    3.265934
    126          1           0      -11.914144   -1.838942    2.829272
    127          1           0      -13.582619   -1.200837    2.378123
    128          1           0      -13.828131   -0.767846    0.222196
    129          1           0      -12.744407    0.132614   -0.734460
    130          1           0      -12.944374    2.096092    0.544582
    131          1           0      -13.862830    1.257100    1.789922
    132          1           0      -15.704743    0.679752   -0.196867
    133          1           0      -14.769475    2.030639   -0.927916
    134          1           0      -15.644843    2.377250    1.862606
    135          1           0      -17.822096    2.937383   -0.200584
    136          1           0      -17.914727    2.694316    1.572869
    137          1           0      -17.708415    1.352412    0.337856
    138          1           0      -14.707699    4.185008    1.278003
    139          1           0      -16.207371    4.675665    0.366856
    140          1           0      -14.841360    3.964965   -0.459721
 ---------------------------------------------------------------------

 SCF Done:  E(RCAM-B3LYP) =  -3007.12468694     A.U. after   17 cycles

 Excitation energies and oscillator strengths:

 Excited State   1:      Singlet-A      1.7203 eV  720.69 nm  f=0.3688  <S**2>=0.000
     245 -> 248       -0.19809
     246 -> 247        0.68054
     245 <- 248       -0.11064
 This state for optimization and/or second-order correction.
 Total Energy, E(TD-HF/TD-DFT) =  -3007.06146532
 Copying the excited state density for this state as the 1-particle RhoCI density.

 Excited State   2:      Singlet-A      2.2227 eV  557.80 nm  f=0.0970  <S**2>=0.000
     245 -> 247        0.63409
     246 -> 248        0.30392

 Excited State   3:      Singlet-A      3.2625 eV  380.03 nm  f=0.0003  <S**2>=0.000
     239 -> 247        0.16676
     239 -> 249       -0.10643
     240 -> 247       -0.25090
     240 -> 249        0.15015
     241 -> 247        0.45295
     241 -> 249       -0.27028
     241 -> 251        0.10649
     242 -> 247        0.15285

 Excited State   4:      Singlet-A      3.4117 eV  363.41 nm  f=0.4797  <S**2>=0.000
     242 -> 247       -0.19359
     245 -> 247       -0.25579
     246 -> 248        0.57173
     246 -> 250       -0.21378

 Excited State   5:      Singlet-A      3.5446 eV  349.78 nm  f=0.0126  <S**2>=0.000
     242 -> 247       -0.18986
     244 -> 247        0.40358
     246 -> 249        0.30195
     246 -> 250        0.41862

 The electronic state is 1-A.
 Alpha  occ. eigenvalues --  -46.90754 -19.25200 -19.25143 -19.19174 -19.18954
 Alpha  occ. eigenvalues --  -19.18775 -19.18237 -14.42966 -14.41538 -14.40338
 Alpha  occ. eigenvalues --  -14.39984 -10.38915 -10.38605 -10.35231 -10.34560
 Alpha  occ. eigenvalues --  -10.32469 -10.32387 -10.32060 -10.31061 -10.31003
 Alpha  occ. eigenvalues --  -10.30926 -10.30637 -10.30501 -10.30076 -10.29469
 Alpha  occ. eigenvalues --  -10.29344 -10.29063 -10.28681 -10.28670 -10.28558
 Alpha  occ. eigenvalues --  -10.28465 -10.28259 -10.27936 -10.27542 -10.27538
 Alpha  occ. eigenvalues --  -10.27399 -10.27385 -10.27258 -10.27117 -10.26954
 Alpha  occ. eigenvalues --  -10.26784 -10.26745 -10.26564 -10.26560 -10.26190
 Alpha  occ. eigenvalues --  -10.26049 -10.26001 -10.25883 -10.25832 -10.25631
 Alpha  occ. eigenvalues --  -10.25610 -10.25584 -10.25232 -10.24942 -10.24937
 Alpha  occ. eigenvalues --  -10.24863 -10.24840 -10.24609 -10.24351 -10.24345
 Alpha  occ. eigenvalues --  -10.24250 -10.24250 -10.24162 -10.24014 -10.23928
 Alpha  occ. eigenvalues --  -10.23849  -3.19094  -1.93962  -1.93558  -1.93386
 Alpha  occ. eigenvalues --   -1.16873  -1.16710  -1.10240  -1.07634  -1.07289
 Alpha  occ. eigenvalues --   -1.07263  -1.04891  -1.04262  -1.03649  -1.02812
 Alpha  occ. eigenvalues --   -0.93297  -0.91089  -0.90096  -0.89664  -0.88713
 Alpha  occ. eigenvalues --   -0.88608  -0.87927  -0.87480  -0.87312  -0.86737
 Alpha  occ. eigenvalues --   -0.86355  -0.85734  -0.84128  -0.83755  -0.83435
 Alpha  occ. eigenvalues --   -0.82733  -0.82249  -0.81367  -0.80874  -0.80351
 Alpha  occ. eigenvalues --   -0.80129  -0.78429  -0.78038  -0.77585  -0.76589
 Alpha  occ. eigenvalues --   -0.76242  -0.75666  -0.75303  -0.74539  -0.73675
 Alpha  occ. eigenvalues --   -0.73041  -0.72585  -0.71415  -0.70482  -0.69106
 Alpha  occ. eigenvalues --   -0.68978  -0.67493  -0.67370  -0.66181  -0.66097
 Alpha  occ. eigenvalues --   -0.65956  -0.65190  -0.64854  -0.64456  -0.64029
 Alpha  occ. eigenvalues --   -0.63285  -0.63061  -0.63039  -0.62172  -0.60123
 Alpha  occ. eigenvalues --   -0.59800  -0.59667  -0.59123  -0.58541  -0.57870
 Alpha  occ. eigenvalues --   -0.57513  -0.57267  -0.56843  -0.56393  -0.55868
 Alpha  occ. eigenvalues --   -0.55610  -0.54370  -0.54211  -0.54161  -0.54027
 Alpha  occ. eigenvalues --   -0.53515  -0.53405  -0.53317  -0.52930  -0.52736
 Alpha  occ. eigenvalues --   -0.52715  -0.52500  -0.52298  -0.52081  -0.51940
 Alpha  occ. eigenvalues --   -0.51716  -0.51601  -0.51224  -0.51063  -0.50958
 Alpha  occ. eigenvalues --   -0.50726  -0.50399  -0.50104  -0.50000  -0.49823
 Alpha  occ. eigenvalues --   -0.49524  -0.49397  -0.49096  -0.49041  -0.48919
 Alpha  occ. eigenvalues --   -0.48694  -0.48487  -0.48242  -0.48143  -0.47668
 Alpha  occ. eigenvalues --   -0.47364  -0.47176  -0.47004  -0.46879  -0.46643
 Alpha  occ. eigenvalues --   -0.46541  -0.46340  -0.46179  -0.46092  -0.45982
 Alpha  occ. eigenvalues --   -0.45768  -0.45623  -0.45423  -0.44980  -0.44771
 Alpha  occ. eigenvalues --   -0.44632  -0.44345  -0.44279  -0.44201  -0.43978
 Alpha  occ. eigenvalues --   -0.43694  -0.43470  -0.43449  -0.43198  -0.42997
 Alpha  occ. eigenvalues --   -0.42879  -0.42766  -0.42512  -0.42307  -0.42015
 Alpha  occ. eigenvalues --   -0.41965  -0.41787  -0.41546  -0.41425  -0.41166
 Alpha  occ. eigenvalues --   -0.40947  -0.40797  -0.40231  -0.40140  -0.39844
 Alpha  occ. eigenvalues --   -0.39561  -0.39458  -0.39059  -0.38977  -0.38581
 Alpha  occ. eigenvalues --   -0.38547  -0.38280  -0.38084  -0.37788  -0.37579
 Alpha  occ. eigenvalues --   -0.37432  -0.36965  -0.36782  -0.36556  -0.36518
 Alpha  occ. eigenvalues --   -0.36049  -0.35824  -0.34759  -0.34602  -0.34125
 Alpha  occ. eigenvalues --   -0.33664  -0.32915  -0.32807  -0.31155  -0.30834
 Alpha  occ. eigenvalues --   -0.30800  -0.30443  -0.30111  -0.30032  -0.23971
 Alpha  occ. eigenvalues --   -0.21232
 Alpha virt. eigenvalues --   -0.08670  -0.02173  -0.00461   0.00420   0.02323
 Alpha virt. eigenvalues --    0.04162   0.05558   0.05584   0.06235   0.06726
 Alpha virt. eigenvalues --    0.07916   0.08244   0.08721   0.08962   0.09099

 Mulliken charges:
               1
     1  Mg   0.843801
     2  C    0.002231
     3  C   -0.063546
     4  C   -0.024959
     5  C   -0.114088
     6  N   -0.234015
     7  C   -0.037461
     8  C   -0.084566
     9  C   -0.070551
    10  C    0.003855
    11  C    0.091241
    12  C    0.062804
    13  C    0.072734
    14  C    0.116312
    15  O   -0.227812
    16  O   -0.315263
    17  N   -0.364212
    18  C    0.148609
    19  C   -0.213122
    20  C   -0.015406
    21  C    0.147823
    22  C    0.212922
    23  C   -0.030883
    24  O   -0.199846
    25  C    0.074318
    26  N   -0.245238
    27  C   -0.038675
    28  C   -0.057714
    29  C   -0.004273
    30  C    0.033158
    31  C    0.065520
    32  C    0.022826
    33  C   -0.026073
    34  N   -0.339432
    35  C    0.126551
    36  C   -0.193351
    37  C    0.054681
    38  C    0.079686
    39  C    0.148606
    40  C    0.008349
    41  O   -0.211041
    42  C   -0.014577
    43  C    0.189429
    44  O   -0.199496
    45  O   -0.345033
    46  C    0.181385
    47  C    0.316420
    48  C   -0.209832
    49  C   -0.101175
    50  C    0.101483
    51  C    0.091913
    52  C    0.005712
    53  C   -0.017417
    54  C   -0.168226
    55  C    0.105971
    56  C    0.029187
    57  C    0.002552
    58  C    0.091238
    59  C   -0.160360
    60  C    0.078044
    61  C    0.050241
    62  C   -0.034817
    63  C    0.054082
    64  C   -0.157374
    65  C    0.067735
    66  C    0.053254
    67  H   -0.026740
    68  H   -0.064646
    69  H   -0.036031
    70  H    0.038078
    71  H    0.013671
    72  H    0.013138
    73  H    0.024911
    74  H    0.026414
    75  H    0.018928
    76  H    0.018214
    77  H    0.049738
    78  H    0.027265
    79  H   -0.040043
    80  H    0.059570
    81  H    0.019828
    82  H    0.038727
    83  H    0.037285
    84  H    0.018801
    85  H    0.017812
    86  H    0.010460
    87  H    0.020792
    88  H    0.032391
    89  H    0.010057
    90  H    0.021416
    91  H    0.014050
    92  H    0.010097
    93  H    0.022851
    94  H    0.008584
    95  H    0.030257
    96  H    0.033980
    97  H    0.052153
    98  H    0.043503
    99  H    0.040105
   100  H    0.036118
   101  H    0.055719
   102  H    0.033917
   103  H    0.030577
   104  H    0.005880
   105  H    0.005617
   106  H    0.012564
   107  H    0.033065
   108  H   -0.020755
   109  H    0.009007
   110  H   -0.007881
   111  H    0.008972
   112  H   -0.006381
   113  H    0.004068
   114  H   -0.004501
   115  H   -0.006356
   116  H    0.011546
   117  H    0.011768
   118  H   -0.005913
   119  H    0.007156
   120  H   -0.013418
   121  H    0.001344
   122  H   -0.019795
   123  H   -0.004752
   124  H   -0.005070
   125  H    0.006629
   126  H    0.008458
   127  H    0.016031
   128  H   -0.009359
   129  H   -0.020861
   130  H    0.004676
   131  H   -0.017738
   132  H   -0.006600
   133  H   -0.003729
   134  H   -0.001503
   135  H   -0.002318
   136  H    0.016227
   137  H    0.000297
   138  H    0.008692
   139  H    0.005049
   140  H    0.003093
 Sum of Mulliken charges =  -0.00000

 Dipole moment (field-independent basis, Debye):
    X=              2.1462    Y=              4.9785    Z=              0.6753  Tot=              5.4633
 Quadrupole moment (field-independent basis, Debye-Ang):
   XX=           -354.7128   YY=           -446.5664   ZZ=           -417.5551
   XY=             14.7462   XZ=              9.7037   YZ=             39.3702

 Normal termination of Gaussian 16 at Fri Apr 29 23:38:26 2022.
