 Gaussian 16, Revision A.03,
 Gaussian 16:  ES64L-G16RevA.03 25-Dec-2016

 ---------------------------------
 #p PBE1PBE/Def2SVP td=(nstates=5)
 ---------------------------------

 ----------------------------------------------------
 step_51_chromophore_14 TDDFT with PBE1PBE functional
 ----------------------------------------------------
 Symbolic Z-matrix:
 Charge =  0 Multiplicity = 1

                         Standard orientation:
 ---------------------------------------------------------------------
 Center     Atomic      Atomic             Coordinates (Angstroms)
 Number     Number       Type             X           Y           Z
 ---------------------------------------------------------------------
      1         12           0        5.467607    0.686443   -0.190225
      2          6           0        4.233290   -2.499800    0.686533
      3          6           0        3.692717    0.419490   -3.150754
      4          6           0        5.688809    4.045827   -0.572606
      5          6           0        6.273344    1.135614    3.260946
      6          7           0        4.260137   -0.939368   -1.185561
      7          6           0        3.808471   -2.082702   -0.639763
      8          6           0        2.893192   -2.968970   -1.559742
      9          6           0        3.051763   -2.138018   -2.899095
     10          6           0        3.765351   -0.795979   -2.425690
     11          6           0        3.874580   -2.895927   -3.949586
     12          6           0        1.395643   -2.954067   -1.006453
     13          6           0        0.743131   -4.330213   -1.154990
     14          6           0       -0.652472   -4.329202   -1.749980
     15          8           0       -1.000005   -4.966963   -2.724349
     16          8           0       -1.479046   -3.535325   -1.070454
     17          7           0        4.871111    1.994599   -1.708730
     18          6           0        4.221965    1.723669   -2.876686
     19          6           0        4.080513    2.911871   -3.706386
     20          6           0        4.828509    3.926035   -3.051796
     21          6           0        5.173352    3.335600   -1.736776
     22          6           0        3.480471    3.073830   -5.072809
     23          6           0        5.081248    5.352271   -3.503249
     24          8           0        4.685761    5.705209   -4.597149
     25          6           0        5.796564    6.375679   -2.704856
     26          7           0        5.827661    2.392348    1.250499
     27          6           0        6.029130    3.599491    0.695318
     28          6           0        6.703503    4.553339    1.741812
     29          6           0        6.740183    3.637515    3.082594
     30          6           0        6.219433    2.346681    2.534864
     31          6           0        8.102287    5.071121    1.251371
     32          6           0        5.821248    4.179250    4.287133
     33          6           0        6.593290    4.777849    5.506963
     34          7           0        5.466742   -0.432404    1.548046
     35          6           0        5.853852   -0.149355    2.810599
     36          6           0        5.897082   -1.332716    3.680146
     37          6           0        5.247278   -2.297486    2.854772
     38          6           0        4.973137   -1.709871    1.573385
     39          6           0        6.464473   -1.409389    5.100828
     40          6           0        4.817897   -3.639862    2.792915
     41          8           0        4.842056   -4.594885    3.627945
     42          6           0        4.075020   -3.807921    1.392337
     43          6           0        4.701033   -4.974982    0.672881
     44          8           0        4.379873   -6.132710    0.785435
     45          8           0        5.752971   -4.569306   -0.072847
     46          6           0        6.625734   -5.665115   -0.617923
     47          6           0       -2.923447   -3.571872   -1.449703
     48          6           0       -3.503669   -2.121970   -1.239647
     49          6           0       -3.956030   -1.209467   -2.135065
     50          6           0       -3.877390   -1.256780   -3.646059
     51          6           0       -4.382353    0.025326   -1.522810
     52          6           0       -5.800067    0.256310   -0.972769
     53          6           0       -5.912188    0.064202    0.608930
     54          6           0       -7.350560    0.527885    1.200168
     55          6           0       -7.236436    1.002654    2.622539
     56          6           0       -8.343132   -0.714633    0.980418
     57          6           0       -9.614245   -0.273323    0.190823
     58          6           0      -10.818949   -1.102873    0.620642
     59          6           0      -11.923713   -0.290288    1.295067
     60          6           0      -12.524612   -0.987031    2.530389
     61          6           0      -13.074954    0.015476    0.297364
     62          6           0      -13.703179    1.332731    0.713758
     63          6           0      -15.112107    1.572694   -0.000373
     64          6           0      -15.924048    2.561846    0.824957
     65          6           0      -17.445440    2.364411    0.645710
     66          6           0      -15.403357    3.947526    0.474348
     67          1           0        3.207169    0.250051   -4.114915
     68          1           0        5.972339    5.100911   -0.578864
     69          1           0        6.740277    1.182091    4.246436
     70          1           0        3.238038   -4.002926   -1.588153
     71          1           0        2.083641   -1.833250   -3.296532
     72          1           0        4.106638   -3.835826   -3.448395
     73          1           0        4.789696   -2.455824   -4.345021
     74          1           0        3.130214   -2.907612   -4.746272
     75          1           0        0.815772   -2.209210   -1.551759
     76          1           0        1.418156   -2.601792    0.025827
     77          1           0        0.808230   -4.782470   -0.165235
     78          1           0        1.267002   -4.937949   -1.892622
     79          1           0        2.941008    2.141973   -5.241894
     80          1           0        4.219451    3.204289   -5.864090
     81          1           0        2.568794    3.642767   -4.893591
     82          1           0        6.748820    6.036341   -2.296502
     83          1           0        5.161934    6.808993   -1.931957
     84          1           0        5.918500    7.232190   -3.367860
     85          1           0        6.051298    5.425223    1.793208
     86          1           0        7.716576    3.484455    3.542018
     87          1           0        8.474909    4.514741    0.391909
     88          1           0        8.763418    5.163466    2.113356
     89          1           0        7.832175    6.007256    0.763019
     90          1           0        5.222254    3.384950    4.732809
     91          1           0        5.198688    5.004998    3.943805
     92          1           0        6.215514    4.287165    6.403151
     93          1           0        6.427023    5.851952    5.591339
     94          1           0        7.658062    4.563941    5.593753
     95          1           0        5.893872   -0.645180    5.628526
     96          1           0        7.502669   -1.077640    5.078157
     97          1           0        6.256391   -2.420179    5.451578
     98          1           0        3.022668   -3.931703    1.646359
     99          1           0        7.418023   -5.165353   -1.174852
    100          1           0        6.144308   -6.305397   -1.356474
    101          1           0        6.886592   -6.286297    0.238191
    102          1           0       -3.572573   -4.094354   -0.747801
    103          1           0       -3.151575   -3.668799   -2.511347
    104          1           0       -3.672511   -1.966356   -0.174252
    105          1           0       -4.885523   -1.146746   -4.045489
    106          1           0       -3.642088   -2.253528   -4.020106
    107          1           0       -3.381072   -0.421334   -4.139500
    108          1           0       -4.385709    0.848712   -2.236088
    109          1           0       -3.754952    0.346696   -0.691938
    110          1           0       -6.401435   -0.595437   -1.288920
    111          1           0       -6.257792    1.201243   -1.266242
    112          1           0       -5.128940    0.566381    1.176764
    113          1           0       -5.822281   -1.008257    0.782881
    114          1           0       -7.754475    1.359237    0.622316
    115          1           0       -6.168258    1.160283    2.776485
    116          1           0       -7.603912    0.195566    3.255056
    117          1           0       -7.705821    1.985893    2.665051
    118          1           0       -8.639837   -1.090081    1.959854
    119          1           0       -7.861894   -1.525809    0.434548
    120          1           0       -9.375290   -0.535469   -0.840456
    121          1           0       -9.754816    0.806858    0.170491
    122          1           0      -10.486891   -1.796554    1.393524
    123          1           0      -11.137068   -1.658747   -0.262086
    124          1           0      -11.486060    0.664730    1.584732
    125          1           0      -12.426706   -0.188848    3.265934
    126          1           0      -11.914144   -1.838942    2.829272
    127          1           0      -13.582619   -1.200837    2.378123
    128          1           0      -13.828131   -0.767846    0.222196
    129          1           0      -12.744407    0.132614   -0.734460
    130          1           0      -12.944374    2.096092    0.544582
    131          1           0      -13.862830    1.257100    1.789922
    132          1           0      -15.704743    0.679752   -0.196867
    133          1           0      -14.769475    2.030639   -0.927916
    134          1           0      -15.644843    2.377250    1.862606
    135          1           0      -17.822096    2.937383   -0.200584
    136          1           0      -17.914727    2.694316    1.572869
    137          1           0      -17.708415    1.352412    0.337856
    138          1           0      -14.707699    4.185008    1.278003
    139          1           0      -16.207371    4.675665    0.366856
    140          1           0      -14.841360    3.964965   -0.459721
 ---------------------------------------------------------------------

 SCF Done:  E(RPBE1PBE) =  -3005.31546540     A.U. after   16 cycles

 Excitation energies and oscillator strengths:

 Excited State   1:      Singlet-A      1.8700 eV  663.01 nm  f=0.3582  <S**2>=0.000
     245 -> 248       -0.19310
     246 -> 247        0.68766
     246 <- 247       -0.10045
 This state for optimization and/or second-order correction.
 Total Energy, E(TD-HF/TD-DFT) =  -3005.24674393
 Copying the excited state density for this state as the 1-particle RhoCI density.

 Excited State   2:      Singlet-A      2.2082 eV  561.48 nm  f=0.0978  <S**2>=0.000
     245 -> 247        0.65022
     246 -> 248        0.26963

 Excited State   3:      Singlet-A      2.8647 eV  432.81 nm  f=0.0003  <S**2>=0.000
     242 -> 247        0.62144
     242 -> 249       -0.19726
     244 -> 247        0.18826

 Excited State   4:      Singlet-A      3.0834 eV  402.11 nm  f=0.0006  <S**2>=0.000
     242 -> 247       -0.19186
     243 -> 247        0.44676
     244 -> 247        0.46119

 Excited State   5:      Singlet-A      3.2118 eV  386.03 nm  f=0.0803  <S**2>=0.000
     241 -> 247        0.58630
     244 -> 247       -0.10851
     245 -> 247       -0.10547
     246 -> 248        0.31282

 The electronic state is 1-A.
 Alpha  occ. eigenvalues --  -46.94153 -19.25781 -19.25742 -19.19318 -19.19071
 Alpha  occ. eigenvalues --  -19.19051 -19.18569 -14.42351 -14.41095 -14.40034
 Alpha  occ. eigenvalues --  -14.39556 -10.35829 -10.35609 -10.32241 -10.31816
 Alpha  occ. eigenvalues --  -10.29780 -10.29755 -10.29611 -10.28891 -10.28796
 Alpha  occ. eigenvalues --  -10.28601 -10.28407 -10.28036 -10.27982 -10.27061
 Alpha  occ. eigenvalues --  -10.26888 -10.26860 -10.26542 -10.26524 -10.26302
 Alpha  occ. eigenvalues --  -10.26047 -10.25940 -10.25766 -10.25175 -10.25159
 Alpha  occ. eigenvalues --  -10.24999 -10.24903 -10.24749 -10.24710 -10.24585
 Alpha  occ. eigenvalues --  -10.24477 -10.24472 -10.24270 -10.23960 -10.23750
 Alpha  occ. eigenvalues --  -10.23571 -10.23548 -10.23333 -10.23321 -10.23236
 Alpha  occ. eigenvalues --  -10.23208 -10.23143 -10.22871 -10.22649 -10.22495
 Alpha  occ. eigenvalues --  -10.22494 -10.22472 -10.22163 -10.21931 -10.21900
 Alpha  occ. eigenvalues --  -10.21645 -10.21635 -10.21571 -10.21565 -10.21417
 Alpha  occ. eigenvalues --  -10.21306  -3.16077  -1.88880  -1.88458  -1.88290
 Alpha  occ. eigenvalues --   -1.11678  -1.11378  -1.05099  -1.02343  -1.02117
 Alpha  occ. eigenvalues --   -1.01886  -0.99472  -0.98873  -0.98294  -0.97575
 Alpha  occ. eigenvalues --   -0.87545  -0.85246  -0.84190  -0.83856  -0.83048
 Alpha  occ. eigenvalues --   -0.82711  -0.82207  -0.81616  -0.81548  -0.81038
 Alpha  occ. eigenvalues --   -0.80761  -0.79997  -0.78307  -0.77985  -0.77673
 Alpha  occ. eigenvalues --   -0.76928  -0.76477  -0.75611  -0.75117  -0.74642
 Alpha  occ. eigenvalues --   -0.74273  -0.72677  -0.72330  -0.71928  -0.70856
 Alpha  occ. eigenvalues --   -0.70439  -0.69752  -0.69691  -0.68694  -0.67860
 Alpha  occ. eigenvalues --   -0.67435  -0.66898  -0.65874  -0.64772  -0.63519
 Alpha  occ. eigenvalues --   -0.63371  -0.61874  -0.61726  -0.60539  -0.60498
 Alpha  occ. eigenvalues --   -0.60333  -0.59422  -0.59357  -0.59004  -0.58137
 Alpha  occ. eigenvalues --   -0.57766  -0.57516  -0.57243  -0.56368  -0.54470
 Alpha  occ. eigenvalues --   -0.54267  -0.54190  -0.53816  -0.53130  -0.52350
 Alpha  occ. eigenvalues --   -0.51958  -0.51703  -0.51172  -0.50994  -0.50245
 Alpha  occ. eigenvalues --   -0.50161  -0.48925  -0.48798  -0.48609  -0.48385
 Alpha  occ. eigenvalues --   -0.47990  -0.47940  -0.47849  -0.47459  -0.47313
 Alpha  occ. eigenvalues --   -0.47246  -0.47041  -0.46862  -0.46649  -0.46499
 Alpha  occ. eigenvalues --   -0.46230  -0.46100  -0.45844  -0.45609  -0.45496
 Alpha  occ. eigenvalues --   -0.45284  -0.44940  -0.44730  -0.44523  -0.44372
 Alpha  occ. eigenvalues --   -0.44089  -0.43979  -0.43749  -0.43600  -0.43544
 Alpha  occ. eigenvalues --   -0.43301  -0.43106  -0.42889  -0.42760  -0.42313
 Alpha  occ. eigenvalues --   -0.42054  -0.41819  -0.41681  -0.41564  -0.41253
 Alpha  occ. eigenvalues --   -0.41224  -0.41080  -0.40883  -0.40739  -0.40610
 Alpha  occ. eigenvalues --   -0.40524  -0.40364  -0.40144  -0.39776  -0.39471
 Alpha  occ. eigenvalues --   -0.39336  -0.39121  -0.38978  -0.38892  -0.38772
 Alpha  occ. eigenvalues --   -0.38451  -0.38312  -0.38171  -0.37950  -0.37803
 Alpha  occ. eigenvalues --   -0.37652  -0.37621  -0.37366  -0.37158  -0.36767
 Alpha  occ. eigenvalues --   -0.36746  -0.36605  -0.36396  -0.36142  -0.36061
 Alpha  occ. eigenvalues --   -0.35713  -0.35658  -0.35066  -0.34982  -0.34608
 Alpha  occ. eigenvalues --   -0.34481  -0.34296  -0.33996  -0.33957  -0.33399
 Alpha  occ. eigenvalues --   -0.33295  -0.33082  -0.33053  -0.32561  -0.32388
 Alpha  occ. eigenvalues --   -0.32213  -0.31838  -0.31779  -0.31621  -0.31451
 Alpha  occ. eigenvalues --   -0.30998  -0.30637  -0.29906  -0.29601  -0.29102
 Alpha  occ. eigenvalues --   -0.28475  -0.28330  -0.27823  -0.26796  -0.26081
 Alpha  occ. eigenvalues --   -0.25869  -0.25514  -0.25455  -0.25443  -0.20916
 Alpha  occ. eigenvalues --   -0.18882
 Alpha virt. eigenvalues --   -0.11173  -0.05606  -0.04565  -0.02389  -0.02096
 Alpha virt. eigenvalues --   -0.00276   0.01085   0.01250   0.01717   0.03196
 Alpha virt. eigenvalues --    0.03979   0.04499   0.05066   0.05627   0.05716

 Mulliken charges:
               1
     1  Mg   0.979249
     2  C   -0.001499
     3  C   -0.058830
     4  C   -0.024982
     5  C   -0.093354
     6  N   -0.339016
     7  C    0.036150
     8  C   -0.155088
     9  C   -0.146166
    10  C    0.048444
    11  C    0.036947
    12  C    0.021812
    13  C   -0.006587
    14  C    0.186735
    15  O   -0.263166
    16  O   -0.343881
    17  N   -0.479041
    18  C    0.170492
    19  C   -0.235692
    20  C   -0.055026
    21  C    0.178400
    22  C    0.145186
    23  C    0.020387
    24  O   -0.233260
    25  C   -0.004713
    26  N   -0.346647
    27  C    0.001458
    28  C   -0.133710
    29  C   -0.076926
    30  C    0.069203
    31  C    0.006453
    32  C   -0.032863
    33  C   -0.095211
    34  N   -0.464824
    35  C    0.135416
    36  C   -0.188469
    37  C   -0.000099
    38  C    0.122640
    39  C    0.085685
    40  C    0.097462
    41  O   -0.255176
    42  C   -0.127717
    43  C    0.277993
    44  O   -0.237334
    45  O   -0.374616
    46  C    0.125938
    47  C    0.265914
    48  C   -0.213260
    49  C   -0.149259
    50  C    0.038044
    51  C    0.024503
    52  C   -0.054247
    53  C   -0.077830
    54  C   -0.246997
    55  C    0.045088
    56  C   -0.021474
    57  C   -0.059413
    58  C    0.036761
    59  C   -0.249539
    60  C    0.018700
    61  C   -0.000068
    62  C   -0.095802
    63  C   -0.004404
    64  C   -0.253258
    65  C    0.005776
    66  C   -0.003160
    67  H    0.004837
    68  H   -0.028392
    69  H   -0.003903
    70  H    0.075915
    71  H    0.048740
    72  H    0.041528
    73  H    0.051781
    74  H    0.053346
    75  H    0.050480
    76  H    0.051501
    77  H    0.081810
    78  H    0.059109
    79  H   -0.008107
    80  H    0.085883
    81  H    0.050232
    82  H    0.064998
    83  H    0.064699
    84  H    0.047849
    85  H    0.053320
    86  H    0.046071
    87  H    0.048946
    88  H    0.060253
    89  H    0.037277
    90  H    0.053404
    91  H    0.045813
    92  H    0.037769
    93  H    0.050044
    94  H    0.034856
    95  H    0.057555
    96  H    0.060822
    97  H    0.079490
    98  H    0.081145
    99  H    0.061184
   100  H    0.056936
   101  H    0.076929
   102  H    0.060613
   103  H    0.059608
   104  H    0.035775
   105  H    0.034902
   106  H    0.039502
   107  H    0.059398
   108  H    0.013575
   109  H    0.042739
   110  H    0.028002
   111  H    0.039307
   112  H    0.024926
   113  H    0.038134
   114  H    0.032548
   115  H    0.021886
   116  H    0.038313
   117  H    0.039277
   118  H    0.026129
   119  H    0.038381
   120  H    0.021524
   121  H    0.030899
   122  H    0.012779
   123  H    0.027233
   124  H    0.032943
   125  H    0.034089
   126  H    0.035659
   127  H    0.043069
   128  H    0.022662
   129  H    0.013200
   130  H    0.036305
   131  H    0.017054
   132  H    0.024167
   133  H    0.030978
   134  H    0.037005
   135  H    0.025548
   136  H    0.043875
   137  H    0.027519
   138  H    0.035977
   139  H    0.032574
   140  H    0.029570
 Sum of Mulliken charges =  -0.00000

 Dipole moment (field-independent basis, Debye):
    X=              2.1273    Y=              5.3306    Z=              0.4712  Tot=              5.7587
 Quadrupole moment (field-independent basis, Debye-Ang):
   XX=           -351.5422   YY=           -443.3435   ZZ=           -413.3236
   XY=             16.6797   XZ=              9.7231   YZ=             40.0038

 Normal termination of Gaussian 16 at Fri Apr 29 23:57:20 2022.
