 Gaussian 16, Revision A.03,
 Gaussian 16:  ES64L-G16RevA.03 25-Dec-2016

 --------------------------------
 #p wB97XD/Def2SVP td=(nstates=5)
 --------------------------------

 ---------------------------------------------------
 step_51_chromophore_14 TDDFT with wB97XD functional
 ---------------------------------------------------
 Symbolic Z-matrix:
 Charge =  0 Multiplicity = 1

                         Standard orientation:
 ---------------------------------------------------------------------
 Center     Atomic      Atomic             Coordinates (Angstroms)
 Number     Number       Type             X           Y           Z
 ---------------------------------------------------------------------
      1         12           0        5.467607    0.686443   -0.190225
      2          6           0        4.233290   -2.499800    0.686533
      3          6           0        3.692717    0.419490   -3.150754
      4          6           0        5.688809    4.045827   -0.572606
      5          6           0        6.273344    1.135614    3.260946
      6          7           0        4.260137   -0.939368   -1.185561
      7          6           0        3.808471   -2.082702   -0.639763
      8          6           0        2.893192   -2.968970   -1.559742
      9          6           0        3.051763   -2.138018   -2.899095
     10          6           0        3.765351   -0.795979   -2.425690
     11          6           0        3.874580   -2.895927   -3.949586
     12          6           0        1.395643   -2.954067   -1.006453
     13          6           0        0.743131   -4.330213   -1.154990
     14          6           0       -0.652472   -4.329202   -1.749980
     15          8           0       -1.000005   -4.966963   -2.724349
     16          8           0       -1.479046   -3.535325   -1.070454
     17          7           0        4.871111    1.994599   -1.708730
     18          6           0        4.221965    1.723669   -2.876686
     19          6           0        4.080513    2.911871   -3.706386
     20          6           0        4.828509    3.926035   -3.051796
     21          6           0        5.173352    3.335600   -1.736776
     22          6           0        3.480471    3.073830   -5.072809
     23          6           0        5.081248    5.352271   -3.503249
     24          8           0        4.685761    5.705209   -4.597149
     25          6           0        5.796564    6.375679   -2.704856
     26          7           0        5.827661    2.392348    1.250499
     27          6           0        6.029130    3.599491    0.695318
     28          6           0        6.703503    4.553339    1.741812
     29          6           0        6.740183    3.637515    3.082594
     30          6           0        6.219433    2.346681    2.534864
     31          6           0        8.102287    5.071121    1.251371
     32          6           0        5.821248    4.179250    4.287133
     33          6           0        6.593290    4.777849    5.506963
     34          7           0        5.466742   -0.432404    1.548046
     35          6           0        5.853852   -0.149355    2.810599
     36          6           0        5.897082   -1.332716    3.680146
     37          6           0        5.247278   -2.297486    2.854772
     38          6           0        4.973137   -1.709871    1.573385
     39          6           0        6.464473   -1.409389    5.100828
     40          6           0        4.817897   -3.639862    2.792915
     41          8           0        4.842056   -4.594885    3.627945
     42          6           0        4.075020   -3.807921    1.392337
     43          6           0        4.701033   -4.974982    0.672881
     44          8           0        4.379873   -6.132710    0.785435
     45          8           0        5.752971   -4.569306   -0.072847
     46          6           0        6.625734   -5.665115   -0.617923
     47          6           0       -2.923447   -3.571872   -1.449703
     48          6           0       -3.503669   -2.121970   -1.239647
     49          6           0       -3.956030   -1.209467   -2.135065
     50          6           0       -3.877390   -1.256780   -3.646059
     51          6           0       -4.382353    0.025326   -1.522810
     52          6           0       -5.800067    0.256310   -0.972769
     53          6           0       -5.912188    0.064202    0.608930
     54          6           0       -7.350560    0.527885    1.200168
     55          6           0       -7.236436    1.002654    2.622539
     56          6           0       -8.343132   -0.714633    0.980418
     57          6           0       -9.614245   -0.273323    0.190823
     58          6           0      -10.818949   -1.102873    0.620642
     59          6           0      -11.923713   -0.290288    1.295067
     60          6           0      -12.524612   -0.987031    2.530389
     61          6           0      -13.074954    0.015476    0.297364
     62          6           0      -13.703179    1.332731    0.713758
     63          6           0      -15.112107    1.572694   -0.000373
     64          6           0      -15.924048    2.561846    0.824957
     65          6           0      -17.445440    2.364411    0.645710
     66          6           0      -15.403357    3.947526    0.474348
     67          1           0        3.207169    0.250051   -4.114915
     68          1           0        5.972339    5.100911   -0.578864
     69          1           0        6.740277    1.182091    4.246436
     70          1           0        3.238038   -4.002926   -1.588153
     71          1           0        2.083641   -1.833250   -3.296532
     72          1           0        4.106638   -3.835826   -3.448395
     73          1           0        4.789696   -2.455824   -4.345021
     74          1           0        3.130214   -2.907612   -4.746272
     75          1           0        0.815772   -2.209210   -1.551759
     76          1           0        1.418156   -2.601792    0.025827
     77          1           0        0.808230   -4.782470   -0.165235
     78          1           0        1.267002   -4.937949   -1.892622
     79          1           0        2.941008    2.141973   -5.241894
     80          1           0        4.219451    3.204289   -5.864090
     81          1           0        2.568794    3.642767   -4.893591
     82          1           0        6.748820    6.036341   -2.296502
     83          1           0        5.161934    6.808993   -1.931957
     84          1           0        5.918500    7.232190   -3.367860
     85          1           0        6.051298    5.425223    1.793208
     86          1           0        7.716576    3.484455    3.542018
     87          1           0        8.474909    4.514741    0.391909
     88          1           0        8.763418    5.163466    2.113356
     89          1           0        7.832175    6.007256    0.763019
     90          1           0        5.222254    3.384950    4.732809
     91          1           0        5.198688    5.004998    3.943805
     92          1           0        6.215514    4.287165    6.403151
     93          1           0        6.427023    5.851952    5.591339
     94          1           0        7.658062    4.563941    5.593753
     95          1           0        5.893872   -0.645180    5.628526
     96          1           0        7.502669   -1.077640    5.078157
     97          1           0        6.256391   -2.420179    5.451578
     98          1           0        3.022668   -3.931703    1.646359
     99          1           0        7.418023   -5.165353   -1.174852
    100          1           0        6.144308   -6.305397   -1.356474
    101          1           0        6.886592   -6.286297    0.238191
    102          1           0       -3.572573   -4.094354   -0.747801
    103          1           0       -3.151575   -3.668799   -2.511347
    104          1           0       -3.672511   -1.966356   -0.174252
    105          1           0       -4.885523   -1.146746   -4.045489
    106          1           0       -3.642088   -2.253528   -4.020106
    107          1           0       -3.381072   -0.421334   -4.139500
    108          1           0       -4.385709    0.848712   -2.236088
    109          1           0       -3.754952    0.346696   -0.691938
    110          1           0       -6.401435   -0.595437   -1.288920
    111          1           0       -6.257792    1.201243   -1.266242
    112          1           0       -5.128940    0.566381    1.176764
    113          1           0       -5.822281   -1.008257    0.782881
    114          1           0       -7.754475    1.359237    0.622316
    115          1           0       -6.168258    1.160283    2.776485
    116          1           0       -7.603912    0.195566    3.255056
    117          1           0       -7.705821    1.985893    2.665051
    118          1           0       -8.639837   -1.090081    1.959854
    119          1           0       -7.861894   -1.525809    0.434548
    120          1           0       -9.375290   -0.535469   -0.840456
    121          1           0       -9.754816    0.806858    0.170491
    122          1           0      -10.486891   -1.796554    1.393524
    123          1           0      -11.137068   -1.658747   -0.262086
    124          1           0      -11.486060    0.664730    1.584732
    125          1           0      -12.426706   -0.188848    3.265934
    126          1           0      -11.914144   -1.838942    2.829272
    127          1           0      -13.582619   -1.200837    2.378123
    128          1           0      -13.828131   -0.767846    0.222196
    129          1           0      -12.744407    0.132614   -0.734460
    130          1           0      -12.944374    2.096092    0.544582
    131          1           0      -13.862830    1.257100    1.789922
    132          1           0      -15.704743    0.679752   -0.196867
    133          1           0      -14.769475    2.030639   -0.927916
    134          1           0      -15.644843    2.377250    1.862606
    135          1           0      -17.822096    2.937383   -0.200584
    136          1           0      -17.914727    2.694316    1.572869
    137          1           0      -17.708415    1.352412    0.337856
    138          1           0      -14.707699    4.185008    1.278003
    139          1           0      -16.207371    4.675665    0.366856
    140          1           0      -14.841360    3.964965   -0.459721
 ---------------------------------------------------------------------

 SCF Done:  E(RwB97XD) =  -3007.82120714     A.U. after   17 cycles

 Excitation energies and oscillator strengths:

 Excited State   1:      Singlet-A      1.6630 eV  745.56 nm  f=0.3667  <S**2>=0.000
     245 -> 248       -0.20410
     246 -> 247        0.67822
     245 <- 248       -0.12047
 This state for optimization and/or second-order correction.
 Total Energy, E(TD-HF/TD-DFT) =  -3007.76009422
 Copying the excited state density for this state as the 1-particle RhoCI density.

 Excited State   2:      Singlet-A      2.1686 eV  571.72 nm  f=0.0944  <S**2>=0.000
     245 -> 247        0.63222
     246 -> 248        0.30621

 Excited State   3:      Singlet-A      3.2756 eV  378.51 nm  f=0.0004  <S**2>=0.000
     239 -> 247        0.11070
     240 -> 247        0.44516
     240 -> 249       -0.30360
     240 -> 251        0.11005
     241 -> 247        0.20608
     241 -> 249       -0.13231
     242 -> 247        0.23278
     242 -> 249       -0.13119

 Excited State   4:      Singlet-A      3.4328 eV  361.17 nm  f=0.5235  <S**2>=0.000
     240 -> 247        0.14106
     242 -> 247       -0.21833
     245 -> 247       -0.26103
     246 -> 248        0.58029
     245 <- 247        0.10781

 Excited State   5:      Singlet-A      3.5959 eV  344.80 nm  f=0.0624  <S**2>=0.000
     240 -> 247        0.13357
     242 -> 247       -0.21182
     243 -> 247        0.56317
     243 -> 249        0.11066
     244 -> 247        0.18303
     246 -> 248       -0.16237

 The electronic state is 1-A.
 Alpha  occ. eigenvalues --  -46.97099 -19.30425 -19.30377 -19.24142 -19.24090
 Alpha  occ. eigenvalues --  -19.23727 -19.23208 -14.47552 -14.46077 -14.44897
 Alpha  occ. eigenvalues --  -14.44587 -10.42781 -10.42397 -10.39318 -10.38475
 Alpha  occ. eigenvalues --  -10.36295 -10.36226 -10.36116 -10.35078 -10.35019
 Alpha  occ. eigenvalues --  -10.34924 -10.34625 -10.34571 -10.34056 -10.33557
 Alpha  occ. eigenvalues --  -10.33525 -10.33157 -10.32746 -10.32714 -10.32628
 Alpha  occ. eigenvalues --  -10.32499 -10.32419 -10.32020 -10.31607 -10.31523
 Alpha  occ. eigenvalues --  -10.31368 -10.31321 -10.31208 -10.31017 -10.30990
 Alpha  occ. eigenvalues --  -10.30812 -10.30610 -10.30609 -10.30392 -10.30296
 Alpha  occ. eigenvalues --  -10.29934 -10.29888 -10.29705 -10.29680 -10.29575
 Alpha  occ. eigenvalues --  -10.29555 -10.29491 -10.29194 -10.28907 -10.28848
 Alpha  occ. eigenvalues --  -10.28803 -10.28765 -10.28530 -10.28273 -10.28250
 Alpha  occ. eigenvalues --  -10.28058 -10.28051 -10.27984 -10.27926 -10.27764
 Alpha  occ. eigenvalues --  -10.27727  -3.22924  -1.96469  -1.96047  -1.95877
 Alpha  occ. eigenvalues --   -1.19066  -1.18893  -1.12409  -1.09869  -1.09552
 Alpha  occ. eigenvalues --   -1.09465  -1.06904  -1.06258  -1.05693  -1.04826
 Alpha  occ. eigenvalues --   -0.95324  -0.92896  -0.91842  -0.91505  -0.90620
 Alpha  occ. eigenvalues --   -0.90363  -0.89777  -0.89287  -0.89229  -0.88669
 Alpha  occ. eigenvalues --   -0.88280  -0.87620  -0.85958  -0.85662  -0.85313
 Alpha  occ. eigenvalues --   -0.84576  -0.84148  -0.83262  -0.82778  -0.82298
 Alpha  occ. eigenvalues --   -0.81932  -0.80375  -0.79957  -0.79495  -0.78534
 Alpha  occ. eigenvalues --   -0.78093  -0.77445  -0.77248  -0.76359  -0.75509
 Alpha  occ. eigenvalues --   -0.75026  -0.74515  -0.73393  -0.72397  -0.71097
 Alpha  occ. eigenvalues --   -0.70925  -0.69361  -0.69332  -0.68088  -0.68000
 Alpha  occ. eigenvalues --   -0.67883  -0.67017  -0.66865  -0.66458  -0.65819
 Alpha  occ. eigenvalues --   -0.65254  -0.65044  -0.64886  -0.63998  -0.62008
 Alpha  occ. eigenvalues --   -0.61768  -0.61657  -0.61110  -0.60506  -0.59840
 Alpha  occ. eigenvalues --   -0.59479  -0.59166  -0.58689  -0.58348  -0.57766
 Alpha  occ. eigenvalues --   -0.57597  -0.56352  -0.56183  -0.56039  -0.55865
 Alpha  occ. eigenvalues --   -0.55392  -0.55339  -0.55214  -0.54842  -0.54664
 Alpha  occ. eigenvalues --   -0.54618  -0.54415  -0.54216  -0.53988  -0.53849
 Alpha  occ. eigenvalues --   -0.53701  -0.53468  -0.53116  -0.52939  -0.52843
 Alpha  occ. eigenvalues --   -0.52657  -0.52344  -0.52019  -0.51861  -0.51724
 Alpha  occ. eigenvalues --   -0.51418  -0.51301  -0.51035  -0.50934  -0.50838
 Alpha  occ. eigenvalues --   -0.50667  -0.50397  -0.50157  -0.50027  -0.49596
 Alpha  occ. eigenvalues --   -0.49301  -0.49081  -0.48897  -0.48799  -0.48552
 Alpha  occ. eigenvalues --   -0.48479  -0.48235  -0.48096  -0.47943  -0.47834
 Alpha  occ. eigenvalues --   -0.47691  -0.47569  -0.47363  -0.46892  -0.46693
 Alpha  occ. eigenvalues --   -0.46544  -0.46243  -0.46144  -0.46063  -0.45902
 Alpha  occ. eigenvalues --   -0.45660  -0.45384  -0.45324  -0.45140  -0.44918
 Alpha  occ. eigenvalues --   -0.44747  -0.44662  -0.44420  -0.44247  -0.43945
 Alpha  occ. eigenvalues --   -0.43880  -0.43766  -0.43533  -0.43256  -0.43077
 Alpha  occ. eigenvalues --   -0.42806  -0.42698  -0.42102  -0.42026  -0.41698
 Alpha  occ. eigenvalues --   -0.41461  -0.41337  -0.40973  -0.40879  -0.40446
 Alpha  occ. eigenvalues --   -0.40377  -0.40103  -0.39995  -0.39624  -0.39451
 Alpha  occ. eigenvalues --   -0.39257  -0.38996  -0.38853  -0.38516  -0.38395
 Alpha  occ. eigenvalues --   -0.38011  -0.37655  -0.36774  -0.36459  -0.36112
 Alpha  occ. eigenvalues --   -0.35582  -0.35139  -0.34632  -0.33364  -0.32865
 Alpha  occ. eigenvalues --   -0.32758  -0.32599  -0.32159  -0.32122  -0.25881
 Alpha  occ. eigenvalues --   -0.23031
 Alpha virt. eigenvalues --   -0.07024  -0.00254   0.01648   0.03661   0.04453
 Alpha virt. eigenvalues --    0.06391   0.07855   0.07989   0.08486   0.09659
 Alpha virt. eigenvalues --    0.10601   0.11200   0.11853   0.12421   0.12439

 Mulliken charges:
               1
     1  Mg   0.974276
     2  C   -0.004172
     3  C   -0.069804
     4  C   -0.034392
     5  C   -0.119672
     6  N   -0.301885
     7  C    0.005495
     8  C   -0.127486
     9  C   -0.117448
    10  C    0.024401
    11  C    0.044118
    12  C    0.027558
    13  C    0.010995
    14  C    0.177167
    15  O   -0.260824
    16  O   -0.343919
    17  N   -0.446223
    18  C    0.160109
    19  C   -0.227767
    20  C   -0.055138
    21  C    0.170945
    22  C    0.159661
    23  C    0.016704
    24  O   -0.230042
    25  C    0.009144
    26  N   -0.313933
    27  C   -0.012724
    28  C   -0.107533
    29  C   -0.054790
    30  C    0.060364
    31  C    0.018074
    32  C   -0.020429
    33  C   -0.079998
    34  N   -0.428149
    35  C    0.135604
    36  C   -0.191176
    37  C    0.004917
    38  C    0.106848
    39  C    0.099058
    40  C    0.080439
    41  O   -0.244072
    42  C   -0.085759
    43  C    0.254897
    44  O   -0.231262
    45  O   -0.373891
    46  C    0.140929
    47  C    0.286520
    48  C   -0.224138
    49  C   -0.136005
    50  C    0.051266
    51  C    0.044162
    52  C   -0.036981
    53  C   -0.052788
    54  C   -0.220655
    55  C    0.057883
    56  C   -0.006393
    57  C   -0.042685
    58  C    0.054376
    59  C   -0.215081
    60  C    0.028708
    61  C    0.011500
    62  C   -0.075373
    63  C    0.014796
    64  C   -0.221752
    65  C    0.017947
    66  C    0.005288
    67  H   -0.001317
    68  H   -0.045022
    69  H   -0.010036
    70  H    0.058718
    71  H    0.038720
    72  H    0.034721
    73  H    0.047051
    74  H    0.048179
    75  H    0.043254
    76  H    0.043053
    77  H    0.076542
    78  H    0.052442
    79  H   -0.016834
    80  H    0.083103
    81  H    0.045133
    82  H    0.058579
    83  H    0.060013
    84  H    0.045788
    85  H    0.043535
    86  H    0.035098
    87  H    0.042172
    88  H    0.054969
    89  H    0.030754
    90  H    0.045127
    91  H    0.038700
    92  H    0.031576
    93  H    0.044686
    94  H    0.028532
    95  H    0.052298
    96  H    0.056784
    97  H    0.077515
    98  H    0.074719
    99  H    0.058853
   100  H    0.053336
   101  H    0.073225
   102  H    0.056821
   103  H    0.050868
   104  H    0.030122
   105  H    0.027783
   106  H    0.034682
   107  H    0.055400
   108  H    0.006540
   109  H    0.033531
   110  H    0.013851
   111  H    0.032768
   112  H    0.014422
   113  H    0.023916
   114  H    0.018520
   115  H    0.014806
   116  H    0.032163
   117  H    0.034536
   118  H    0.013678
   119  H    0.029216
   120  H    0.012713
   121  H    0.020954
   122  H   -0.000449
   123  H    0.020495
   124  H    0.017263
   125  H    0.028201
   126  H    0.030740
   127  H    0.036980
   128  H    0.013036
   129  H    0.003984
   130  H    0.027573
   131  H    0.001838
   132  H    0.015663
   133  H    0.018896
   134  H    0.024538
   135  H    0.018952
   136  H    0.038959
   137  H    0.021459
   138  H    0.030558
   139  H    0.027579
   140  H    0.022671
 Sum of Mulliken charges =  -0.00000

 Dipole moment (field-independent basis, Debye):
    X=              2.2488    Y=              5.0182    Z=              0.7192  Tot=              5.5459
 Quadrupole moment (field-independent basis, Debye-Ang):
   XX=           -349.7329   YY=           -443.0639   ZZ=           -413.2584
   XY=             14.7529   XZ=             10.5919   YZ=             39.6023

 Normal termination of Gaussian 16 at Sat Apr 30 00:23:20 2022.
