 Gaussian 16, Revision A.03,
 Gaussian 16:  ES64L-G16RevA.03 25-Dec-2016

 --------------------
 #p ZINDO=(nstates=5)
 --------------------

 ----------------------------
 step_51_chromophore_14 ZINDO
 ----------------------------
 Symbolic Z-matrix:
 Charge =  0 Multiplicity = 1

                         Standard orientation:
 ---------------------------------------------------------------------
 Center     Atomic      Atomic             Coordinates (Angstroms)
 Number     Number       Type             X           Y           Z
 ---------------------------------------------------------------------
      1         12           0        5.467607    0.686443   -0.190225
      2          6           0        4.233290   -2.499800    0.686533
      3          6           0        3.692717    0.419490   -3.150754
      4          6           0        5.688809    4.045827   -0.572606
      5          6           0        6.273344    1.135614    3.260946
      6          7           0        4.260137   -0.939368   -1.185561
      7          6           0        3.808471   -2.082702   -0.639763
      8          6           0        2.893192   -2.968970   -1.559742
      9          6           0        3.051763   -2.138018   -2.899095
     10          6           0        3.765351   -0.795979   -2.425690
     11          6           0        3.874580   -2.895927   -3.949586
     12          6           0        1.395643   -2.954067   -1.006453
     13          6           0        0.743131   -4.330213   -1.154990
     14          6           0       -0.652472   -4.329202   -1.749980
     15          8           0       -1.000005   -4.966963   -2.724349
     16          8           0       -1.479046   -3.535325   -1.070454
     17          7           0        4.871111    1.994599   -1.708730
     18          6           0        4.221965    1.723669   -2.876686
     19          6           0        4.080513    2.911871   -3.706386
     20          6           0        4.828509    3.926035   -3.051796
     21          6           0        5.173352    3.335600   -1.736776
     22          6           0        3.480471    3.073830   -5.072809
     23          6           0        5.081248    5.352271   -3.503249
     24          8           0        4.685761    5.705209   -4.597149
     25          6           0        5.796564    6.375679   -2.704856
     26          7           0        5.827661    2.392348    1.250499
     27          6           0        6.029130    3.599491    0.695318
     28          6           0        6.703503    4.553339    1.741812
     29          6           0        6.740183    3.637515    3.082594
     30          6           0        6.219433    2.346681    2.534864
     31          6           0        8.102287    5.071121    1.251371
     32          6           0        5.821248    4.179250    4.287133
     33          6           0        6.593290    4.777849    5.506963
     34          7           0        5.466742   -0.432404    1.548046
     35          6           0        5.853852   -0.149355    2.810599
     36          6           0        5.897082   -1.332716    3.680146
     37          6           0        5.247278   -2.297486    2.854772
     38          6           0        4.973137   -1.709871    1.573385
     39          6           0        6.464473   -1.409389    5.100828
     40          6           0        4.817897   -3.639862    2.792915
     41          8           0        4.842056   -4.594885    3.627945
     42          6           0        4.075020   -3.807921    1.392337
     43          6           0        4.701033   -4.974982    0.672881
     44          8           0        4.379873   -6.132710    0.785435
     45          8           0        5.752971   -4.569306   -0.072847
     46          6           0        6.625734   -5.665115   -0.617923
     47          6           0       -2.923447   -3.571872   -1.449703
     48          6           0       -3.503669   -2.121970   -1.239647
     49          6           0       -3.956030   -1.209467   -2.135065
     50          6           0       -3.877390   -1.256780   -3.646059
     51          6           0       -4.382353    0.025326   -1.522810
     52          6           0       -5.800067    0.256310   -0.972769
     53          6           0       -5.912188    0.064202    0.608930
     54          6           0       -7.350560    0.527885    1.200168
     55          6           0       -7.236436    1.002654    2.622539
     56          6           0       -8.343132   -0.714633    0.980418
     57          6           0       -9.614245   -0.273323    0.190823
     58          6           0      -10.818949   -1.102873    0.620642
     59          6           0      -11.923713   -0.290288    1.295067
     60          6           0      -12.524612   -0.987031    2.530389
     61          6           0      -13.074954    0.015476    0.297364
     62          6           0      -13.703179    1.332731    0.713758
     63          6           0      -15.112107    1.572694   -0.000373
     64          6           0      -15.924048    2.561846    0.824957
     65          6           0      -17.445440    2.364411    0.645710
     66          6           0      -15.403357    3.947526    0.474348
     67          1           0        3.207169    0.250051   -4.114915
     68          1           0        5.972339    5.100911   -0.578864
     69          1           0        6.740277    1.182091    4.246436
     70          1           0        3.238038   -4.002926   -1.588153
     71          1           0        2.083641   -1.833250   -3.296532
     72          1           0        4.106638   -3.835826   -3.448395
     73          1           0        4.789696   -2.455824   -4.345021
     74          1           0        3.130214   -2.907612   -4.746272
     75          1           0        0.815772   -2.209210   -1.551759
     76          1           0        1.418156   -2.601792    0.025827
     77          1           0        0.808230   -4.782470   -0.165235
     78          1           0        1.267002   -4.937949   -1.892622
     79          1           0        2.941008    2.141973   -5.241894
     80          1           0        4.219451    3.204289   -5.864090
     81          1           0        2.568794    3.642767   -4.893591
     82          1           0        6.748820    6.036341   -2.296502
     83          1           0        5.161934    6.808993   -1.931957
     84          1           0        5.918500    7.232190   -3.367860
     85          1           0        6.051298    5.425223    1.793208
     86          1           0        7.716576    3.484455    3.542018
     87          1           0        8.474909    4.514741    0.391909
     88          1           0        8.763418    5.163466    2.113356
     89          1           0        7.832175    6.007256    0.763019
     90          1           0        5.222254    3.384950    4.732809
     91          1           0        5.198688    5.004998    3.943805
     92          1           0        6.215514    4.287165    6.403151
     93          1           0        6.427023    5.851952    5.591339
     94          1           0        7.658062    4.563941    5.593753
     95          1           0        5.893872   -0.645180    5.628526
     96          1           0        7.502669   -1.077640    5.078157
     97          1           0        6.256391   -2.420179    5.451578
     98          1           0        3.022668   -3.931703    1.646359
     99          1           0        7.418023   -5.165353   -1.174852
    100          1           0        6.144308   -6.305397   -1.356474
    101          1           0        6.886592   -6.286297    0.238191
    102          1           0       -3.572573   -4.094354   -0.747801
    103          1           0       -3.151575   -3.668799   -2.511347
    104          1           0       -3.672511   -1.966356   -0.174252
    105          1           0       -4.885523   -1.146746   -4.045489
    106          1           0       -3.642088   -2.253528   -4.020106
    107          1           0       -3.381072   -0.421334   -4.139500
    108          1           0       -4.385709    0.848712   -2.236088
    109          1           0       -3.754952    0.346696   -0.691938
    110          1           0       -6.401435   -0.595437   -1.288920
    111          1           0       -6.257792    1.201243   -1.266242
    112          1           0       -5.128940    0.566381    1.176764
    113          1           0       -5.822281   -1.008257    0.782881
    114          1           0       -7.754475    1.359237    0.622316
    115          1           0       -6.168258    1.160283    2.776485
    116          1           0       -7.603912    0.195566    3.255056
    117          1           0       -7.705821    1.985893    2.665051
    118          1           0       -8.639837   -1.090081    1.959854
    119          1           0       -7.861894   -1.525809    0.434548
    120          1           0       -9.375290   -0.535469   -0.840456
    121          1           0       -9.754816    0.806858    0.170491
    122          1           0      -10.486891   -1.796554    1.393524
    123          1           0      -11.137068   -1.658747   -0.262086
    124          1           0      -11.486060    0.664730    1.584732
    125          1           0      -12.426706   -0.188848    3.265934
    126          1           0      -11.914144   -1.838942    2.829272
    127          1           0      -13.582619   -1.200837    2.378123
    128          1           0      -13.828131   -0.767846    0.222196
    129          1           0      -12.744407    0.132614   -0.734460
    130          1           0      -12.944374    2.096092    0.544582
    131          1           0      -13.862830    1.257100    1.789922
    132          1           0      -15.704743    0.679752   -0.196867
    133          1           0      -14.769475    2.030639   -0.927916
    134          1           0      -15.644843    2.377250    1.862606
    135          1           0      -17.822096    2.937383   -0.200584
    136          1           0      -17.914727    2.694316    1.572869
    137          1           0      -17.708415    1.352412    0.337856
    138          1           0      -14.707699    4.185008    1.278003
    139          1           0      -16.207371    4.675665    0.366856
    140          1           0      -14.841360    3.964965   -0.459721
 ---------------------------------------------------------------------

 SCF Done:  E(RZINDO/S) =  -474.131565829     A.U. after   20 cycles

 Excitation energies and oscillator strengths:

 Excited State   1:      Singlet-A      1.2544 eV  988.41 nm  f=0.5771  <S**2>=0.000
     175 ->178        -0.20615
     176 ->177         0.65768
 This state for optimization and/or second-order correction.
 Total Energy, E(CIS/TDA) =  -474.085468407
 Copying the excited state density for this state as the 1-particle RhoCI density.

 Excited State   2:      Singlet-A      1.8726 eV  662.11 nm  f=0.0188  <S**2>=0.000
     175 ->177         0.51987
     176 ->178         0.45313

 Excited State   3:      Singlet-A      2.7335 eV  453.57 nm  f=0.0238  <S**2>=0.000
     176 ->179         0.20597
     176 ->180         0.66102

 Excited State   4:      Singlet-A      2.8139 eV  440.61 nm  f=0.1128  <S**2>=0.000
     168 ->177         0.34923
     168 ->178        -0.17349
     168 ->179        -0.34550
     168 ->181         0.16586
     168 ->186        -0.16200
     175 ->177        -0.14280
     176 ->178         0.19778
     176 ->179         0.22576

 Excited State   5:      Singlet-A      2.8722 eV  431.67 nm  f=0.4567  <S**2>=0.000
     168 ->177        -0.19675
     168 ->179         0.19511
     175 ->177        -0.28290
     176 ->178         0.38347
     176 ->179         0.34401

 The electronic state is 1-A.
 Alpha  occ. eigenvalues --   -1.84534  -1.79734  -1.79343  -1.73662  -1.73051
 Alpha  occ. eigenvalues --   -1.70392  -1.66300  -1.61408  -1.60614  -1.57307
 Alpha  occ. eigenvalues --   -1.56973  -1.52003  -1.48031  -1.47365  -1.45587
 Alpha  occ. eigenvalues --   -1.44905  -1.44068  -1.40972  -1.39057  -1.37400
 Alpha  occ. eigenvalues --   -1.36209  -1.34652  -1.32526  -1.31345  -1.28282
 Alpha  occ. eigenvalues --   -1.27731  -1.26348  -1.22800  -1.22031  -1.18513
 Alpha  occ. eigenvalues --   -1.16794  -1.16431  -1.14743  -1.14041  -1.13423
 Alpha  occ. eigenvalues --   -1.12096  -1.10358  -1.09231  -1.05530  -1.04494
 Alpha  occ. eigenvalues --   -1.02668  -1.01232  -0.98201  -0.97721  -0.96031
 Alpha  occ. eigenvalues --   -0.95371  -0.94418  -0.93481  -0.92781  -0.92589
 Alpha  occ. eigenvalues --   -0.91258  -0.90275  -0.88717  -0.88545  -0.86732
 Alpha  occ. eigenvalues --   -0.85946  -0.84416  -0.83380  -0.82498  -0.81005
 Alpha  occ. eigenvalues --   -0.80232  -0.79518  -0.77696  -0.76792  -0.76453
 Alpha  occ. eigenvalues --   -0.75596  -0.74974  -0.74499  -0.73849  -0.73198
 Alpha  occ. eigenvalues --   -0.72866  -0.72547  -0.71581  -0.71161  -0.70765
 Alpha  occ. eigenvalues --   -0.70371  -0.70056  -0.69059  -0.68534  -0.68079
 Alpha  occ. eigenvalues --   -0.67639  -0.67527  -0.66588  -0.66086  -0.65925
 Alpha  occ. eigenvalues --   -0.65423  -0.65377  -0.64807  -0.64182  -0.63724
 Alpha  occ. eigenvalues --   -0.63629  -0.63308  -0.62919  -0.62633  -0.62345
 Alpha  occ. eigenvalues --   -0.62027  -0.61888  -0.61530  -0.60886  -0.59698
 Alpha  occ. eigenvalues --   -0.59521  -0.59288  -0.58756  -0.58693  -0.57968
 Alpha  occ. eigenvalues --   -0.57547  -0.57173  -0.56381  -0.56162  -0.56048
 Alpha  occ. eigenvalues --   -0.55793  -0.55656  -0.55179  -0.54802  -0.54632
 Alpha  occ. eigenvalues --   -0.54477  -0.54341  -0.53617  -0.53252  -0.53006
 Alpha  occ. eigenvalues --   -0.52661  -0.52465  -0.52104  -0.51961  -0.51785
 Alpha  occ. eigenvalues --   -0.51555  -0.51257  -0.51067  -0.50507  -0.50357
 Alpha  occ. eigenvalues --   -0.50290  -0.49725  -0.49608  -0.49539  -0.49213
 Alpha  occ. eigenvalues --   -0.49052  -0.48838  -0.48449  -0.47822  -0.47551
 Alpha  occ. eigenvalues --   -0.47509  -0.47039  -0.46776  -0.46737  -0.46607
 Alpha  occ. eigenvalues --   -0.46475  -0.46296  -0.46045  -0.45513  -0.45396
 Alpha  occ. eigenvalues --   -0.45141  -0.45073  -0.44882  -0.44376  -0.43884
 Alpha  occ. eigenvalues --   -0.43561  -0.43230  -0.43166  -0.42656  -0.42433
 Alpha  occ. eigenvalues --   -0.42306  -0.41601  -0.40096  -0.39092  -0.38666
 Alpha  occ. eigenvalues --   -0.38270  -0.37766  -0.35645  -0.35038  -0.34781
 Alpha  occ. eigenvalues --   -0.33561  -0.32987  -0.32532  -0.32320  -0.26768
 Alpha  occ. eigenvalues --   -0.21988
 Alpha virt. eigenvalues --   -0.08648  -0.02926  -0.01163  -0.00311   0.01201
 Alpha virt. eigenvalues --    0.02416   0.02605   0.02744   0.04398   0.04534
 Alpha virt. eigenvalues --    0.06216   0.06684   0.07219   0.07565   0.07850

 Mulliken charges:
               1
     1  Mg   0.445245
     2  C   -0.051186
     3  C   -0.064601
     4  C   -0.101163
     5  C   -0.100936
     6  N   -0.251818
     7  C    0.124745
     8  C   -0.005569
     9  C    0.003271
    10  C    0.093201
    11  C   -0.056131
    12  C   -0.023619
    13  C    0.003116
    14  C    0.474370
    15  O   -0.525691
    16  O   -0.257782
    17  N   -0.309316
    18  C    0.090849
    19  C    0.032287
    20  C   -0.066569
    21  C    0.115316
    22  C   -0.043301
    23  C    0.331722
    24  O   -0.525854
    25  C   -0.027934
    26  N   -0.282725
    27  C    0.121810
    28  C   -0.008588
    29  C    0.000725
    30  C    0.150875
    31  C   -0.057081
    32  C   -0.034166
    33  C   -0.064777
    34  N   -0.320653
    35  C    0.126417
    36  C    0.032070
    37  C   -0.045429
    38  C    0.100786
    39  C   -0.032343
    40  C    0.324423
    41  O   -0.533203
    42  C    0.060737
    43  C    0.489278
    44  O   -0.510961
    45  O   -0.277650
    46  C    0.072472
    47  C    0.081659
    48  C   -0.105659
    49  C    0.016581
    50  C   -0.042450
    51  C   -0.016875
    52  C   -0.036958
    53  C   -0.049728
    54  C   -0.029193
    55  C   -0.059987
    56  C   -0.042850
    57  C   -0.041282
    58  C   -0.035906
    59  C   -0.013091
    60  C   -0.062179
    61  C   -0.037157
    62  C   -0.044988
    63  C   -0.042029
    64  C   -0.011774
    65  C   -0.058987
    66  C   -0.055256
    67  H    0.023023
    68  H    0.026986
    69  H    0.024245
    70  H    0.049335
    71  H    0.032438
    72  H    0.029313
    73  H    0.030141
    74  H    0.025999
    75  H    0.028981
    76  H    0.026383
    77  H    0.050736
    78  H    0.038543
    79  H    0.000829
    80  H    0.061876
    81  H    0.051264
    82  H    0.036036
    83  H    0.038980
    84  H    0.031726
    85  H    0.033917
    86  H    0.040432
    87  H    0.030095
    88  H    0.032306
    89  H    0.016832
    90  H    0.028980
    91  H    0.025878
    92  H    0.013337
    93  H    0.022069
    94  H    0.020965
    95  H    0.033711
    96  H    0.040561
    97  H    0.047612
    98  H    0.059880
    99  H    0.034496
   100  H    0.041736
   101  H    0.057300
   102  H    0.057831
   103  H    0.065701
   104  H    0.024486
   105  H    0.018355
   106  H    0.028409
   107  H    0.039279
   108  H    0.005569
   109  H    0.023140
   110  H    0.016578
   111  H    0.029135
   112  H    0.019686
   113  H    0.019479
   114  H    0.020813
   115  H    0.016657
   116  H    0.030823
   117  H    0.023856
   118  H    0.019309
   119  H    0.024364
   120  H    0.006912
   121  H    0.027339
   122  H    0.015880
   123  H    0.020404
   124  H    0.022992
   125  H    0.014210
   126  H    0.025902
   127  H    0.027548
   128  H    0.019495
   129  H    0.007679
   130  H    0.025977
   131  H    0.014698
   132  H    0.024877
   133  H    0.019093
   134  H    0.019628
   135  H    0.015872
   136  H    0.021067
   137  H    0.019787
   138  H    0.016779
   139  H    0.017359
   140  H    0.019532
 Sum of Mulliken charges =  -0.00000

 Dipole moment (field-independent basis, Debye):
    X=              2.8516    Y=              6.5614    Z=              2.6719  Tot=              7.6369
 N-N= 4.272847797935D+03 E-N= 0.000000000000D+00  KE=-9.219402245162D+03
 Leave Link  601 at Sat Apr 30 00:35:08 2022, MaxMem=  6710886400 cpu:               0.8 elap:               0.0
 (Enter /sw/apps/gaussian-16.0/g16/l9999.exe)
 1\1\GINC-BP1-COMPUTE139\SP\RZINDO CIS\STO-3G\C55H74Mg1N4O6\OF15641\30-
 Apr-2022\0\\#p ZINDO=(nstates=5)\\step_51_chromophore_14 ZINDO\\0,1\Mg
 ,0,46.675,44.889,43.956\C,0,43.311,44.711,42.909\C,0,47.113,41.707,42.
 664\C,0,50.022,45.415,43.917\C,0,46.232,48.425,44.205\N,0,45.312,43.32
 8,43.063\C,0,44.043,43.483,42.645\C,0,43.387,42.23,41.96\C,0,44.551,41
 .191,42.234\C,0,45.754,42.101,42.743\C,0,44.143,40.133,43.268\C,0,43.1
 77,42.514,40.403\C,0,41.858,41.915,39.91\C,0,41.945,41.118,38.622\O,0,

 Normal termination of Gaussian 16 at Sat Apr 30 00:35:08 2022.
