 Gaussian 16, Revision A.03,
 Gaussian 16:  ES64L-G16RevA.03 25-Dec-2016

 ------------------------------
 #p blyp/Def2SVP td=(nstates=5)
 ------------------------------

 --------------------------------------------------
 step_551_chromophore_20 TDDFT with blyp functional
 --------------------------------------------------
 Symbolic Z-matrix:
 Charge =  0 Multiplicity = 1

                         Standard orientation:
 ---------------------------------------------------------------------
 Center     Atomic      Atomic             Coordinates (Angstroms)
 Number     Number       Type             X           Y           Z
 ---------------------------------------------------------------------
      1         12           0        3.470019    1.673824   -0.578151
      2          6           0        4.289257   -1.740667   -1.065222
      3          6           0        1.115428    1.310574   -3.201140
      4          6           0        2.299912    4.750266    0.140660
      5          6           0        5.768082    1.836014    1.877940
      6          7           0        2.694653   -0.134467   -1.782954
      7          6           0        3.118957   -1.426983   -1.764343
      8          6           0        2.348360   -2.249041   -2.763284
      9          6           0        1.828097   -1.170241   -3.747610
     10          6           0        1.848901    0.113237   -2.896707
     11          6           0        2.647982   -0.969352   -5.068028
     12          6           0        1.277295   -3.134665   -1.965230
     13          6           0        0.972218   -4.503112   -2.615398
     14          6           0       -0.493999   -4.904593   -2.598200
     15          8           0       -1.178805   -5.392448   -3.518394
     16          8           0       -0.930840   -4.876031   -1.313463
     17          7           0        1.902756    2.808133   -1.307736
     18          6           0        1.136385    2.511548   -2.467246
     19          6           0        0.440194    3.653028   -2.830168
     20          6           0        0.651744    4.659595   -1.869766
     21          6           0        1.641042    4.110021   -0.923081
     22          6           0       -0.545982    3.476961   -3.957816
     23          6           0        0.169476    6.089102   -1.835852
     24          8           0       -0.421599    6.577954   -2.789342
     25          6           0        0.269331    7.053341   -0.667618
     26          7           0        3.665392    3.005758    1.145095
     27          6           0        3.210181    4.257155    1.043352
     28          6           0        4.089882    5.137649    2.028161
     29          6           0        5.213045    4.226242    2.482619
     30          6           0        4.890301    2.949864    1.830650
     31          6           0        4.612477    6.449504    1.354835
     32          6           0        5.535684    4.247278    3.965471
     33          6           0        4.900420    3.182042    4.896656
     34          7           0        4.834363    0.438319    0.122667
     35          6           0        5.746604    0.681157    1.136911
     36          6           0        6.604239   -0.458156    1.301660
     37          6           0        6.042968   -1.478709    0.482942
     38          6           0        5.007814   -0.877140   -0.255398
     39          6           0        7.886313   -0.519529    1.996965
     40          6           0        6.155239   -2.846512   -0.056297
     41          8           0        6.971664   -3.745469    0.112524
     42          6           0        4.883218   -3.091439   -0.928318
     43          6           0        4.074437   -3.975562   -0.010202
     44          8           0        3.566021   -3.643298    1.061265
     45          8           0        3.986682   -5.240655   -0.584785
     46          6           0        3.397759   -6.277242    0.296946
     47          6           0       -2.260476   -5.379118   -1.079592
     48          6           0       -2.841188   -4.791766    0.224448
     49          6           0       -2.431322   -4.999443    1.523854
     50          6           0       -1.397324   -6.055357    1.863275
     51          6           0       -3.300472   -4.491303    2.645302
     52          6           0       -3.544039   -2.971473    2.702944
     53          6           0       -4.972640   -2.567671    3.005879
     54          6           0       -5.171128   -1.516849    4.158865
     55          6           0       -4.814955   -2.085757    5.558603
     56          6           0       -6.513398   -0.760607    4.104960
     57          6           0       -6.394370    0.702823    3.598994
     58          6           0       -6.366246    0.920397    2.068012
     59          6           0       -7.824848    0.865841    1.445647
     60          6           0       -7.767750   -0.208595    0.293717
     61          6           0       -8.197608    2.182772    0.818011
     62          6           0       -9.722558    2.251783    0.454925
     63          6           0       -9.943039    2.613102   -1.064643
     64          6           0      -10.800792    1.556114   -1.889107
     65          6           0      -10.390248    1.565478   -3.364608
     66          6           0      -12.271716    1.928963   -1.932658
     67          1           0        0.574847    1.192632   -4.142864
     68          1           0        2.135422    5.820126    0.284266
     69          1           0        6.566148    1.821050    2.623292
     70          1           0        2.991248   -2.905110   -3.350567
     71          1           0        0.830589   -1.524625   -4.007459
     72          1           0        3.045518    0.007842   -5.343858
     73          1           0        2.022283   -1.328930   -5.884934
     74          1           0        3.455726   -1.674615   -4.872277
     75          1           0        0.403310   -2.528876   -1.724588
     76          1           0        1.767612   -3.402630   -1.028948
     77          1           0        1.466919   -5.286901   -2.042600
     78          1           0        1.260402   -4.490075   -3.666689
     79          1           0       -1.130384    2.557258   -3.930369
     80          1           0       -0.106524    3.616363   -4.944937
     81          1           0       -1.321967    4.239872   -4.022247
     82          1           0        1.221657    7.581918   -0.687650
     83          1           0        0.140913    6.423328    0.212221
     84          1           0       -0.488935    7.836499   -0.662607
     85          1           0        3.577746    5.401000    2.953579
     86          1           0        6.131754    4.564216    2.002413
     87          1           0        4.704783    6.494959    0.269908
     88          1           0        5.606436    6.537164    1.793399
     89          1           0        4.083791    7.365984    1.618967
     90          1           0        5.220599    5.224010    4.333653
     91          1           0        6.621832    4.180844    4.024197
     92          1           0        5.647753    2.512944    5.322835
     93          1           0        4.115179    2.682054    4.329296
     94          1           0        4.362176    3.583235    5.754460
     95          1           0        8.085151   -1.576834    2.169398
     96          1           0        7.937952   -0.104704    3.003138
     97          1           0        8.664224   -0.126560    1.342917
     98          1           0        5.187145   -3.581244   -1.853057
     99          1           0        2.385862   -5.979261    0.571570
    100          1           0        3.969752   -6.388955    1.218152
    101          1           0        3.369399   -7.223825   -0.241351
    102          1           0       -2.266195   -6.469167   -1.100783
    103          1           0       -2.917092   -5.091706   -1.901188
    104          1           0       -3.755229   -4.218935    0.071565
    105          1           0       -0.696726   -5.443702    2.430893
    106          1           0       -0.765910   -6.420874    1.053510
    107          1           0       -1.866153   -6.910741    2.350390
    108          1           0       -2.772369   -4.722863    3.570543
    109          1           0       -4.232515   -5.052814    2.585128
    110          1           0       -3.341322   -2.598152    1.698710
    111          1           0       -2.850781   -2.563739    3.437679
    112          1           0       -5.468881   -3.480127    3.337326
    113          1           0       -5.496451   -2.194114    2.127064
    114          1           0       -4.391635   -0.762241    4.059917
    115          1           0       -5.494443   -2.932963    5.653012
    116          1           0       -4.991587   -1.328560    6.323042
    117          1           0       -3.775273   -2.408908    5.612576
    118          1           0       -6.944404   -0.775452    5.105651
    119          1           0       -7.243135   -1.175574    3.409377
    120          1           0       -5.574967    1.292699    4.011026
    121          1           0       -7.246265    1.295201    3.930174
    122          1           0       -5.604008    0.293305    1.606887
    123          1           0       -5.955821    1.926849    1.986494
    124          1           0       -8.608669    0.573951    2.144483
    125          1           0       -6.894069   -0.096440   -0.349289
    126          1           0       -8.625242   -0.075908   -0.364750
    127          1           0       -7.837448   -1.248799    0.613208
    128          1           0       -7.611367    2.524020   -0.034545
    129          1           0       -8.022272    3.025115    1.487372
    130          1           0      -10.204161    3.128455    0.888434
    131          1           0      -10.261034    1.399873    0.867830
    132          1           0       -9.035702    2.819382   -1.633616
    133          1           0      -10.429971    3.588566   -1.082130
    134          1           0      -10.630528    0.604019   -1.386105
    135          1           0      -11.073285    1.001130   -3.999275
    136          1           0       -9.410192    1.098779   -3.463254
    137          1           0      -10.215065    2.573487   -3.739545
    138          1           0      -12.395597    2.770442   -1.251686
    139          1           0      -12.820667    1.086567   -1.511459
    140          1           0      -12.688095    2.113469   -2.923507
 ---------------------------------------------------------------------

 SCF Done:  E(RB-LYP) =  -3007.38055333     A.U. after   20 cycles

 Excitation energies and oscillator strengths:

 Excited State   1:      Singlet-A      1.4789 eV  838.38 nm  f=0.0012  <S**2>=0.000
     245 -> 247        0.70076
 This state for optimization and/or second-order correction.
 Total Energy, E(TD-HF/TD-DFT) =  -3007.32620632
 Copying the excited state density for this state as the 1-particle RhoCI density.

 Excited State   2:      Singlet-A      1.7698 eV  700.54 nm  f=0.2672  <S**2>=0.000
     244 -> 248       -0.20333
     246 -> 247        0.68546
     246 <- 247       -0.14551

 Excited State   3:      Singlet-A      1.9917 eV  622.49 nm  f=0.0591  <S**2>=0.000
     243 -> 247        0.18716
     244 -> 247        0.61675
     246 -> 248        0.25566

 Excited State   4:      Singlet-A      2.0536 eV  603.74 nm  f=0.0056  <S**2>=0.000
     243 -> 247        0.68075
     244 -> 247       -0.16238

 Excited State   5:      Singlet-A      2.1431 eV  578.54 nm  f=0.0008  <S**2>=0.000
     242 -> 247        0.70568

 The electronic state is 1-A.
 Alpha  occ. eigenvalues --  -46.26598 -18.82834 -18.82057 -18.77740 -18.76520
 Alpha  occ. eigenvalues --  -18.76424 -18.74393 -14.03190 -14.03127 -14.01144
 Alpha  occ. eigenvalues --  -14.01108 -10.04822 -10.03951 -10.00512  -9.99148
 Alpha  occ. eigenvalues --   -9.98192  -9.97516  -9.97099  -9.97047  -9.96673
 Alpha  occ. eigenvalues --   -9.96469  -9.96300  -9.95613  -9.95161  -9.94987
 Alpha  occ. eigenvalues --   -9.94381  -9.94335  -9.94222  -9.94184  -9.94032
 Alpha  occ. eigenvalues --   -9.93876  -9.93773  -9.93692  -9.93522  -9.93248
 Alpha  occ. eigenvalues --   -9.93233  -9.93196  -9.93038  -9.93029  -9.92928
 Alpha  occ. eigenvalues --   -9.92792  -9.92786  -9.92776  -9.92569  -9.92274
 Alpha  occ. eigenvalues --   -9.92262  -9.92059  -9.91987  -9.91916  -9.91674
 Alpha  occ. eigenvalues --   -9.91634  -9.91561  -9.91533  -9.91457  -9.91205
 Alpha  occ. eigenvalues --   -9.91165  -9.91069  -9.91017  -9.90961  -9.90866
 Alpha  occ. eigenvalues --   -9.90860  -9.90807  -9.90776  -9.90574  -9.90302
 Alpha  occ. eigenvalues --   -9.89992  -2.91356  -1.71747  -1.71286  -1.71053
 Alpha  occ. eigenvalues --   -0.98199  -0.97473  -0.91849  -0.90757  -0.90094
 Alpha  occ. eigenvalues --   -0.88783  -0.86532  -0.85875  -0.84962  -0.84216
 Alpha  occ. eigenvalues --   -0.76636  -0.73908  -0.73535  -0.72740  -0.72515
 Alpha  occ. eigenvalues --   -0.72097  -0.71538  -0.71016  -0.70902  -0.70582
 Alpha  occ. eigenvalues --   -0.69822  -0.69062  -0.68119  -0.67835  -0.67452
 Alpha  occ. eigenvalues --   -0.66427  -0.66006  -0.65502  -0.64987  -0.64413
 Alpha  occ. eigenvalues --   -0.63809  -0.62816  -0.62591  -0.61871  -0.61115
 Alpha  occ. eigenvalues --   -0.60420  -0.60062  -0.59402  -0.59298  -0.58766
 Alpha  occ. eigenvalues --   -0.58240  -0.57728  -0.57364  -0.56112  -0.55806
 Alpha  occ. eigenvalues --   -0.54406  -0.53657  -0.52702  -0.52520  -0.51408
 Alpha  occ. eigenvalues --   -0.51245  -0.51014  -0.50620  -0.50561  -0.50284
 Alpha  occ. eigenvalues --   -0.49901  -0.48912  -0.48643  -0.48214  -0.46866
 Alpha  occ. eigenvalues --   -0.46398  -0.45810  -0.45497  -0.45326  -0.45233
 Alpha  occ. eigenvalues --   -0.44366  -0.43836  -0.43707  -0.43080  -0.42971
 Alpha  occ. eigenvalues --   -0.42307  -0.42103  -0.41966  -0.41655  -0.41168
 Alpha  occ. eigenvalues --   -0.40795  -0.40546  -0.40470  -0.40303  -0.40176
 Alpha  occ. eigenvalues --   -0.39898  -0.39554  -0.39331  -0.39303  -0.39054
 Alpha  occ. eigenvalues --   -0.38944  -0.38797  -0.38694  -0.38601  -0.38358
 Alpha  occ. eigenvalues --   -0.38230  -0.37894  -0.37683  -0.37538  -0.37296
 Alpha  occ. eigenvalues --   -0.37233  -0.37046  -0.36821  -0.36566  -0.36362
 Alpha  occ. eigenvalues --   -0.36269  -0.36191  -0.35934  -0.35839  -0.35495
 Alpha  occ. eigenvalues --   -0.35328  -0.35092  -0.34963  -0.34931  -0.34758
 Alpha  occ. eigenvalues --   -0.34742  -0.34316  -0.34262  -0.33956  -0.33941
 Alpha  occ. eigenvalues --   -0.33834  -0.33572  -0.33222  -0.33194  -0.33119
 Alpha  occ. eigenvalues --   -0.33042  -0.33023  -0.32898  -0.32617  -0.32290
 Alpha  occ. eigenvalues --   -0.31991  -0.31766  -0.31628  -0.31377  -0.31226
 Alpha  occ. eigenvalues --   -0.31106  -0.31045  -0.30781  -0.30735  -0.30445
 Alpha  occ. eigenvalues --   -0.30439  -0.30248  -0.30127  -0.29988  -0.29896
 Alpha  occ. eigenvalues --   -0.29615  -0.29398  -0.29262  -0.29148  -0.29126
 Alpha  occ. eigenvalues --   -0.28942  -0.28810  -0.28722  -0.28401  -0.28291
 Alpha  occ. eigenvalues --   -0.27744  -0.27020  -0.26844  -0.26786  -0.26536
 Alpha  occ. eigenvalues --   -0.26431  -0.25787  -0.25777  -0.25483  -0.25154
 Alpha  occ. eigenvalues --   -0.25018  -0.24835  -0.24511  -0.24415  -0.23428
 Alpha  occ. eigenvalues --   -0.23336  -0.23112  -0.22202  -0.21493  -0.20902
 Alpha  occ. eigenvalues --   -0.20429  -0.19861  -0.19393  -0.17745  -0.17346
 Alpha  occ. eigenvalues --   -0.16216
 Alpha virt. eigenvalues --   -0.11989  -0.07532  -0.06625  -0.04805  -0.03441
 Alpha virt. eigenvalues --   -0.03283  -0.03118  -0.02750  -0.02233   0.00085
 Alpha virt. eigenvalues --    0.01214   0.01495   0.01873   0.02397   0.02682

 Mulliken charges:
               1
     1  Mg   0.686975
     2  C    0.032449
     3  C   -0.045469
     4  C   -0.035273
     5  C   -0.071985
     6  N   -0.207714
     7  C   -0.087170
     8  C   -0.016080
     9  C   -0.001799
    10  C   -0.000130
    11  C    0.135836
    12  C    0.113250
    13  C    0.157055
    14  C    0.044400
    15  O   -0.208787
    16  O   -0.256505
    17  N   -0.329448
    18  C    0.170963
    19  C   -0.109450
    20  C    0.060514
    21  C    0.150440
    22  C    0.173148
    23  C   -0.112114
    24  O   -0.172743
    25  C    0.147090
    26  N   -0.226364
    27  C    0.001585
    28  C    0.035522
    29  C    0.053427
    30  C    0.016758
    31  C    0.103807
    32  C    0.085514
    33  C    0.066676
    34  N   -0.322504
    35  C    0.151452
    36  C   -0.175363
    37  C    0.084505
    38  C    0.100161
    39  C    0.166585
    40  C   -0.070598
    41  O   -0.132984
    42  C    0.099261
    43  C    0.132543
    44  O   -0.190901
    45  O   -0.284734
    46  C    0.221330
    47  C    0.316204
    48  C   -0.112213
    49  C   -0.159229
    50  C    0.130754
    51  C    0.131765
    52  C    0.093510
    53  C    0.092740
    54  C   -0.073215
    55  C    0.080957
    56  C    0.162901
    57  C    0.020363
    58  C    0.122341
    59  C   -0.033501
    60  C    0.086138
    61  C    0.105247
    62  C    0.076782
    63  C    0.070981
    64  C   -0.105633
    65  C    0.097312
    66  C    0.129317
    67  H   -0.048176
    68  H   -0.086122
    69  H   -0.070459
    70  H   -0.033881
    71  H   -0.031925
    72  H    0.009129
    73  H    0.000358
    74  H   -0.014999
    75  H   -0.002358
    76  H   -0.003391
    77  H    0.013393
    78  H   -0.007231
    79  H    0.002155
    80  H   -0.013770
    81  H   -0.018499
    82  H    0.016751
    83  H   -0.002212
    84  H   -0.006306
    85  H   -0.026941
    86  H   -0.029510
    87  H    0.000704
    88  H   -0.016817
    89  H   -0.010511
    90  H   -0.023852
    91  H   -0.021784
    92  H   -0.000768
    93  H    0.007163
    94  H   -0.016623
    95  H    0.001996
    96  H   -0.006631
    97  H    0.014468
    98  H   -0.012779
    99  H    0.016448
   100  H    0.022521
   101  H    0.018551
   102  H   -0.008145
   103  H   -0.012528
   104  H   -0.031658
   105  H    0.003895
   106  H   -0.016516
   107  H    0.017627
   108  H   -0.041556
   109  H   -0.002416
   110  H   -0.026699
   111  H   -0.021947
   112  H   -0.042043
   113  H   -0.025182
   114  H   -0.040516
   115  H   -0.016331
   116  H   -0.007381
   117  H   -0.013328
   118  H   -0.045241
   119  H   -0.039476
   120  H   -0.043075
   121  H   -0.045131
   122  H   -0.027772
   123  H   -0.044069
   124  H   -0.025460
   125  H   -0.015444
   126  H   -0.035944
   127  H   -0.014921
   128  H   -0.035605
   129  H   -0.046894
   130  H   -0.037672
   131  H   -0.022821
   132  H   -0.035842
   133  H   -0.041640
   134  H   -0.020757
   135  H   -0.012219
   136  H   -0.032997
   137  H   -0.013293
   138  H   -0.025518
   139  H   -0.028344
   140  H   -0.009887
 Sum of Mulliken charges =  -0.00000

 Dipole moment (field-independent basis, Debye):
    X=              1.8389    Y=              1.1950    Z=              3.1011  Tot=              3.7982
 Quadrupole moment (field-independent basis, Debye-Ang):
   XX=           -402.6860   YY=           -407.9376   ZZ=           -404.6003
   XY=             33.9639   XZ=             -5.4287   YZ=             12.0266

 Normal termination of Gaussian 16 at Sat Apr 30 03:44:43 2022.
