 Gaussian 16, Revision A.03,
 Gaussian 16:  ES64L-G16RevA.03 25-Dec-2016

 -----------------------------------
 #p cam-b3lyp/Def2SVP td=(nstates=5)
 -----------------------------------

 -------------------------------------------------------
 step_551_chromophore_20 TDDFT with cam-b3lyp functional
 -------------------------------------------------------
 Symbolic Z-matrix:
 Charge =  0 Multiplicity = 1

                         Standard orientation:
 ---------------------------------------------------------------------
 Center     Atomic      Atomic             Coordinates (Angstroms)
 Number     Number       Type             X           Y           Z
 ---------------------------------------------------------------------
      1         12           0        3.470019    1.673824   -0.578151
      2          6           0        4.289257   -1.740667   -1.065222
      3          6           0        1.115428    1.310574   -3.201140
      4          6           0        2.299912    4.750266    0.140660
      5          6           0        5.768082    1.836014    1.877940
      6          7           0        2.694653   -0.134467   -1.782954
      7          6           0        3.118957   -1.426983   -1.764343
      8          6           0        2.348360   -2.249041   -2.763284
      9          6           0        1.828097   -1.170241   -3.747610
     10          6           0        1.848901    0.113237   -2.896707
     11          6           0        2.647982   -0.969352   -5.068028
     12          6           0        1.277295   -3.134665   -1.965230
     13          6           0        0.972218   -4.503112   -2.615398
     14          6           0       -0.493999   -4.904593   -2.598200
     15          8           0       -1.178805   -5.392448   -3.518394
     16          8           0       -0.930840   -4.876031   -1.313463
     17          7           0        1.902756    2.808133   -1.307736
     18          6           0        1.136385    2.511548   -2.467246
     19          6           0        0.440194    3.653028   -2.830168
     20          6           0        0.651744    4.659595   -1.869766
     21          6           0        1.641042    4.110021   -0.923081
     22          6           0       -0.545982    3.476961   -3.957816
     23          6           0        0.169476    6.089102   -1.835852
     24          8           0       -0.421599    6.577954   -2.789342
     25          6           0        0.269331    7.053341   -0.667618
     26          7           0        3.665392    3.005758    1.145095
     27          6           0        3.210181    4.257155    1.043352
     28          6           0        4.089882    5.137649    2.028161
     29          6           0        5.213045    4.226242    2.482619
     30          6           0        4.890301    2.949864    1.830650
     31          6           0        4.612477    6.449504    1.354835
     32          6           0        5.535684    4.247278    3.965471
     33          6           0        4.900420    3.182042    4.896656
     34          7           0        4.834363    0.438319    0.122667
     35          6           0        5.746604    0.681157    1.136911
     36          6           0        6.604239   -0.458156    1.301660
     37          6           0        6.042968   -1.478709    0.482942
     38          6           0        5.007814   -0.877140   -0.255398
     39          6           0        7.886313   -0.519529    1.996965
     40          6           0        6.155239   -2.846512   -0.056297
     41          8           0        6.971664   -3.745469    0.112524
     42          6           0        4.883218   -3.091439   -0.928318
     43          6           0        4.074437   -3.975562   -0.010202
     44          8           0        3.566021   -3.643298    1.061265
     45          8           0        3.986682   -5.240655   -0.584785
     46          6           0        3.397759   -6.277242    0.296946
     47          6           0       -2.260476   -5.379118   -1.079592
     48          6           0       -2.841188   -4.791766    0.224448
     49          6           0       -2.431322   -4.999443    1.523854
     50          6           0       -1.397324   -6.055357    1.863275
     51          6           0       -3.300472   -4.491303    2.645302
     52          6           0       -3.544039   -2.971473    2.702944
     53          6           0       -4.972640   -2.567671    3.005879
     54          6           0       -5.171128   -1.516849    4.158865
     55          6           0       -4.814955   -2.085757    5.558603
     56          6           0       -6.513398   -0.760607    4.104960
     57          6           0       -6.394370    0.702823    3.598994
     58          6           0       -6.366246    0.920397    2.068012
     59          6           0       -7.824848    0.865841    1.445647
     60          6           0       -7.767750   -0.208595    0.293717
     61          6           0       -8.197608    2.182772    0.818011
     62          6           0       -9.722558    2.251783    0.454925
     63          6           0       -9.943039    2.613102   -1.064643
     64          6           0      -10.800792    1.556114   -1.889107
     65          6           0      -10.390248    1.565478   -3.364608
     66          6           0      -12.271716    1.928963   -1.932658
     67          1           0        0.574847    1.192632   -4.142864
     68          1           0        2.135422    5.820126    0.284266
     69          1           0        6.566148    1.821050    2.623292
     70          1           0        2.991248   -2.905110   -3.350567
     71          1           0        0.830589   -1.524625   -4.007459
     72          1           0        3.045518    0.007842   -5.343858
     73          1           0        2.022283   -1.328930   -5.884934
     74          1           0        3.455726   -1.674615   -4.872277
     75          1           0        0.403310   -2.528876   -1.724588
     76          1           0        1.767612   -3.402630   -1.028948
     77          1           0        1.466919   -5.286901   -2.042600
     78          1           0        1.260402   -4.490075   -3.666689
     79          1           0       -1.130384    2.557258   -3.930369
     80          1           0       -0.106524    3.616363   -4.944937
     81          1           0       -1.321967    4.239872   -4.022247
     82          1           0        1.221657    7.581918   -0.687650
     83          1           0        0.140913    6.423328    0.212221
     84          1           0       -0.488935    7.836499   -0.662607
     85          1           0        3.577746    5.401000    2.953579
     86          1           0        6.131754    4.564216    2.002413
     87          1           0        4.704783    6.494959    0.269908
     88          1           0        5.606436    6.537164    1.793399
     89          1           0        4.083791    7.365984    1.618967
     90          1           0        5.220599    5.224010    4.333653
     91          1           0        6.621832    4.180844    4.024197
     92          1           0        5.647753    2.512944    5.322835
     93          1           0        4.115179    2.682054    4.329296
     94          1           0        4.362176    3.583235    5.754460
     95          1           0        8.085151   -1.576834    2.169398
     96          1           0        7.937952   -0.104704    3.003138
     97          1           0        8.664224   -0.126560    1.342917
     98          1           0        5.187145   -3.581244   -1.853057
     99          1           0        2.385862   -5.979261    0.571570
    100          1           0        3.969752   -6.388955    1.218152
    101          1           0        3.369399   -7.223825   -0.241351
    102          1           0       -2.266195   -6.469167   -1.100783
    103          1           0       -2.917092   -5.091706   -1.901188
    104          1           0       -3.755229   -4.218935    0.071565
    105          1           0       -0.696726   -5.443702    2.430893
    106          1           0       -0.765910   -6.420874    1.053510
    107          1           0       -1.866153   -6.910741    2.350390
    108          1           0       -2.772369   -4.722863    3.570543
    109          1           0       -4.232515   -5.052814    2.585128
    110          1           0       -3.341322   -2.598152    1.698710
    111          1           0       -2.850781   -2.563739    3.437679
    112          1           0       -5.468881   -3.480127    3.337326
    113          1           0       -5.496451   -2.194114    2.127064
    114          1           0       -4.391635   -0.762241    4.059917
    115          1           0       -5.494443   -2.932963    5.653012
    116          1           0       -4.991587   -1.328560    6.323042
    117          1           0       -3.775273   -2.408908    5.612576
    118          1           0       -6.944404   -0.775452    5.105651
    119          1           0       -7.243135   -1.175574    3.409377
    120          1           0       -5.574967    1.292699    4.011026
    121          1           0       -7.246265    1.295201    3.930174
    122          1           0       -5.604008    0.293305    1.606887
    123          1           0       -5.955821    1.926849    1.986494
    124          1           0       -8.608669    0.573951    2.144483
    125          1           0       -6.894069   -0.096440   -0.349289
    126          1           0       -8.625242   -0.075908   -0.364750
    127          1           0       -7.837448   -1.248799    0.613208
    128          1           0       -7.611367    2.524020   -0.034545
    129          1           0       -8.022272    3.025115    1.487372
    130          1           0      -10.204161    3.128455    0.888434
    131          1           0      -10.261034    1.399873    0.867830
    132          1           0       -9.035702    2.819382   -1.633616
    133          1           0      -10.429971    3.588566   -1.082130
    134          1           0      -10.630528    0.604019   -1.386105
    135          1           0      -11.073285    1.001130   -3.999275
    136          1           0       -9.410192    1.098779   -3.463254
    137          1           0      -10.215065    2.573487   -3.739545
    138          1           0      -12.395597    2.770442   -1.251686
    139          1           0      -12.820667    1.086567   -1.511459
    140          1           0      -12.688095    2.113469   -2.923507
 ---------------------------------------------------------------------

 SCF Done:  E(RCAM-B3LYP) =  -3007.17423678     A.U. after   17 cycles

 Excitation energies and oscillator strengths:

 Excited State   1:      Singlet-A      1.6598 eV  747.00 nm  f=0.3377  <S**2>=0.000
     245 -> 248        0.19316
     246 -> 247        0.68320
     245 <- 248        0.11471
 This state for optimization and/or second-order correction.
 Total Energy, E(TD-HF/TD-DFT) =  -3007.11324194
 Copying the excited state density for this state as the 1-particle RhoCI density.

 Excited State   2:      Singlet-A      2.2177 eV  559.08 nm  f=0.0796  <S**2>=0.000
     245 -> 247        0.62533
     246 -> 248       -0.31875

 Excited State   3:      Singlet-A      3.2571 eV  380.66 nm  f=0.0019  <S**2>=0.000
     242 -> 247       -0.16326
     242 -> 251        0.10419
     244 -> 247        0.61924
     244 -> 249        0.14399
     244 -> 251        0.10821

 Excited State   4:      Singlet-A      3.3628 eV  368.69 nm  f=0.0005  <S**2>=0.000
     241 -> 247        0.13099
     242 -> 247        0.59155
     242 -> 249        0.14926
     242 -> 251        0.13442
     244 -> 249        0.11239
     244 -> 250       -0.10180
     244 -> 251        0.15782

 Excited State   5:      Singlet-A      3.4121 eV  363.37 nm  f=0.2254  <S**2>=0.000
     240 -> 247       -0.13576
     241 -> 247        0.47809
     245 -> 247       -0.17086
     246 -> 248       -0.43931

 The electronic state is 1-A.
 Alpha  occ. eigenvalues --  -46.88120 -19.25875 -19.24926 -19.20965 -19.19785
 Alpha  occ. eigenvalues --  -19.19496 -19.17512 -14.42176 -14.41981 -14.39574
 Alpha  occ. eigenvalues --  -14.39548 -10.40451 -10.39273 -10.35982 -10.34183
 Alpha  occ. eigenvalues --  -10.32278 -10.31679 -10.31562 -10.31546 -10.31137
 Alpha  occ. eigenvalues --  -10.31002 -10.30755 -10.29969 -10.29384 -10.29316
 Alpha  occ. eigenvalues --  -10.28620 -10.28545 -10.28489 -10.28327 -10.28193
 Alpha  occ. eigenvalues --  -10.28045 -10.27896 -10.27861 -10.27687 -10.27455
 Alpha  occ. eigenvalues --  -10.27346 -10.27079 -10.27072 -10.27009 -10.26983
 Alpha  occ. eigenvalues --  -10.26736 -10.26620 -10.26515 -10.26306 -10.26282
 Alpha  occ. eigenvalues --  -10.25990 -10.25873 -10.25681 -10.25665 -10.25574
 Alpha  occ. eigenvalues --  -10.25548 -10.25287 -10.25270 -10.25154 -10.24845
 Alpha  occ. eigenvalues --  -10.24810 -10.24712 -10.24667 -10.24587 -10.24544
 Alpha  occ. eigenvalues --  -10.24533 -10.24440 -10.24409 -10.24197 -10.23887
 Alpha  occ. eigenvalues --  -10.23535  -3.16787  -1.91652  -1.91266  -1.91094
 Alpha  occ. eigenvalues --   -1.16635  -1.16096  -1.10398  -1.09077  -1.08110
 Alpha  occ. eigenvalues --   -1.06640  -1.04287  -1.03568  -1.02607  -1.01695
 Alpha  occ. eigenvalues --   -0.93926  -0.90684  -0.90369  -0.89524  -0.89280
 Alpha  occ. eigenvalues --   -0.88777  -0.88206  -0.87662  -0.87443  -0.87144
 Alpha  occ. eigenvalues --   -0.86250  -0.85522  -0.84369  -0.84063  -0.83627
 Alpha  occ. eigenvalues --   -0.82457  -0.82047  -0.81334  -0.80904  -0.80363
 Alpha  occ. eigenvalues --   -0.79593  -0.78501  -0.78144  -0.77473  -0.76609
 Alpha  occ. eigenvalues --   -0.75737  -0.75347  -0.74685  -0.74615  -0.73987
 Alpha  occ. eigenvalues --   -0.73318  -0.72703  -0.72287  -0.70850  -0.70645
 Alpha  occ. eigenvalues --   -0.69104  -0.68231  -0.67125  -0.66921  -0.65555
 Alpha  occ. eigenvalues --   -0.65335  -0.64927  -0.64712  -0.64685  -0.64132
 Alpha  occ. eigenvalues --   -0.63921  -0.62869  -0.62411  -0.62041  -0.60474
 Alpha  occ. eigenvalues --   -0.60095  -0.59256  -0.59199  -0.58851  -0.58685
 Alpha  occ. eigenvalues --   -0.57695  -0.57094  -0.56784  -0.56400  -0.56073
 Alpha  occ. eigenvalues --   -0.55492  -0.55138  -0.54973  -0.54786  -0.53967
 Alpha  occ. eigenvalues --   -0.53658  -0.53540  -0.53091  -0.52947  -0.52869
 Alpha  occ. eigenvalues --   -0.52524  -0.52313  -0.52190  -0.51798  -0.51775
 Alpha  occ. eigenvalues --   -0.51689  -0.51553  -0.51374  -0.50948  -0.50762
 Alpha  occ. eigenvalues --   -0.50528  -0.50431  -0.50071  -0.49895  -0.49667
 Alpha  occ. eigenvalues --   -0.49472  -0.49318  -0.49174  -0.48776  -0.48687
 Alpha  occ. eigenvalues --   -0.48614  -0.48236  -0.48027  -0.47874  -0.47741
 Alpha  occ. eigenvalues --   -0.47337  -0.47246  -0.46965  -0.46785  -0.46732
 Alpha  occ. eigenvalues --   -0.46564  -0.46352  -0.46062  -0.45884  -0.45754
 Alpha  occ. eigenvalues --   -0.45637  -0.45438  -0.45106  -0.45012  -0.44832
 Alpha  occ. eigenvalues --   -0.44747  -0.44628  -0.44499  -0.44490  -0.44031
 Alpha  occ. eigenvalues --   -0.43711  -0.43456  -0.43345  -0.43075  -0.42854
 Alpha  occ. eigenvalues --   -0.42776  -0.42506  -0.42425  -0.42167  -0.41752
 Alpha  occ. eigenvalues --   -0.41681  -0.41517  -0.41335  -0.41272  -0.41015
 Alpha  occ. eigenvalues --   -0.40834  -0.40671  -0.40586  -0.40419  -0.40163
 Alpha  occ. eigenvalues --   -0.40113  -0.40003  -0.39835  -0.39491  -0.39248
 Alpha  occ. eigenvalues --   -0.38567  -0.37918  -0.37846  -0.37625  -0.37502
 Alpha  occ. eigenvalues --   -0.37283  -0.37180  -0.36502  -0.36385  -0.36245
 Alpha  occ. eigenvalues --   -0.35958  -0.35610  -0.35426  -0.35013  -0.34510
 Alpha  occ. eigenvalues --   -0.33875  -0.33674  -0.33609  -0.31682  -0.31230
 Alpha  occ. eigenvalues --   -0.30302  -0.29977  -0.29469  -0.29428  -0.24537
 Alpha  occ. eigenvalues --   -0.21501
 Alpha virt. eigenvalues --   -0.09084  -0.02603  -0.00102   0.02024   0.02444
 Alpha virt. eigenvalues --    0.03987   0.04344   0.04605   0.05071   0.06971
 Alpha virt. eigenvalues --    0.07897   0.08149   0.08211   0.08769   0.08853

 Mulliken charges:
               1
     1  Mg   0.820966
     2  C   -0.000719
     3  C   -0.057571
     4  C   -0.069428
     5  C   -0.080810
     6  N   -0.268397
     7  C   -0.041660
     8  C   -0.066653
     9  C   -0.054709
    10  C    0.011943
    11  C    0.078632
    12  C    0.063067
    13  C    0.090226
    14  C    0.128503
    15  O   -0.252812
    16  O   -0.318127
    17  N   -0.416170
    18  C    0.171769
    19  C   -0.105218
    20  C   -0.013823
    21  C    0.179938
    22  C    0.103585
    23  C   -0.032755
    24  O   -0.212170
    25  C    0.062308
    26  N   -0.295861
    27  C    0.035428
    28  C   -0.022473
    29  C   -0.007376
    30  C    0.036904
    31  C    0.043594
    32  C    0.028108
    33  C    0.003865
    34  N   -0.416096
    35  C    0.159862
    36  C   -0.173255
    37  C    0.016351
    38  C    0.136595
    39  C    0.110421
    40  C    0.021857
    41  O   -0.170297
    42  C    0.023455
    43  C    0.219422
    44  O   -0.225173
    45  O   -0.347695
    46  C    0.180895
    47  C    0.280843
    48  C   -0.133992
    49  C   -0.174729
    50  C    0.067352
    51  C    0.072506
    52  C    0.034257
    53  C    0.047069
    54  C   -0.129587
    55  C    0.029168
    56  C    0.103249
    57  C   -0.030050
    58  C    0.068705
    59  C   -0.097601
    60  C    0.037168
    61  C    0.052426
    62  C    0.018822
    63  C    0.018836
    64  C   -0.161559
    65  C    0.035368
    66  C    0.067612
    67  H   -0.009675
    68  H   -0.047117
    69  H   -0.035009
    70  H    0.001220
    71  H    0.003442
    72  H    0.034954
    73  H    0.024245
    74  H    0.007641
    75  H    0.030237
    76  H    0.024428
    77  H    0.042815
    78  H    0.025019
    79  H    0.028479
    80  H    0.015389
    81  H    0.014317
    82  H    0.042502
    83  H    0.025575
    84  H    0.029197
    85  H    0.008385
    86  H    0.008552
    87  H    0.026485
    88  H    0.007055
    89  H    0.014221
    90  H    0.005374
    91  H    0.006958
    92  H    0.021974
    93  H    0.030568
    94  H    0.009136
    95  H    0.029658
    96  H    0.018731
    97  H    0.041246
    98  H    0.033652
    99  H    0.036595
   100  H    0.046785
   101  H    0.042597
   102  H    0.019676
   103  H    0.020147
   104  H   -0.001540
   105  H    0.026837
   106  H    0.008319
   107  H    0.040404
   108  H   -0.010288
   109  H    0.026958
   110  H    0.004097
   111  H    0.006384
   112  H   -0.014852
   113  H   -0.001364
   114  H   -0.009316
   115  H    0.005498
   116  H    0.015979
   117  H    0.009100
   118  H   -0.013013
   119  H   -0.012518
   120  H   -0.013728
   121  H   -0.016002
   122  H   -0.001582
   123  H   -0.012369
   124  H    0.004805
   125  H    0.008242
   126  H   -0.016565
   127  H    0.008358
   128  H   -0.006382
   129  H   -0.015844
   130  H   -0.006635
   131  H    0.004190
   132  H   -0.007475
   133  H   -0.012479
   134  H    0.007620
   135  H    0.012561
   136  H   -0.007842
   137  H    0.010400
   138  H   -0.001492
   139  H   -0.003387
   140  H    0.015161
 Sum of Mulliken charges =  -0.00000

 Dipole moment (field-independent basis, Debye):
    X=              1.9627    Y=              1.3497    Z=              3.1196  Tot=              3.9250
 Quadrupole moment (field-independent basis, Debye-Ang):
   XX=           -401.3176   YY=           -404.8645   ZZ=           -403.5066
   XY=             33.8083   XZ=             -4.6576   YZ=             13.0375

 Normal termination of Gaussian 16 at Sat Apr 30 02:45:02 2022.
