 Gaussian 16, Revision A.03,
 Gaussian 16:  ES64L-G16RevA.03 25-Dec-2016

 ---------------------------------
 #p PBE1PBE/Def2SVP td=(nstates=5)
 ---------------------------------

 -----------------------------------------------------
 step_551_chromophore_20 TDDFT with PBE1PBE functional
 -----------------------------------------------------
 Symbolic Z-matrix:
 Charge =  0 Multiplicity = 1

                         Standard orientation:
 ---------------------------------------------------------------------
 Center     Atomic      Atomic             Coordinates (Angstroms)
 Number     Number       Type             X           Y           Z
 ---------------------------------------------------------------------
      1         12           0        3.470019    1.673824   -0.578151
      2          6           0        4.289257   -1.740667   -1.065222
      3          6           0        1.115428    1.310574   -3.201140
      4          6           0        2.299912    4.750266    0.140660
      5          6           0        5.768082    1.836014    1.877940
      6          7           0        2.694653   -0.134467   -1.782954
      7          6           0        3.118957   -1.426983   -1.764343
      8          6           0        2.348360   -2.249041   -2.763284
      9          6           0        1.828097   -1.170241   -3.747610
     10          6           0        1.848901    0.113237   -2.896707
     11          6           0        2.647982   -0.969352   -5.068028
     12          6           0        1.277295   -3.134665   -1.965230
     13          6           0        0.972218   -4.503112   -2.615398
     14          6           0       -0.493999   -4.904593   -2.598200
     15          8           0       -1.178805   -5.392448   -3.518394
     16          8           0       -0.930840   -4.876031   -1.313463
     17          7           0        1.902756    2.808133   -1.307736
     18          6           0        1.136385    2.511548   -2.467246
     19          6           0        0.440194    3.653028   -2.830168
     20          6           0        0.651744    4.659595   -1.869766
     21          6           0        1.641042    4.110021   -0.923081
     22          6           0       -0.545982    3.476961   -3.957816
     23          6           0        0.169476    6.089102   -1.835852
     24          8           0       -0.421599    6.577954   -2.789342
     25          6           0        0.269331    7.053341   -0.667618
     26          7           0        3.665392    3.005758    1.145095
     27          6           0        3.210181    4.257155    1.043352
     28          6           0        4.089882    5.137649    2.028161
     29          6           0        5.213045    4.226242    2.482619
     30          6           0        4.890301    2.949864    1.830650
     31          6           0        4.612477    6.449504    1.354835
     32          6           0        5.535684    4.247278    3.965471
     33          6           0        4.900420    3.182042    4.896656
     34          7           0        4.834363    0.438319    0.122667
     35          6           0        5.746604    0.681157    1.136911
     36          6           0        6.604239   -0.458156    1.301660
     37          6           0        6.042968   -1.478709    0.482942
     38          6           0        5.007814   -0.877140   -0.255398
     39          6           0        7.886313   -0.519529    1.996965
     40          6           0        6.155239   -2.846512   -0.056297
     41          8           0        6.971664   -3.745469    0.112524
     42          6           0        4.883218   -3.091439   -0.928318
     43          6           0        4.074437   -3.975562   -0.010202
     44          8           0        3.566021   -3.643298    1.061265
     45          8           0        3.986682   -5.240655   -0.584785
     46          6           0        3.397759   -6.277242    0.296946
     47          6           0       -2.260476   -5.379118   -1.079592
     48          6           0       -2.841188   -4.791766    0.224448
     49          6           0       -2.431322   -4.999443    1.523854
     50          6           0       -1.397324   -6.055357    1.863275
     51          6           0       -3.300472   -4.491303    2.645302
     52          6           0       -3.544039   -2.971473    2.702944
     53          6           0       -4.972640   -2.567671    3.005879
     54          6           0       -5.171128   -1.516849    4.158865
     55          6           0       -4.814955   -2.085757    5.558603
     56          6           0       -6.513398   -0.760607    4.104960
     57          6           0       -6.394370    0.702823    3.598994
     58          6           0       -6.366246    0.920397    2.068012
     59          6           0       -7.824848    0.865841    1.445647
     60          6           0       -7.767750   -0.208595    0.293717
     61          6           0       -8.197608    2.182772    0.818011
     62          6           0       -9.722558    2.251783    0.454925
     63          6           0       -9.943039    2.613102   -1.064643
     64          6           0      -10.800792    1.556114   -1.889107
     65          6           0      -10.390248    1.565478   -3.364608
     66          6           0      -12.271716    1.928963   -1.932658
     67          1           0        0.574847    1.192632   -4.142864
     68          1           0        2.135422    5.820126    0.284266
     69          1           0        6.566148    1.821050    2.623292
     70          1           0        2.991248   -2.905110   -3.350567
     71          1           0        0.830589   -1.524625   -4.007459
     72          1           0        3.045518    0.007842   -5.343858
     73          1           0        2.022283   -1.328930   -5.884934
     74          1           0        3.455726   -1.674615   -4.872277
     75          1           0        0.403310   -2.528876   -1.724588
     76          1           0        1.767612   -3.402630   -1.028948
     77          1           0        1.466919   -5.286901   -2.042600
     78          1           0        1.260402   -4.490075   -3.666689
     79          1           0       -1.130384    2.557258   -3.930369
     80          1           0       -0.106524    3.616363   -4.944937
     81          1           0       -1.321967    4.239872   -4.022247
     82          1           0        1.221657    7.581918   -0.687650
     83          1           0        0.140913    6.423328    0.212221
     84          1           0       -0.488935    7.836499   -0.662607
     85          1           0        3.577746    5.401000    2.953579
     86          1           0        6.131754    4.564216    2.002413
     87          1           0        4.704783    6.494959    0.269908
     88          1           0        5.606436    6.537164    1.793399
     89          1           0        4.083791    7.365984    1.618967
     90          1           0        5.220599    5.224010    4.333653
     91          1           0        6.621832    4.180844    4.024197
     92          1           0        5.647753    2.512944    5.322835
     93          1           0        4.115179    2.682054    4.329296
     94          1           0        4.362176    3.583235    5.754460
     95          1           0        8.085151   -1.576834    2.169398
     96          1           0        7.937952   -0.104704    3.003138
     97          1           0        8.664224   -0.126560    1.342917
     98          1           0        5.187145   -3.581244   -1.853057
     99          1           0        2.385862   -5.979261    0.571570
    100          1           0        3.969752   -6.388955    1.218152
    101          1           0        3.369399   -7.223825   -0.241351
    102          1           0       -2.266195   -6.469167   -1.100783
    103          1           0       -2.917092   -5.091706   -1.901188
    104          1           0       -3.755229   -4.218935    0.071565
    105          1           0       -0.696726   -5.443702    2.430893
    106          1           0       -0.765910   -6.420874    1.053510
    107          1           0       -1.866153   -6.910741    2.350390
    108          1           0       -2.772369   -4.722863    3.570543
    109          1           0       -4.232515   -5.052814    2.585128
    110          1           0       -3.341322   -2.598152    1.698710
    111          1           0       -2.850781   -2.563739    3.437679
    112          1           0       -5.468881   -3.480127    3.337326
    113          1           0       -5.496451   -2.194114    2.127064
    114          1           0       -4.391635   -0.762241    4.059917
    115          1           0       -5.494443   -2.932963    5.653012
    116          1           0       -4.991587   -1.328560    6.323042
    117          1           0       -3.775273   -2.408908    5.612576
    118          1           0       -6.944404   -0.775452    5.105651
    119          1           0       -7.243135   -1.175574    3.409377
    120          1           0       -5.574967    1.292699    4.011026
    121          1           0       -7.246265    1.295201    3.930174
    122          1           0       -5.604008    0.293305    1.606887
    123          1           0       -5.955821    1.926849    1.986494
    124          1           0       -8.608669    0.573951    2.144483
    125          1           0       -6.894069   -0.096440   -0.349289
    126          1           0       -8.625242   -0.075908   -0.364750
    127          1           0       -7.837448   -1.248799    0.613208
    128          1           0       -7.611367    2.524020   -0.034545
    129          1           0       -8.022272    3.025115    1.487372
    130          1           0      -10.204161    3.128455    0.888434
    131          1           0      -10.261034    1.399873    0.867830
    132          1           0       -9.035702    2.819382   -1.633616
    133          1           0      -10.429971    3.588566   -1.082130
    134          1           0      -10.630528    0.604019   -1.386105
    135          1           0      -11.073285    1.001130   -3.999275
    136          1           0       -9.410192    1.098779   -3.463254
    137          1           0      -10.215065    2.573487   -3.739545
    138          1           0      -12.395597    2.770442   -1.251686
    139          1           0      -12.820667    1.086567   -1.511459
    140          1           0      -12.688095    2.113469   -2.923507
 ---------------------------------------------------------------------

 SCF Done:  E(RPBE1PBE) =  -3005.36330762     A.U. after   16 cycles

 Excitation energies and oscillator strengths:

 Excited State   1:      Singlet-A      1.8195 eV  681.43 nm  f=0.3274  <S**2>=0.000
     245 -> 248        0.18486
     246 -> 247        0.69056
     246 <- 247       -0.10308
 This state for optimization and/or second-order correction.
 Total Energy, E(TD-HF/TD-DFT) =  -3005.29644348
 Copying the excited state density for this state as the 1-particle RhoCI density.

 Excited State   2:      Singlet-A      2.2219 eV  558.00 nm  f=0.0811  <S**2>=0.000
     245 -> 247        0.63864
     246 -> 248       -0.29055

 Excited State   3:      Singlet-A      2.6755 eV  463.40 nm  f=0.0004  <S**2>=0.000
     244 -> 247        0.68129
     244 -> 249        0.11419
     244 -> 250       -0.12115

 Excited State   4:      Singlet-A      2.9596 eV  418.92 nm  f=0.0014  <S**2>=0.000
     240 -> 247        0.11392
     241 -> 247        0.15328
     242 -> 247        0.66964

 Excited State   5:      Singlet-A      3.0524 eV  406.18 nm  f=0.0008  <S**2>=0.000
     240 -> 247        0.50971
     240 -> 249       -0.15764
     241 -> 247        0.39029
     242 -> 247       -0.18467
     246 -> 248        0.10178

 The electronic state is 1-A.
 Alpha  occ. eigenvalues --  -46.91501 -19.26485 -19.25583 -19.21128 -19.19940
 Alpha  occ. eigenvalues --  -19.19807 -19.17760 -14.41632 -14.41534 -14.39277
 Alpha  occ. eigenvalues --  -14.39203 -10.37446 -10.36313 -10.33103 -10.31379
 Alpha  occ. eigenvalues --  -10.29466 -10.29371 -10.29360 -10.28947 -10.28826
 Alpha  occ. eigenvalues --  -10.28696 -10.28436 -10.27579 -10.27073 -10.27029
 Alpha  occ. eigenvalues --  -10.26289 -10.26180 -10.26173 -10.26124 -10.25997
 Alpha  occ. eigenvalues --  -10.25639 -10.25561 -10.25369 -10.25300 -10.25113
 Alpha  occ. eigenvalues --  -10.25010 -10.24875 -10.24786 -10.24717 -10.24607
 Alpha  occ. eigenvalues --  -10.24437 -10.24116 -10.24019 -10.23947 -10.23696
 Alpha  occ. eigenvalues --  -10.23691 -10.23255 -10.23148 -10.23120 -10.23095
 Alpha  occ. eigenvalues --  -10.23002 -10.22958 -10.22818 -10.22746 -10.22429
 Alpha  occ. eigenvalues --  -10.22344 -10.22244 -10.22212 -10.22189 -10.22093
 Alpha  occ. eigenvalues --  -10.21974 -10.21967 -10.21929 -10.21592 -10.21274
 Alpha  occ. eigenvalues --  -10.20914  -3.13745  -1.86550  -1.86142  -1.85976
 Alpha  occ. eigenvalues --   -1.11450  -1.10780  -1.05074  -1.03854  -1.02866
 Alpha  occ. eigenvalues --   -1.01492  -0.98871  -0.98162  -0.97187  -0.96352
 Alpha  occ. eigenvalues --   -0.88251  -0.85001  -0.84488  -0.83669  -0.83396
 Alpha  occ. eigenvalues --   -0.83109  -0.82306  -0.81945  -0.81773  -0.81258
 Alpha  occ. eigenvalues --   -0.80514  -0.79847  -0.78630  -0.78267  -0.77862
 Alpha  occ. eigenvalues --   -0.76700  -0.76227  -0.75654  -0.75091  -0.74605
 Alpha  occ. eigenvalues --   -0.73733  -0.72772  -0.72450  -0.71759  -0.70891
 Alpha  occ. eigenvalues --   -0.69909  -0.69684  -0.68775  -0.68693  -0.68149
 Alpha  occ. eigenvalues --   -0.67741  -0.67033  -0.66715  -0.65166  -0.64922
 Alpha  occ. eigenvalues --   -0.63527  -0.62443  -0.61631  -0.61138  -0.60089
 Alpha  occ. eigenvalues --   -0.59823  -0.59423  -0.59175  -0.58918  -0.58592
 Alpha  occ. eigenvalues --   -0.58045  -0.57017  -0.56958  -0.56212  -0.55033
 Alpha  occ. eigenvalues --   -0.54581  -0.53890  -0.53551  -0.53478  -0.53074
 Alpha  occ. eigenvalues --   -0.52319  -0.51495  -0.51316  -0.50759  -0.50658
 Alpha  occ. eigenvalues --   -0.49975  -0.49693  -0.49465  -0.49265  -0.48465
 Alpha  occ. eigenvalues --   -0.48258  -0.48043  -0.47516  -0.47483  -0.47318
 Alpha  occ. eigenvalues --   -0.47186  -0.46837  -0.46676  -0.46310  -0.46190
 Alpha  occ. eigenvalues --   -0.46168  -0.46099  -0.45989  -0.45460  -0.45276
 Alpha  occ. eigenvalues --   -0.45013  -0.44959  -0.44650  -0.44461  -0.44254
 Alpha  occ. eigenvalues --   -0.44056  -0.43903  -0.43771  -0.43410  -0.43324
 Alpha  occ. eigenvalues --   -0.43194  -0.42869  -0.42664  -0.42539  -0.42402
 Alpha  occ. eigenvalues --   -0.42016  -0.41932  -0.41599  -0.41478  -0.41431
 Alpha  occ. eigenvalues --   -0.41237  -0.41082  -0.40710  -0.40623  -0.40459
 Alpha  occ. eigenvalues --   -0.40377  -0.40169  -0.39815  -0.39768  -0.39486
 Alpha  occ. eigenvalues --   -0.39366  -0.39283  -0.39270  -0.39110  -0.38778
 Alpha  occ. eigenvalues --   -0.38436  -0.38135  -0.38074  -0.37844  -0.37657
 Alpha  occ. eigenvalues --   -0.37520  -0.37292  -0.37206  -0.37015  -0.36532
 Alpha  occ. eigenvalues --   -0.36510  -0.36359  -0.36157  -0.36098  -0.35739
 Alpha  occ. eigenvalues --   -0.35663  -0.35535  -0.35431  -0.35178  -0.35057
 Alpha  occ. eigenvalues --   -0.34905  -0.34785  -0.34726  -0.34388  -0.34038
 Alpha  occ. eigenvalues --   -0.33385  -0.32891  -0.32611  -0.32459  -0.32403
 Alpha  occ. eigenvalues --   -0.32282  -0.32021  -0.31391  -0.31330  -0.31183
 Alpha  occ. eigenvalues --   -0.30868  -0.30433  -0.30129  -0.29852  -0.29735
 Alpha  occ. eigenvalues --   -0.29389  -0.28641  -0.28479  -0.27086  -0.26350
 Alpha  occ. eigenvalues --   -0.25873  -0.25410  -0.24764  -0.24354  -0.21464
 Alpha  occ. eigenvalues --   -0.19150
 Alpha virt. eigenvalues --   -0.11572  -0.06011  -0.04330  -0.02161  -0.00558
 Alpha virt. eigenvalues --   -0.00459  -0.00242   0.00101   0.00599   0.03097
 Alpha virt. eigenvalues --    0.04300   0.04427   0.04672   0.05106   0.05603

 Mulliken charges:
               1
     1  Mg   0.970746
     2  C   -0.019968
     3  C   -0.051764
     4  C   -0.078224
     5  C   -0.061508
     6  N   -0.362080
     7  C    0.041093
     8  C   -0.135377
     9  C   -0.131456
    10  C    0.046799
    11  C    0.022561
    12  C    0.011415
    13  C    0.008102
    14  C    0.194471
    15  O   -0.287128
    16  O   -0.344458
    17  N   -0.531046
    18  C    0.191570
    19  C   -0.125287
    20  C   -0.073497
    21  C    0.215727
    22  C    0.041860
    23  C    0.027434
    24  O   -0.245774
    25  C   -0.021198
    26  N   -0.393735
    27  C    0.087442
    28  C   -0.107588
    29  C   -0.075982
    30  C    0.061846
    31  C   -0.015904
    32  C   -0.036176
    33  C   -0.067149
    34  N   -0.546219
    35  C    0.175806
    36  C   -0.194470
    37  C   -0.018308
    38  C    0.187960
    39  C    0.055632
    40  C    0.105958
    41  O   -0.215738
    42  C   -0.089944
    43  C    0.307337
    44  O   -0.257920
    45  O   -0.378317
    46  C    0.122465
    47  C    0.237414
    48  C   -0.143000
    49  C   -0.213779
    50  C   -0.001073
    51  C    0.008404
    52  C   -0.028888
    53  C   -0.009426
    54  C   -0.212555
    55  C   -0.032430
    56  C    0.045672
    57  C   -0.097730
    58  C    0.020557
    59  C   -0.195092
    60  C   -0.024842
    61  C    0.004727
    62  C   -0.044675
    63  C   -0.029905
    64  C   -0.255944
    65  C   -0.031533
    66  C    0.009485
    67  H    0.020136
    68  H   -0.009041
    69  H   -0.002020
    70  H    0.037712
    71  H    0.040886
    72  H    0.061493
    73  H    0.051602
    74  H    0.036413
    75  H    0.061042
    76  H    0.066962
    77  H    0.078926
    78  H    0.056615
    79  H    0.054922
    80  H    0.044690
    81  H    0.043405
    82  H    0.068722
    83  H    0.053324
    84  H    0.057603
    85  H    0.046444
    86  H    0.047539
    87  H    0.053856
    88  H    0.035658
    89  H    0.042001
    90  H    0.038216
    91  H    0.038523
    92  H    0.048528
    93  H    0.060275
    94  H    0.037325
    95  H    0.057884
    96  H    0.044433
    97  H    0.069351
    98  H    0.068035
    99  H    0.058760
   100  H    0.069094
   101  H    0.063966
   102  H    0.046299
   103  H    0.046608
   104  H    0.028179
   105  H    0.055806
   106  H    0.036925
   107  H    0.067107
   108  H    0.022975
   109  H    0.058700
   110  H    0.038008
   111  H    0.038311
   112  H    0.018743
   113  H    0.032685
   114  H    0.030176
   115  H    0.033659
   116  H    0.043948
   117  H    0.036718
   118  H    0.019760
   119  H    0.022666
   120  H    0.018838
   121  H    0.018372
   122  H    0.030295
   123  H    0.020586
   124  H    0.039646
   125  H    0.035469
   126  H    0.019031
   127  H    0.035944
   128  H    0.024767
   129  H    0.017834
   130  H    0.027392
   131  H    0.034469
   132  H    0.023436
   133  H    0.019262
   134  H    0.044421
   135  H    0.040978
   136  H    0.021886
   137  H    0.038470
   138  H    0.026341
   139  H    0.025037
   140  H    0.041579
 Sum of Mulliken charges =  -0.00000

 Dipole moment (field-independent basis, Debye):
    X=              1.9357    Y=              1.4861    Z=              3.1567  Tot=              3.9900
 Quadrupole moment (field-independent basis, Debye-Ang):
   XX=           -398.0782   YY=           -401.3292   ZZ=           -399.5034
   XY=             34.5182   XZ=             -3.7526   YZ=             13.6537

 Normal termination of Gaussian 16 at Sat Apr 30 03:04:44 2022.
