 Gaussian 16, Revision A.03,
 Gaussian 16:  ES64L-G16RevA.03 25-Dec-2016

 --------------------------------
 #p wB97XD/Def2SVP td=(nstates=5)
 --------------------------------

 ----------------------------------------------------
 step_551_chromophore_20 TDDFT with wB97XD functional
 ----------------------------------------------------
 Symbolic Z-matrix:
 Charge =  0 Multiplicity = 1

                         Standard orientation:
 ---------------------------------------------------------------------
 Center     Atomic      Atomic             Coordinates (Angstroms)
 Number     Number       Type             X           Y           Z
 ---------------------------------------------------------------------
      1         12           0        3.470019    1.673824   -0.578151
      2          6           0        4.289257   -1.740667   -1.065222
      3          6           0        1.115428    1.310574   -3.201140
      4          6           0        2.299912    4.750266    0.140660
      5          6           0        5.768082    1.836014    1.877940
      6          7           0        2.694653   -0.134467   -1.782954
      7          6           0        3.118957   -1.426983   -1.764343
      8          6           0        2.348360   -2.249041   -2.763284
      9          6           0        1.828097   -1.170241   -3.747610
     10          6           0        1.848901    0.113237   -2.896707
     11          6           0        2.647982   -0.969352   -5.068028
     12          6           0        1.277295   -3.134665   -1.965230
     13          6           0        0.972218   -4.503112   -2.615398
     14          6           0       -0.493999   -4.904593   -2.598200
     15          8           0       -1.178805   -5.392448   -3.518394
     16          8           0       -0.930840   -4.876031   -1.313463
     17          7           0        1.902756    2.808133   -1.307736
     18          6           0        1.136385    2.511548   -2.467246
     19          6           0        0.440194    3.653028   -2.830168
     20          6           0        0.651744    4.659595   -1.869766
     21          6           0        1.641042    4.110021   -0.923081
     22          6           0       -0.545982    3.476961   -3.957816
     23          6           0        0.169476    6.089102   -1.835852
     24          8           0       -0.421599    6.577954   -2.789342
     25          6           0        0.269331    7.053341   -0.667618
     26          7           0        3.665392    3.005758    1.145095
     27          6           0        3.210181    4.257155    1.043352
     28          6           0        4.089882    5.137649    2.028161
     29          6           0        5.213045    4.226242    2.482619
     30          6           0        4.890301    2.949864    1.830650
     31          6           0        4.612477    6.449504    1.354835
     32          6           0        5.535684    4.247278    3.965471
     33          6           0        4.900420    3.182042    4.896656
     34          7           0        4.834363    0.438319    0.122667
     35          6           0        5.746604    0.681157    1.136911
     36          6           0        6.604239   -0.458156    1.301660
     37          6           0        6.042968   -1.478709    0.482942
     38          6           0        5.007814   -0.877140   -0.255398
     39          6           0        7.886313   -0.519529    1.996965
     40          6           0        6.155239   -2.846512   -0.056297
     41          8           0        6.971664   -3.745469    0.112524
     42          6           0        4.883218   -3.091439   -0.928318
     43          6           0        4.074437   -3.975562   -0.010202
     44          8           0        3.566021   -3.643298    1.061265
     45          8           0        3.986682   -5.240655   -0.584785
     46          6           0        3.397759   -6.277242    0.296946
     47          6           0       -2.260476   -5.379118   -1.079592
     48          6           0       -2.841188   -4.791766    0.224448
     49          6           0       -2.431322   -4.999443    1.523854
     50          6           0       -1.397324   -6.055357    1.863275
     51          6           0       -3.300472   -4.491303    2.645302
     52          6           0       -3.544039   -2.971473    2.702944
     53          6           0       -4.972640   -2.567671    3.005879
     54          6           0       -5.171128   -1.516849    4.158865
     55          6           0       -4.814955   -2.085757    5.558603
     56          6           0       -6.513398   -0.760607    4.104960
     57          6           0       -6.394370    0.702823    3.598994
     58          6           0       -6.366246    0.920397    2.068012
     59          6           0       -7.824848    0.865841    1.445647
     60          6           0       -7.767750   -0.208595    0.293717
     61          6           0       -8.197608    2.182772    0.818011
     62          6           0       -9.722558    2.251783    0.454925
     63          6           0       -9.943039    2.613102   -1.064643
     64          6           0      -10.800792    1.556114   -1.889107
     65          6           0      -10.390248    1.565478   -3.364608
     66          6           0      -12.271716    1.928963   -1.932658
     67          1           0        0.574847    1.192632   -4.142864
     68          1           0        2.135422    5.820126    0.284266
     69          1           0        6.566148    1.821050    2.623292
     70          1           0        2.991248   -2.905110   -3.350567
     71          1           0        0.830589   -1.524625   -4.007459
     72          1           0        3.045518    0.007842   -5.343858
     73          1           0        2.022283   -1.328930   -5.884934
     74          1           0        3.455726   -1.674615   -4.872277
     75          1           0        0.403310   -2.528876   -1.724588
     76          1           0        1.767612   -3.402630   -1.028948
     77          1           0        1.466919   -5.286901   -2.042600
     78          1           0        1.260402   -4.490075   -3.666689
     79          1           0       -1.130384    2.557258   -3.930369
     80          1           0       -0.106524    3.616363   -4.944937
     81          1           0       -1.321967    4.239872   -4.022247
     82          1           0        1.221657    7.581918   -0.687650
     83          1           0        0.140913    6.423328    0.212221
     84          1           0       -0.488935    7.836499   -0.662607
     85          1           0        3.577746    5.401000    2.953579
     86          1           0        6.131754    4.564216    2.002413
     87          1           0        4.704783    6.494959    0.269908
     88          1           0        5.606436    6.537164    1.793399
     89          1           0        4.083791    7.365984    1.618967
     90          1           0        5.220599    5.224010    4.333653
     91          1           0        6.621832    4.180844    4.024197
     92          1           0        5.647753    2.512944    5.322835
     93          1           0        4.115179    2.682054    4.329296
     94          1           0        4.362176    3.583235    5.754460
     95          1           0        8.085151   -1.576834    2.169398
     96          1           0        7.937952   -0.104704    3.003138
     97          1           0        8.664224   -0.126560    1.342917
     98          1           0        5.187145   -3.581244   -1.853057
     99          1           0        2.385862   -5.979261    0.571570
    100          1           0        3.969752   -6.388955    1.218152
    101          1           0        3.369399   -7.223825   -0.241351
    102          1           0       -2.266195   -6.469167   -1.100783
    103          1           0       -2.917092   -5.091706   -1.901188
    104          1           0       -3.755229   -4.218935    0.071565
    105          1           0       -0.696726   -5.443702    2.430893
    106          1           0       -0.765910   -6.420874    1.053510
    107          1           0       -1.866153   -6.910741    2.350390
    108          1           0       -2.772369   -4.722863    3.570543
    109          1           0       -4.232515   -5.052814    2.585128
    110          1           0       -3.341322   -2.598152    1.698710
    111          1           0       -2.850781   -2.563739    3.437679
    112          1           0       -5.468881   -3.480127    3.337326
    113          1           0       -5.496451   -2.194114    2.127064
    114          1           0       -4.391635   -0.762241    4.059917
    115          1           0       -5.494443   -2.932963    5.653012
    116          1           0       -4.991587   -1.328560    6.323042
    117          1           0       -3.775273   -2.408908    5.612576
    118          1           0       -6.944404   -0.775452    5.105651
    119          1           0       -7.243135   -1.175574    3.409377
    120          1           0       -5.574967    1.292699    4.011026
    121          1           0       -7.246265    1.295201    3.930174
    122          1           0       -5.604008    0.293305    1.606887
    123          1           0       -5.955821    1.926849    1.986494
    124          1           0       -8.608669    0.573951    2.144483
    125          1           0       -6.894069   -0.096440   -0.349289
    126          1           0       -8.625242   -0.075908   -0.364750
    127          1           0       -7.837448   -1.248799    0.613208
    128          1           0       -7.611367    2.524020   -0.034545
    129          1           0       -8.022272    3.025115    1.487372
    130          1           0      -10.204161    3.128455    0.888434
    131          1           0      -10.261034    1.399873    0.867830
    132          1           0       -9.035702    2.819382   -1.633616
    133          1           0      -10.429971    3.588566   -1.082130
    134          1           0      -10.630528    0.604019   -1.386105
    135          1           0      -11.073285    1.001130   -3.999275
    136          1           0       -9.410192    1.098779   -3.463254
    137          1           0      -10.215065    2.573487   -3.739545
    138          1           0      -12.395597    2.770442   -1.251686
    139          1           0      -12.820667    1.086567   -1.511459
    140          1           0      -12.688095    2.113469   -2.923507
 ---------------------------------------------------------------------

 SCF Done:  E(RwB97XD) =  -3007.87396209     A.U. after   19 cycles

 Excitation energies and oscillator strengths:

 Excited State   1:      Singlet-A      1.5994 eV  775.19 nm  f=0.3361  <S**2>=0.000
     245 -> 248        0.19902
     246 -> 247        0.68114
     245 <- 248        0.12473
 This state for optimization and/or second-order correction.
 Total Energy, E(TD-HF/TD-DFT) =  -3007.81518524
 Copying the excited state density for this state as the 1-particle RhoCI density.

 Excited State   2:      Singlet-A      2.1605 eV  573.86 nm  f=0.0779  <S**2>=0.000
     245 -> 247        0.62372
     246 -> 248       -0.31970

 Excited State   3:      Singlet-A      3.2841 eV  377.53 nm  f=0.0024  <S**2>=0.000
     241 -> 247       -0.10826
     242 -> 247       -0.33424
     244 -> 247        0.54268
     244 -> 249        0.15950
     244 -> 250       -0.14091

 Excited State   4:      Singlet-A      3.3857 eV  366.19 nm  f=0.0002  <S**2>=0.000
     241 -> 247        0.17813
     242 -> 247        0.51646
     242 -> 249        0.13219
     242 -> 250       -0.12164
     244 -> 247        0.21365
     244 -> 249        0.16354
     244 -> 250       -0.23619

 Excited State   5:      Singlet-A      3.4153 eV  363.03 nm  f=0.2531  <S**2>=0.000
     240 -> 247        0.10355
     241 -> 247       -0.45512
     242 -> 247        0.12256
     245 -> 247        0.17637
     246 -> 248        0.46002

 The electronic state is 1-A.
 Alpha  occ. eigenvalues --  -46.94464 -19.31117 -19.30150 -19.25918 -19.24864
 Alpha  occ. eigenvalues --  -19.24466 -19.22513 -14.46813 -14.46558 -14.44197
 Alpha  occ. eigenvalues --  -14.44177 -10.44342 -10.43089 -10.40039 -10.38133
 Alpha  occ. eigenvalues --  -10.36036 -10.35715 -10.35596 -10.35454 -10.35146
 Alpha  occ. eigenvalues --  -10.35025 -10.34791 -10.33993 -10.33396 -10.33330
 Alpha  occ. eigenvalues --  -10.32686 -10.32669 -10.32564 -10.32361 -10.32218
 Alpha  occ. eigenvalues --  -10.32127 -10.31994 -10.31806 -10.31681 -10.31552
 Alpha  occ. eigenvalues --  -10.31340 -10.31088 -10.31082 -10.31075 -10.30916
 Alpha  occ. eigenvalues --  -10.30763 -10.30479 -10.30392 -10.30362 -10.30184
 Alpha  occ. eigenvalues --  -10.29971 -10.29695 -10.29525 -10.29507 -10.29498
 Alpha  occ. eigenvalues --  -10.29497 -10.29242 -10.29199 -10.29089 -10.28768
 Alpha  occ. eigenvalues --  -10.28728 -10.28622 -10.28590 -10.28521 -10.28450
 Alpha  occ. eigenvalues --  -10.28371 -10.28336 -10.28323 -10.28030 -10.27702
 Alpha  occ. eigenvalues --  -10.27329  -3.20556  -1.94114  -1.93707  -1.93533
 Alpha  occ. eigenvalues --   -1.18827  -1.18267  -1.12661  -1.11273  -1.10320
 Alpha  occ. eigenvalues --   -1.08842  -1.06289  -1.05579  -1.04622  -1.03728
 Alpha  occ. eigenvalues --   -0.95944  -0.92555  -0.92160  -0.91333  -0.91061
 Alpha  occ. eigenvalues --   -0.90705  -0.89973  -0.89600  -0.89381  -0.88914
 Alpha  occ. eigenvalues --   -0.88147  -0.87466  -0.86278  -0.85921  -0.85499
 Alpha  occ. eigenvalues --   -0.84345  -0.83895  -0.83296  -0.82781  -0.82288
 Alpha  occ. eigenvalues --   -0.81397  -0.80427  -0.80061  -0.79405  -0.78555
 Alpha  occ. eigenvalues --   -0.77578  -0.77279  -0.76473  -0.76388  -0.75807
 Alpha  occ. eigenvalues --   -0.75301  -0.74635  -0.74259  -0.72744  -0.72558
 Alpha  occ. eigenvalues --   -0.71110  -0.70084  -0.69126  -0.68776  -0.67563
 Alpha  occ. eigenvalues --   -0.67329  -0.66876  -0.66683  -0.66532  -0.66091
 Alpha  occ. eigenvalues --   -0.65721  -0.64676  -0.64422  -0.63855  -0.62472
 Alpha  occ. eigenvalues --   -0.62061  -0.61258  -0.61155  -0.60871  -0.60577
 Alpha  occ. eigenvalues --   -0.59693  -0.58997  -0.58726  -0.58275  -0.58033
 Alpha  occ. eigenvalues --   -0.57421  -0.57097  -0.56895  -0.56707  -0.55873
 Alpha  occ. eigenvalues --   -0.55618  -0.55450  -0.54954  -0.54864  -0.54718
 Alpha  occ. eigenvalues --   -0.54458  -0.54253  -0.54127  -0.53715  -0.53662
 Alpha  occ. eigenvalues --   -0.53577  -0.53468  -0.53319  -0.52815  -0.52649
 Alpha  occ. eigenvalues --   -0.52373  -0.52323  -0.51999  -0.51812  -0.51623
 Alpha  occ. eigenvalues --   -0.51380  -0.51210  -0.51058  -0.50695  -0.50594
 Alpha  occ. eigenvalues --   -0.50491  -0.50119  -0.49920  -0.49798  -0.49670
 Alpha  occ. eigenvalues --   -0.49255  -0.49174  -0.48851  -0.48716  -0.48619
 Alpha  occ. eigenvalues --   -0.48449  -0.48262  -0.47934  -0.47801  -0.47687
 Alpha  occ. eigenvalues --   -0.47574  -0.47368  -0.47051  -0.46923  -0.46686
 Alpha  occ. eigenvalues --   -0.46587  -0.46473  -0.46406  -0.46344  -0.45972
 Alpha  occ. eigenvalues --   -0.45724  -0.45325  -0.45270  -0.44997  -0.44816
 Alpha  occ. eigenvalues --   -0.44692  -0.44359  -0.44333  -0.44089  -0.43649
 Alpha  occ. eigenvalues --   -0.43601  -0.43422  -0.43238  -0.43192  -0.42853
 Alpha  occ. eigenvalues --   -0.42760  -0.42594  -0.42463  -0.42270  -0.42038
 Alpha  occ. eigenvalues --   -0.41969  -0.41857  -0.41726  -0.41394  -0.41084
 Alpha  occ. eigenvalues --   -0.40399  -0.39841  -0.39672  -0.39560  -0.39459
 Alpha  occ. eigenvalues --   -0.39397  -0.39012  -0.38330  -0.38302  -0.38231
 Alpha  occ. eigenvalues --   -0.37803  -0.37429  -0.37364  -0.36829  -0.36531
 Alpha  occ. eigenvalues --   -0.36084  -0.35559  -0.35499  -0.33769  -0.33370
 Alpha  occ. eigenvalues --   -0.32479  -0.32046  -0.31512  -0.31428  -0.26457
 Alpha  occ. eigenvalues --   -0.23303
 Alpha virt. eigenvalues --   -0.07439  -0.00704   0.01954   0.04392   0.05255
 Alpha virt. eigenvalues --    0.06244   0.06480   0.06931   0.07398   0.09760
 Alpha virt. eigenvalues --    0.10821   0.11215   0.11348   0.11905   0.12247

 Mulliken charges:
               1
     1  Mg   0.962214
     2  C   -0.018838
     3  C   -0.066784
     4  C   -0.085698
     5  C   -0.085747
     6  N   -0.329548
     7  C    0.004289
     8  C   -0.108702
     9  C   -0.105342
    10  C    0.031941
    11  C    0.031204
    12  C    0.023416
    13  C    0.029118
    14  C    0.185051
    15  O   -0.284705
    16  O   -0.344427
    17  N   -0.500639
    18  C    0.184447
    19  C   -0.118379
    20  C   -0.063299
    21  C    0.207331
    22  C    0.053796
    23  C    0.017469
    24  O   -0.242041
    25  C   -0.002758
    26  N   -0.363906
    27  C    0.068738
    28  C   -0.079891
    29  C   -0.052233
    30  C    0.057081
    31  C   -0.004420
    32  C   -0.023384
    33  C   -0.050265
    34  N   -0.511357
    35  C    0.173615
    36  C   -0.189214
    37  C   -0.018625
    38  C    0.170310
    39  C    0.064215
    40  C    0.092485
    41  O   -0.205972
    42  C   -0.047490
    43  C    0.281131
    44  O   -0.251881
    45  O   -0.376657
    46  C    0.136674
    47  C    0.249511
    48  C   -0.153180
    49  C   -0.199252
    50  C    0.014024
    51  C    0.025869
    52  C   -0.013842
    53  C    0.012154
    54  C   -0.183863
    55  C   -0.018306
    56  C    0.059032
    57  C   -0.074778
    58  C    0.029503
    59  C   -0.162155
    60  C   -0.006368
    61  C    0.017106
    62  C   -0.030249
    63  C   -0.016607
    64  C   -0.225229
    65  C   -0.015881
    66  C    0.019905
    67  H    0.016142
    68  H   -0.024329
    69  H   -0.009807
    70  H    0.023846
    71  H    0.031304
    72  H    0.056834
    73  H    0.046748
    74  H    0.028207
    75  H    0.055609
    76  H    0.050841
    77  H    0.070714
    78  H    0.050709
    79  H    0.049090
    80  H    0.039727
    81  H    0.039398
    82  H    0.064000
    83  H    0.045817
    84  H    0.056268
    85  H    0.036158
    86  H    0.035118
    87  H    0.048153
    88  H    0.027811
    89  H    0.036940
    90  H    0.029876
    91  H    0.032301
    92  H    0.043475
    93  H    0.050623
    94  H    0.032492
    95  H    0.053843
    96  H    0.040405
    97  H    0.064924
    98  H    0.065122
    99  H    0.054633
   100  H    0.065626
   101  H    0.061520
   102  H    0.041923
   103  H    0.042393
   104  H    0.023842
   105  H    0.048573
   106  H    0.031395
   107  H    0.062367
   108  H    0.015104
   109  H    0.050409
   110  H    0.028126
   111  H    0.030210
   112  H    0.006106
   113  H    0.020428
   114  H    0.015122
   115  H    0.025795
   116  H    0.038098
   117  H    0.030498
   118  H    0.013209
   119  H    0.010157
   120  H    0.011036
   121  H    0.008455
   122  H    0.020467
   123  H    0.012993
   124  H    0.028190
   125  H    0.028892
   126  H    0.003502
   127  H    0.030486
   128  H    0.015358
   129  H    0.009270
   130  H    0.020043
   131  H    0.025573
   132  H    0.013518
   133  H    0.010445
   134  H    0.032284
   135  H    0.034832
   136  H    0.014857
   137  H    0.031500
   138  H    0.019171
   139  H    0.019497
   140  H    0.036023
 Sum of Mulliken charges =  -0.00000

 Dipole moment (field-independent basis, Debye):
    X=              2.0177    Y=              1.3734    Z=              3.1508  Tot=              3.9856
 Quadrupole moment (field-independent basis, Debye-Ang):
   XX=           -397.3558   YY=           -400.6374   ZZ=           -399.5215
   XY=             33.6633   XZ=             -3.9864   YZ=             13.2365

 Normal termination of Gaussian 16 at Sat Apr 30 03:31:15 2022.
