 Gaussian 16, Revision A.03,
 Gaussian 16:  ES64L-G16RevA.03 25-Dec-2016

 --------------------
 #p ZINDO=(nstates=5)
 --------------------

 -----------------------------
 step_551_chromophore_20 ZINDO
 -----------------------------
 Symbolic Z-matrix:
 Charge =  0 Multiplicity = 1

                         Standard orientation:
 ---------------------------------------------------------------------
 Center     Atomic      Atomic             Coordinates (Angstroms)
 Number     Number       Type             X           Y           Z
 ---------------------------------------------------------------------
      1         12           0        3.470019    1.673824   -0.578151
      2          6           0        4.289257   -1.740667   -1.065222
      3          6           0        1.115428    1.310574   -3.201140
      4          6           0        2.299912    4.750266    0.140660
      5          6           0        5.768082    1.836014    1.877940
      6          7           0        2.694653   -0.134467   -1.782954
      7          6           0        3.118957   -1.426983   -1.764343
      8          6           0        2.348360   -2.249041   -2.763284
      9          6           0        1.828097   -1.170241   -3.747610
     10          6           0        1.848901    0.113237   -2.896707
     11          6           0        2.647982   -0.969352   -5.068028
     12          6           0        1.277295   -3.134665   -1.965230
     13          6           0        0.972218   -4.503112   -2.615398
     14          6           0       -0.493999   -4.904593   -2.598200
     15          8           0       -1.178805   -5.392448   -3.518394
     16          8           0       -0.930840   -4.876031   -1.313463
     17          7           0        1.902756    2.808133   -1.307736
     18          6           0        1.136385    2.511548   -2.467246
     19          6           0        0.440194    3.653028   -2.830168
     20          6           0        0.651744    4.659595   -1.869766
     21          6           0        1.641042    4.110021   -0.923081
     22          6           0       -0.545982    3.476961   -3.957816
     23          6           0        0.169476    6.089102   -1.835852
     24          8           0       -0.421599    6.577954   -2.789342
     25          6           0        0.269331    7.053341   -0.667618
     26          7           0        3.665392    3.005758    1.145095
     27          6           0        3.210181    4.257155    1.043352
     28          6           0        4.089882    5.137649    2.028161
     29          6           0        5.213045    4.226242    2.482619
     30          6           0        4.890301    2.949864    1.830650
     31          6           0        4.612477    6.449504    1.354835
     32          6           0        5.535684    4.247278    3.965471
     33          6           0        4.900420    3.182042    4.896656
     34          7           0        4.834363    0.438319    0.122667
     35          6           0        5.746604    0.681157    1.136911
     36          6           0        6.604239   -0.458156    1.301660
     37          6           0        6.042968   -1.478709    0.482942
     38          6           0        5.007814   -0.877140   -0.255398
     39          6           0        7.886313   -0.519529    1.996965
     40          6           0        6.155239   -2.846512   -0.056297
     41          8           0        6.971664   -3.745469    0.112524
     42          6           0        4.883218   -3.091439   -0.928318
     43          6           0        4.074437   -3.975562   -0.010202
     44          8           0        3.566021   -3.643298    1.061265
     45          8           0        3.986682   -5.240655   -0.584785
     46          6           0        3.397759   -6.277242    0.296946
     47          6           0       -2.260476   -5.379118   -1.079592
     48          6           0       -2.841188   -4.791766    0.224448
     49          6           0       -2.431322   -4.999443    1.523854
     50          6           0       -1.397324   -6.055357    1.863275
     51          6           0       -3.300472   -4.491303    2.645302
     52          6           0       -3.544039   -2.971473    2.702944
     53          6           0       -4.972640   -2.567671    3.005879
     54          6           0       -5.171128   -1.516849    4.158865
     55          6           0       -4.814955   -2.085757    5.558603
     56          6           0       -6.513398   -0.760607    4.104960
     57          6           0       -6.394370    0.702823    3.598994
     58          6           0       -6.366246    0.920397    2.068012
     59          6           0       -7.824848    0.865841    1.445647
     60          6           0       -7.767750   -0.208595    0.293717
     61          6           0       -8.197608    2.182772    0.818011
     62          6           0       -9.722558    2.251783    0.454925
     63          6           0       -9.943039    2.613102   -1.064643
     64          6           0      -10.800792    1.556114   -1.889107
     65          6           0      -10.390248    1.565478   -3.364608
     66          6           0      -12.271716    1.928963   -1.932658
     67          1           0        0.574847    1.192632   -4.142864
     68          1           0        2.135422    5.820126    0.284266
     69          1           0        6.566148    1.821050    2.623292
     70          1           0        2.991248   -2.905110   -3.350567
     71          1           0        0.830589   -1.524625   -4.007459
     72          1           0        3.045518    0.007842   -5.343858
     73          1           0        2.022283   -1.328930   -5.884934
     74          1           0        3.455726   -1.674615   -4.872277
     75          1           0        0.403310   -2.528876   -1.724588
     76          1           0        1.767612   -3.402630   -1.028948
     77          1           0        1.466919   -5.286901   -2.042600
     78          1           0        1.260402   -4.490075   -3.666689
     79          1           0       -1.130384    2.557258   -3.930369
     80          1           0       -0.106524    3.616363   -4.944937
     81          1           0       -1.321967    4.239872   -4.022247
     82          1           0        1.221657    7.581918   -0.687650
     83          1           0        0.140913    6.423328    0.212221
     84          1           0       -0.488935    7.836499   -0.662607
     85          1           0        3.577746    5.401000    2.953579
     86          1           0        6.131754    4.564216    2.002413
     87          1           0        4.704783    6.494959    0.269908
     88          1           0        5.606436    6.537164    1.793399
     89          1           0        4.083791    7.365984    1.618967
     90          1           0        5.220599    5.224010    4.333653
     91          1           0        6.621832    4.180844    4.024197
     92          1           0        5.647753    2.512944    5.322835
     93          1           0        4.115179    2.682054    4.329296
     94          1           0        4.362176    3.583235    5.754460
     95          1           0        8.085151   -1.576834    2.169398
     96          1           0        7.937952   -0.104704    3.003138
     97          1           0        8.664224   -0.126560    1.342917
     98          1           0        5.187145   -3.581244   -1.853057
     99          1           0        2.385862   -5.979261    0.571570
    100          1           0        3.969752   -6.388955    1.218152
    101          1           0        3.369399   -7.223825   -0.241351
    102          1           0       -2.266195   -6.469167   -1.100783
    103          1           0       -2.917092   -5.091706   -1.901188
    104          1           0       -3.755229   -4.218935    0.071565
    105          1           0       -0.696726   -5.443702    2.430893
    106          1           0       -0.765910   -6.420874    1.053510
    107          1           0       -1.866153   -6.910741    2.350390
    108          1           0       -2.772369   -4.722863    3.570543
    109          1           0       -4.232515   -5.052814    2.585128
    110          1           0       -3.341322   -2.598152    1.698710
    111          1           0       -2.850781   -2.563739    3.437679
    112          1           0       -5.468881   -3.480127    3.337326
    113          1           0       -5.496451   -2.194114    2.127064
    114          1           0       -4.391635   -0.762241    4.059917
    115          1           0       -5.494443   -2.932963    5.653012
    116          1           0       -4.991587   -1.328560    6.323042
    117          1           0       -3.775273   -2.408908    5.612576
    118          1           0       -6.944404   -0.775452    5.105651
    119          1           0       -7.243135   -1.175574    3.409377
    120          1           0       -5.574967    1.292699    4.011026
    121          1           0       -7.246265    1.295201    3.930174
    122          1           0       -5.604008    0.293305    1.606887
    123          1           0       -5.955821    1.926849    1.986494
    124          1           0       -8.608669    0.573951    2.144483
    125          1           0       -6.894069   -0.096440   -0.349289
    126          1           0       -8.625242   -0.075908   -0.364750
    127          1           0       -7.837448   -1.248799    0.613208
    128          1           0       -7.611367    2.524020   -0.034545
    129          1           0       -8.022272    3.025115    1.487372
    130          1           0      -10.204161    3.128455    0.888434
    131          1           0      -10.261034    1.399873    0.867830
    132          1           0       -9.035702    2.819382   -1.633616
    133          1           0      -10.429971    3.588566   -1.082130
    134          1           0      -10.630528    0.604019   -1.386105
    135          1           0      -11.073285    1.001130   -3.999275
    136          1           0       -9.410192    1.098779   -3.463254
    137          1           0      -10.215065    2.573487   -3.739545
    138          1           0      -12.395597    2.770442   -1.251686
    139          1           0      -12.820667    1.086567   -1.511459
    140          1           0      -12.688095    2.113469   -2.923507
 ---------------------------------------------------------------------

 SCF Done:  E(RZINDO/S) =  -474.350031420     A.U. after   20 cycles

 Excitation energies and oscillator strengths:

 Excited State   1:      Singlet-A      1.1863 eV 1045.13 nm  f=0.5612  <S**2>=0.000
     175 ->178        -0.20228
     176 ->177         0.66017
 This state for optimization and/or second-order correction.
 Total Energy, E(CIS/TDA) =  -474.306435757
 Copying the excited state density for this state as the 1-particle RhoCI density.

 Excited State   2:      Singlet-A      1.8644 eV  665.02 nm  f=0.0313  <S**2>=0.000
     175 ->177         0.54126
     176 ->178         0.43246

 Excited State   3:      Singlet-A      2.8576 eV  433.87 nm  f=0.0040  <S**2>=0.000
     170 ->177         0.28091
     170 ->178        -0.10075
     170 ->179         0.21934
     170 ->180        -0.38676
     170 ->183         0.18250
     170 ->184        -0.10206
     170 ->186        -0.24174
     170 ->187        -0.17663

 Excited State   4:      Singlet-A      2.9184 eV  424.83 nm  f=0.4409  <S**2>=0.000
     168 ->177        -0.18234
     168 ->179         0.24149
     168 ->186        -0.10934
     169 ->177        -0.10113
     169 ->179         0.13173
     171 ->177        -0.11723
     175 ->177        -0.25700
     176 ->178         0.35413
     176 ->179         0.29936

 Excited State   5:      Singlet-A      2.9726 eV  417.09 nm  f=0.5118  <S**2>=0.000
     168 ->177         0.28090
     168 ->179        -0.33605
     168 ->186         0.14553
     169 ->179        -0.10791
     175 ->177        -0.25257
     176 ->178         0.33059

 The electronic state is 1-A.
 Alpha  occ. eigenvalues --   -1.85692  -1.82115  -1.79401  -1.74435  -1.72325
 Alpha  occ. eigenvalues --   -1.71300  -1.64516  -1.60478  -1.59835  -1.58977
 Alpha  occ. eigenvalues --   -1.55089  -1.50552  -1.49708  -1.49477  -1.45735
 Alpha  occ. eigenvalues --   -1.44034  -1.43333  -1.40513  -1.39039  -1.38832
 Alpha  occ. eigenvalues --   -1.36790  -1.34972  -1.32159  -1.30844  -1.29047
 Alpha  occ. eigenvalues --   -1.27561  -1.25960  -1.22640  -1.20851  -1.18147
 Alpha  occ. eigenvalues --   -1.17366  -1.14773  -1.14266  -1.13894  -1.13429
 Alpha  occ. eigenvalues --   -1.13201  -1.10087  -1.09843  -1.05435  -1.04406
 Alpha  occ. eigenvalues --   -1.01486  -1.00974  -0.99142  -0.98995  -0.98254
 Alpha  occ. eigenvalues --   -0.96049  -0.94719  -0.93828  -0.92956  -0.92850
 Alpha  occ. eigenvalues --   -0.90737  -0.89814  -0.89621  -0.87914  -0.86300
 Alpha  occ. eigenvalues --   -0.86131  -0.84727  -0.83865  -0.81864  -0.80604
 Alpha  occ. eigenvalues --   -0.79779  -0.77744  -0.77376  -0.77000  -0.76759
 Alpha  occ. eigenvalues --   -0.76363  -0.75575  -0.74991  -0.74668  -0.74398
 Alpha  occ. eigenvalues --   -0.73450  -0.73325  -0.72438  -0.71982  -0.71513
 Alpha  occ. eigenvalues --   -0.70571  -0.69937  -0.69220  -0.68652  -0.68561
 Alpha  occ. eigenvalues --   -0.67379  -0.67040  -0.66630  -0.65618  -0.65343
 Alpha  occ. eigenvalues --   -0.64981  -0.64590  -0.64290  -0.63726  -0.63691
 Alpha  occ. eigenvalues --   -0.63532  -0.63271  -0.62752  -0.62319  -0.61996
 Alpha  occ. eigenvalues --   -0.61906  -0.61552  -0.60981  -0.60642  -0.60260
 Alpha  occ. eigenvalues --   -0.59674  -0.58493  -0.58275  -0.58141  -0.57663
 Alpha  occ. eigenvalues --   -0.57337  -0.57288  -0.57233  -0.57039  -0.56664
 Alpha  occ. eigenvalues --   -0.56377  -0.56121  -0.55766  -0.55377  -0.54489
 Alpha  occ. eigenvalues --   -0.54156  -0.53759  -0.53555  -0.52779  -0.52755
 Alpha  occ. eigenvalues --   -0.52297  -0.52182  -0.51958  -0.51600  -0.51394
 Alpha  occ. eigenvalues --   -0.51185  -0.50937  -0.50549  -0.50316  -0.50030
 Alpha  occ. eigenvalues --   -0.49906  -0.49637  -0.49565  -0.49340  -0.49286
 Alpha  occ. eigenvalues --   -0.49021  -0.48571  -0.48244  -0.47524  -0.47493
 Alpha  occ. eigenvalues --   -0.47290  -0.46979  -0.46897  -0.46359  -0.46228
 Alpha  occ. eigenvalues --   -0.46052  -0.45881  -0.45800  -0.45242  -0.45047
 Alpha  occ. eigenvalues --   -0.44980  -0.44831  -0.44527  -0.44495  -0.44047
 Alpha  occ. eigenvalues --   -0.43962  -0.43098  -0.42842  -0.42517  -0.42296
 Alpha  occ. eigenvalues --   -0.42167  -0.41623  -0.41362  -0.39525  -0.39334
 Alpha  occ. eigenvalues --   -0.38728  -0.37701  -0.35784  -0.35594  -0.34508
 Alpha  occ. eigenvalues --   -0.33382  -0.32943  -0.32463  -0.31643  -0.27012
 Alpha  occ. eigenvalues --   -0.22005
 Alpha virt. eigenvalues --   -0.09010  -0.02762  -0.01136   0.00891   0.01518
 Alpha virt. eigenvalues --    0.01961   0.02499   0.02609   0.04063   0.04891
 Alpha virt. eigenvalues --    0.05902   0.06899   0.07443   0.07703   0.07893

 Mulliken charges:
               1
     1  Mg   0.425170
     2  C   -0.033720
     3  C   -0.058664
     4  C   -0.079587
     5  C   -0.073650
     6  N   -0.300025
     7  C    0.138353
     8  C    0.002886
     9  C    0.006943
    10  C    0.104059
    11  C   -0.053702
    12  C   -0.022161
    13  C    0.009230
    14  C    0.462216
    15  O   -0.529231
    16  O   -0.260093
    17  N   -0.340689
    18  C    0.096802
    19  C    0.045552
    20  C   -0.043403
    21  C    0.130343
    22  C   -0.042838
    23  C    0.319431
    24  O   -0.529601
    25  C   -0.023271
    26  N   -0.279818
    27  C    0.139462
    28  C    0.001446
    29  C    0.015911
    30  C    0.142393
    31  C   -0.059325
    32  C   -0.022982
    33  C   -0.058330
    34  N   -0.338002
    35  C    0.120386
    36  C    0.044455
    37  C   -0.051703
    38  C    0.118928
    39  C   -0.034676
    40  C    0.339309
    41  O   -0.522284
    42  C    0.058679
    43  C    0.495462
    44  O   -0.524576
    45  O   -0.277179
    46  C    0.075578
    47  C    0.107031
    48  C   -0.103355
    49  C   -0.000510
    50  C   -0.044731
    51  C   -0.018294
    52  C   -0.028962
    53  C   -0.032561
    54  C   -0.016100
    55  C   -0.057470
    56  C   -0.026733
    57  C   -0.039959
    58  C   -0.038452
    59  C   -0.000064
    60  C   -0.062851
    61  C   -0.028385
    62  C   -0.046172
    63  C   -0.042340
    64  C   -0.013803
    65  C   -0.052065
    66  C   -0.056012
    67  H    0.040337
    68  H    0.025798
    69  H    0.025568
    70  H    0.023074
    71  H    0.026339
    72  H    0.036729
    73  H    0.021199
    74  H    0.020624
    75  H    0.041394
    76  H    0.030435
    77  H    0.053834
    78  H    0.036576
    79  H    0.027065
    80  H    0.031594
    81  H    0.021176
    82  H    0.041324
    83  H    0.023877
    84  H    0.039744
    85  H    0.034580
    86  H    0.025266
    87  H    0.029845
    88  H    0.012113
    89  H    0.017980
    90  H    0.018413
    91  H    0.017338
    92  H    0.025710
    93  H    0.025008
    94  H    0.016547
    95  H    0.026630
    96  H    0.028017
    97  H    0.039723
    98  H    0.057119
    99  H    0.041001
   100  H    0.049480
   101  H    0.034127
   102  H    0.044647
   103  H    0.041940
   104  H    0.026055
   105  H    0.029009
   106  H    0.021044
   107  H    0.037133
   108  H    0.012953
   109  H    0.032800
   110  H    0.021368
   111  H    0.026077
   112  H    0.014298
   113  H    0.020946
   114  H    0.010791
   115  H    0.017908
   116  H    0.019800
   117  H    0.020695
   118  H    0.016485
   119  H    0.021245
   120  H    0.013296
   121  H    0.006842
   122  H    0.025813
   123  H    0.011069
   124  H    0.033878
   125  H    0.021326
   126  H    0.009780
   127  H    0.015369
   128  H    0.025798
   129  H    0.005309
   130  H    0.011103
   131  H    0.029410
   132  H    0.019779
   133  H    0.013487
   134  H    0.028153
   135  H    0.019047
   136  H    0.000593
   137  H    0.023209
   138  H    0.018526
   139  H    0.008902
   140  H    0.026835
 Sum of Mulliken charges =  -0.00000

 Dipole moment (field-independent basis, Debye):
    X=              3.9365    Y=              2.1603    Z=              3.0614  Tot=              5.4346
 N-N= 4.543712311354D+03 E-N= 0.000000000000D+00  KE=-9.761568583234D+03
 Leave Link  601 at Sat Apr 30 03:44:49 2022, MaxMem=  6710886400 cpu:               0.8 elap:               0.0
 (Enter /sw/apps/gaussian-16.0/g16/l9999.exe)
 1\1\GINC-BP1-COMPUTE102\SP\RZINDO CIS\STO-3G\C55H74Mg1N4O6\OF15641\30-
 Apr-2022\0\\#p ZINDO=(nstates=5)\\step_551_chromophore_20 ZINDO\\0,1\M
 g,0,7.58,55.788,40.924\C,0,7.338,52.264,41.224\C,0,10.916,55.299,39.83
 4\C,0,7.734,59.064,40.153\C,0,4.399,56.06,41.995\N,0,8.824,53.919,40.3
 93\C,0,8.501,52.604,40.525\C,0,9.652,51.733,40.096\C,0,10.862,52.692,4
 0.236\C,0,10.212,54.085,40.142\C,0,11.71,52.567,41.548\C,0,9.316,51.13
 4,38.648\C,0,9.901,49.727,38.39\C,0,10.482,49.523,37.\O,0,11.557,48.98

 Normal termination of Gaussian 16 at Sat Apr 30 03:44:50 2022.
