 Gaussian 16, Revision A.03,
 Gaussian 16:  ES64L-G16RevA.03 25-Dec-2016

 ------------------------------
 #p blyp/Def2SVP td=(nstates=5)
 ------------------------------

 --------------------------------------------------
 step_1501_chromophore_2 TDDFT with blyp functional
 --------------------------------------------------
 Symbolic Z-matrix:
 Charge =  0 Multiplicity = 1

                         Standard orientation:
 ---------------------------------------------------------------------
 Center     Atomic      Atomic             Coordinates (Angstroms)
 Number     Number       Type             X           Y           Z
 ---------------------------------------------------------------------
      1         12           0        4.361492    1.277666   -0.566596
      2          6           0        4.483489   -2.319498   -0.732463
      3          6           0        1.672729    1.170332   -2.718148
      4          6           0        3.549023    4.329283    0.305136
      5          6           0        6.400376    1.014903    2.452279
      6          7           0        3.211699   -0.431320   -1.564281
      7          6           0        3.466410   -1.776243   -1.563252
      8          6           0        2.552285   -2.438705   -2.537102
      9          6           0        1.892188   -1.250176   -3.301454
     10          6           0        2.204897   -0.086451   -2.372281
     11          6           0        2.351033   -0.937414   -4.784309
     12          6           0        1.501128   -3.389464   -1.807672
     13          6           0        0.412019   -2.642650   -0.953624
     14          6           0       -0.995156   -2.746583   -1.444096
     15          8           0       -1.404173   -2.310658   -2.539446
     16          8           0       -1.766493   -3.461743   -0.514698
     17          7           0        3.045066    2.641858   -1.363880
     18          6           0        2.087264    2.408272   -2.332205
     19          6           0        1.576364    3.776905   -2.712962
     20          6           0        2.233234    4.741174   -1.894408
     21          6           0        2.992982    3.915628   -0.911457
     22          6           0        0.430652    3.993576   -3.706322
     23          6           0        2.154609    6.173624   -2.069789
     24          8           0        1.432165    6.663421   -2.890001
     25          6           0        2.712293    7.078988   -1.026644
     26          7           0        4.998839    2.542149    1.136267
     27          6           0        4.302129    3.713670    1.337315
     28          6           0        4.592110    4.337111    2.711029
     29          6           0        5.723794    3.409385    3.248107
     30          6           0        5.770142    2.224405    2.199559
     31          6           0        4.843930    5.927580    2.732100
     32          6           0        5.465716    2.912264    4.738797
     33          6           0        6.447618    3.499020    5.783322
     34          7           0        5.398901   -0.228809    0.508058
     35          6           0        6.247123   -0.185598    1.615450
     36          6           0        6.796414   -1.528040    1.898815
     37          6           0        6.119989   -2.346121    0.966680
     38          6           0        5.293113   -1.546714    0.199798
     39          6           0        7.699900   -1.963991    2.991511
     40          6           0        6.066874   -3.702807    0.534163
     41          8           0        6.772957   -4.628998    0.964220
     42          6           0        4.863478   -3.772392   -0.444246
     43          6           0        5.177262   -4.652916   -1.605974
     44          8           0        4.382127   -5.470886   -2.052364
     45          8           0        6.440696   -4.446129   -2.019567
     46          6           0        6.933830   -5.388968   -3.023126
     47          6           0       -3.183486   -3.469437   -0.765749
     48          6           0       -3.830305   -3.698085    0.616170
     49          6           0       -3.751239   -2.994875    1.767997
     50          6           0       -3.175455   -1.609574    1.793828
     51          6           0       -4.363638   -3.421975    3.108276
     52          6           0       -5.829919   -3.150823    3.319094
     53          6           0       -6.612784   -3.493423    2.059952
     54          6           0       -8.148782   -3.422709    2.333832
     55          6           0       -8.908063   -4.751549    1.897013
     56          6           0       -8.756552   -2.169664    1.573409
     57          6           0       -8.726979   -0.866413    2.445036
     58          6           0       -7.833293    0.196319    1.867254
     59          6           0       -8.494514    1.045822    0.752146
     60          6           0       -7.457039    1.939994    0.096200
     61          6           0       -9.541276    1.967779    1.367570
     62          6           0      -10.896871    1.841759    0.648051
     63          6           0      -11.032084    3.025235   -0.435359
     64          6           0      -11.468508    2.516164   -1.882340
     65          6           0      -10.743521    3.246173   -2.991070
     66          6           0      -12.980448    2.496728   -2.013314
     67          1           0        0.911808    1.063526   -3.493479
     68          1           0        3.073198    5.248961    0.652221
     69          1           0        7.048632    0.851828    3.315997
     70          1           0        3.106453   -3.009201   -3.283151
     71          1           0        0.855257   -1.574847   -3.388404
     72          1           0        2.734092    0.081902   -4.832545
     73          1           0        1.371711   -1.042785   -5.251257
     74          1           0        3.141289   -1.646031   -5.032728
     75          1           0        2.068741   -4.040287   -1.143023
     76          1           0        0.999215   -3.897953   -2.631313
     77          1           0        0.716960   -1.597618   -0.903982
     78          1           0        0.392656   -3.075905    0.046451
     79          1           0       -0.477138    4.257104   -3.163223
     80          1           0        0.228054    3.032299   -4.177153
     81          1           0        0.520494    4.825545   -4.405020
     82          1           0        3.739122    6.916032   -0.698240
     83          1           0        2.023013    7.029122   -0.183915
     84          1           0        2.692485    8.100255   -1.407006
     85          1           0        3.714201    4.160458    3.332411
     86          1           0        6.725519    3.838291    3.231533
     87          1           0        4.031910    6.574686    3.065335
     88          1           0        5.102690    6.326416    1.751278
     89          1           0        5.644035    6.191651    3.423782
     90          1           0        5.419316    1.839790    4.931381
     91          1           0        4.454537    3.142384    5.075603
     92          1           0        7.254564    4.009819    5.258441
     93          1           0        6.813421    2.717532    6.450065
     94          1           0        5.975819    4.286609    6.372009
     95          1           0        7.329960   -1.769986    3.998659
     96          1           0        8.587346   -1.332821    2.935347
     97          1           0        7.888961   -3.031682    2.877784
     98          1           0        4.068042   -4.173007    0.183207
     99          1           0        7.919636   -4.932474   -3.118830
    100          1           0        6.377368   -5.287257   -3.954634
    101          1           0        7.007457   -6.420830   -2.679578
    102          1           0       -3.595864   -4.184913   -1.477645
    103          1           0       -3.587945   -2.531362   -1.146387
    104          1           0       -4.232243   -4.709320    0.669630
    105          1           0       -2.256261   -1.673715    2.376494
    106          1           0       -3.960813   -1.020433    2.269216
    107          1           0       -3.001659   -1.236604    0.784685
    108          1           0       -3.973520   -2.852127    3.951562
    109          1           0       -4.208316   -4.479760    3.318377
    110          1           0       -6.019471   -2.090614    3.485866
    111          1           0       -6.239710   -3.735522    4.142713
    112          1           0       -6.288970   -4.456126    1.664046
    113          1           0       -6.316125   -2.814813    1.260517
    114          1           0       -8.272239   -3.334350    3.413314
    115          1           0       -9.586184   -5.034303    2.702908
    116          1           0       -8.328305   -5.621075    1.588562
    117          1           0       -9.583225   -4.596179    1.055938
    118          1           0       -9.809140   -2.383571    1.382414
    119          1           0       -8.245485   -1.992373    0.626931
    120          1           0       -8.424480   -1.009084    3.482860
    121          1           0       -9.700876   -0.413701    2.631246
    122          1           0       -6.876042   -0.146132    1.473725
    123          1           0       -7.617860    0.832331    2.726338
    124          1           0       -8.777600    0.312578   -0.003303
    125          1           0       -6.755082    1.375485   -0.516896
    126          1           0       -7.049302    2.507573    0.932976
    127          1           0       -7.896633    2.719777   -0.525433
    128          1           0       -9.241918    3.014740    1.337218
    129          1           0       -9.577445    1.899279    2.455355
    130          1           0      -11.642084    1.921600    1.439481
    131          1           0      -11.006765    0.846363    0.218531
    132          1           0      -10.199086    3.727437   -0.444608
    133          1           0      -11.825884    3.674496   -0.065078
    134          1           0      -11.086126    1.497039   -1.943970
    135          1           0      -11.491210    3.876376   -3.472174
    136          1           0      -10.337804    2.557742   -3.732828
    137          1           0       -9.878104    3.790374   -2.612613
    138          1           0      -13.236015    1.444549   -1.882887
    139          1           0      -13.212678    2.658319   -3.066311
    140          1           0      -13.618921    3.166309   -1.437068
 ---------------------------------------------------------------------

 SCF Done:  E(RB-LYP) =  -3007.37043270     A.U. after   21 cycles

 Excitation energies and oscillator strengths:

 Excited State   1:      Singlet-A      1.7684 eV  701.11 nm  f=0.2749  <S**2>=0.000
     245 -> 248        0.19352
     246 -> 247        0.68779
     246 <- 247       -0.14772
 This state for optimization and/or second-order correction.
 Total Energy, E(TD-HF/TD-DFT) =  -3007.30544503
 Copying the excited state density for this state as the 1-particle RhoCI density.

 Excited State   2:      Singlet-A      1.8509 eV  669.87 nm  f=0.0025  <S**2>=0.000
     244 -> 247        0.68327
     245 -> 247       -0.17022

 Excited State   3:      Singlet-A      1.9225 eV  644.91 nm  f=0.0047  <S**2>=0.000
     243 -> 247        0.66100
     244 -> 247       -0.10393
     245 -> 247       -0.21216

 Excited State   4:      Singlet-A      2.0255 eV  612.12 nm  f=0.0521  <S**2>=0.000
     243 -> 247        0.23785
     244 -> 247        0.14142
     245 -> 247        0.57537
     246 -> 248       -0.27427

 Excited State   5:      Singlet-A      2.3291 eV  532.33 nm  f=0.0001  <S**2>=0.000
     242 -> 247        0.70688

 The electronic state is 1-A.
 Alpha  occ. eigenvalues --  -46.28494 -18.82977 -18.82700 -18.77811 -18.76678
 Alpha  occ. eigenvalues --  -18.75293 -18.75094 -14.03457 -14.03352 -14.01629
 Alpha  occ. eigenvalues --  -14.01206 -10.04729 -10.03910  -9.99022  -9.98898
 Alpha  occ. eigenvalues --   -9.98031  -9.98014  -9.97357  -9.96888  -9.96608
 Alpha  occ. eigenvalues --   -9.96551  -9.96430  -9.96284  -9.95865  -9.95230
 Alpha  occ. eigenvalues --   -9.94773  -9.94668  -9.94590  -9.94473  -9.94061
 Alpha  occ. eigenvalues --   -9.93549  -9.93533  -9.93442  -9.93346  -9.93297
 Alpha  occ. eigenvalues --   -9.93218  -9.93077  -9.93002  -9.92854  -9.92807
 Alpha  occ. eigenvalues --   -9.92783  -9.92456  -9.92437  -9.92135  -9.92114
 Alpha  occ. eigenvalues --   -9.92023  -9.92006  -9.91975  -9.91945  -9.91578
 Alpha  occ. eigenvalues --   -9.91490  -9.91392  -9.91343  -9.91327  -9.91243
 Alpha  occ. eigenvalues --   -9.91163  -9.91066  -9.90811  -9.90665  -9.90599
 Alpha  occ. eigenvalues --   -9.90509  -9.90461  -9.90331  -9.90290  -9.90104
 Alpha  occ. eigenvalues --   -9.90083  -2.92937  -1.73352  -1.72842  -1.72634
 Alpha  occ. eigenvalues --   -0.98683  -0.97514  -0.92919  -0.90146  -0.89981
 Alpha  occ. eigenvalues --   -0.89979  -0.86907  -0.86009  -0.85577  -0.84883
 Alpha  occ. eigenvalues --   -0.75516  -0.73918  -0.73265  -0.72449  -0.72277
 Alpha  occ. eigenvalues --   -0.71648  -0.71289  -0.70885  -0.70647  -0.69784
 Alpha  occ. eigenvalues --   -0.69624  -0.69173  -0.68212  -0.67595  -0.67212
 Alpha  occ. eigenvalues --   -0.66282  -0.66094  -0.65423  -0.65208  -0.64728
 Alpha  occ. eigenvalues --   -0.64167  -0.62443  -0.62065  -0.61776  -0.61182
 Alpha  occ. eigenvalues --   -0.60176  -0.60111  -0.59756  -0.59019  -0.58463
 Alpha  occ. eigenvalues --   -0.58298  -0.57557  -0.57113  -0.56047  -0.54596
 Alpha  occ. eigenvalues --   -0.53962  -0.53380  -0.53254  -0.51987  -0.51963
 Alpha  occ. eigenvalues --   -0.51674  -0.51321  -0.50995  -0.50619  -0.49913
 Alpha  occ. eigenvalues --   -0.49764  -0.49367  -0.49192  -0.48219  -0.46588
 Alpha  occ. eigenvalues --   -0.46384  -0.45859  -0.45463  -0.45399  -0.44671
 Alpha  occ. eigenvalues --   -0.44030  -0.43721  -0.43430  -0.43088  -0.42715
 Alpha  occ. eigenvalues --   -0.42307  -0.42078  -0.41780  -0.41507  -0.41079
 Alpha  occ. eigenvalues --   -0.40948  -0.40480  -0.40208  -0.39984  -0.39924
 Alpha  occ. eigenvalues --   -0.39689  -0.39390  -0.39278  -0.39118  -0.38982
 Alpha  occ. eigenvalues --   -0.38958  -0.38729  -0.38453  -0.38401  -0.38058
 Alpha  occ. eigenvalues --   -0.37992  -0.37596  -0.37404  -0.37158  -0.37008
 Alpha  occ. eigenvalues --   -0.36812  -0.36781  -0.36404  -0.36281  -0.36089
 Alpha  occ. eigenvalues --   -0.35994  -0.35930  -0.35746  -0.35553  -0.35388
 Alpha  occ. eigenvalues --   -0.35363  -0.34974  -0.34944  -0.34529  -0.34506
 Alpha  occ. eigenvalues --   -0.34467  -0.34273  -0.34182  -0.34101  -0.33999
 Alpha  occ. eigenvalues --   -0.33679  -0.33673  -0.33588  -0.33543  -0.33414
 Alpha  occ. eigenvalues --   -0.33230  -0.32987  -0.32643  -0.32328  -0.32069
 Alpha  occ. eigenvalues --   -0.32064  -0.31918  -0.31659  -0.31597  -0.31423
 Alpha  occ. eigenvalues --   -0.31360  -0.31173  -0.31073  -0.30982  -0.30863
 Alpha  occ. eigenvalues --   -0.30381  -0.30250  -0.30224  -0.30113  -0.29924
 Alpha  occ. eigenvalues --   -0.29848  -0.29606  -0.29595  -0.29509  -0.29053
 Alpha  occ. eigenvalues --   -0.28803  -0.28672  -0.28282  -0.27919  -0.27530
 Alpha  occ. eigenvalues --   -0.27355  -0.26982  -0.26904  -0.26816  -0.26272
 Alpha  occ. eigenvalues --   -0.26242  -0.25831  -0.25825  -0.25703  -0.25264
 Alpha  occ. eigenvalues --   -0.24988  -0.24718  -0.24211  -0.23763  -0.23457
 Alpha  occ. eigenvalues --   -0.23172  -0.22750  -0.22196  -0.21593  -0.20665
 Alpha  occ. eigenvalues --   -0.20262  -0.20148  -0.18577  -0.18326  -0.17536
 Alpha  occ. eigenvalues --   -0.15790
 Alpha virt. eigenvalues --   -0.11590  -0.07473  -0.06442  -0.04700  -0.04257
 Alpha virt. eigenvalues --   -0.03592  -0.02591  -0.02430  -0.01578   0.00251
 Alpha virt. eigenvalues --    0.00920   0.01442   0.02031   0.02631   0.03095

 Mulliken charges:
               1
     1  Mg   0.695900
     2  C   -0.028764
     3  C   -0.063630
     4  C   -0.040840
     5  C   -0.053699
     6  N   -0.170628
     7  C   -0.083281
     8  C    0.003599
     9  C   -0.074554
    10  C   -0.007808
    11  C    0.144199
    12  C    0.119017
    13  C    0.128660
    14  C    0.093066
    15  O   -0.209653
    16  O   -0.259490
    17  N   -0.321913
    18  C    0.176416
    19  C   -0.132749
    20  C    0.063473
    21  C    0.115676
    22  C    0.177150
    23  C   -0.110142
    24  O   -0.146233
    25  C    0.113118
    26  N   -0.210315
    27  C   -0.032438
    28  C    0.093766
    29  C    0.024984
    30  C    0.041578
    31  C    0.103577
    32  C    0.063443
    33  C    0.053171
    34  N   -0.248026
    35  C    0.057377
    36  C   -0.178019
    37  C    0.070177
    38  C    0.092611
    39  C    0.175909
    40  C   -0.054035
    41  O   -0.155144
    42  C    0.070690
    43  C    0.109222
    44  O   -0.184276
    45  O   -0.252144
    46  C    0.222290
    47  C    0.321535
    48  C   -0.120714
    49  C   -0.150291
    50  C    0.156560
    51  C    0.175355
    52  C    0.026160
    53  C    0.077033
    54  C   -0.047285
    55  C    0.091990
    56  C    0.123608
    57  C    0.100721
    58  C    0.056491
    59  C   -0.047730
    60  C    0.112515
    61  C    0.096945
    62  C    0.093524
    63  C    0.085913
    64  C   -0.107152
    65  C    0.115655
    66  C    0.131964
    67  H   -0.045434
    68  H   -0.048555
    69  H   -0.058468
    70  H   -0.025754
    71  H   -0.020117
    72  H    0.003328
    73  H    0.012808
    74  H   -0.005754
    75  H    0.001964
    76  H    0.000097
    77  H    0.019265
    78  H   -0.010738
    79  H    0.000529
    80  H   -0.022172
    81  H    0.015415
    82  H    0.002665
    83  H    0.022980
    84  H   -0.017493
    85  H   -0.012903
    86  H   -0.012546
    87  H   -0.011142
    88  H   -0.001886
    89  H   -0.009054
    90  H   -0.021779
    91  H   -0.035763
    92  H   -0.014745
    93  H   -0.001420
    94  H   -0.009232
    95  H   -0.006666
    96  H   -0.009072
    97  H    0.015185
    98  H    0.021190
    99  H    0.014590
   100  H    0.015835
   101  H    0.031960
   102  H   -0.010139
   103  H   -0.008851
   104  H   -0.034396
   105  H    0.007121
   106  H   -0.002842
   107  H   -0.012899
   108  H   -0.045044
   109  H   -0.022333
   110  H   -0.023670
   111  H   -0.021017
   112  H   -0.048268
   113  H   -0.018133
   114  H   -0.032069
   115  H   -0.020099
   116  H   -0.015644
   117  H   -0.026979
   118  H   -0.037930
   119  H   -0.018134
   120  H   -0.041405
   121  H   -0.047064
   122  H   -0.039898
   123  H   -0.051849
   124  H   -0.038453
   125  H   -0.018567
   126  H   -0.026107
   127  H   -0.024516
   128  H   -0.050022
   129  H   -0.049350
   130  H   -0.038873
   131  H   -0.020995
   132  H   -0.029882
   133  H   -0.043794
   134  H   -0.033381
   135  H   -0.020297
   136  H   -0.020154
   137  H   -0.018613
   138  H   -0.021348
   139  H   -0.035630
   140  H    0.000324
 Sum of Mulliken charges =  -0.00000

 Dipole moment (field-independent basis, Debye):
    X=             -0.0402    Y=              2.4664    Z=              2.7796  Tot=              3.7163
 Quadrupole moment (field-independent basis, Debye-Ang):
   XX=           -391.9026   YY=           -434.0040   ZZ=           -392.7238
   XY=             27.5711   XZ=             -9.1486   YZ=             27.9299

 Normal termination of Gaussian 16 at Thu Apr 28 08:08:22 2022.
