 Gaussian 16, Revision A.03,
 Gaussian 16:  ES64L-G16RevA.03 25-Dec-2016

 -----------------------------------
 #p cam-b3lyp/Def2SVP td=(nstates=5)
 -----------------------------------

 -------------------------------------------------------
 step_1501_chromophore_2 TDDFT with cam-b3lyp functional
 -------------------------------------------------------
 Symbolic Z-matrix:
 Charge =  0 Multiplicity = 1

                         Standard orientation:
 ---------------------------------------------------------------------
 Center     Atomic      Atomic             Coordinates (Angstroms)
 Number     Number       Type             X           Y           Z
 ---------------------------------------------------------------------
      1         12           0        4.361492    1.277666   -0.566596
      2          6           0        4.483489   -2.319498   -0.732463
      3          6           0        1.672729    1.170332   -2.718148
      4          6           0        3.549023    4.329283    0.305136
      5          6           0        6.400376    1.014903    2.452279
      6          7           0        3.211699   -0.431320   -1.564281
      7          6           0        3.466410   -1.776243   -1.563252
      8          6           0        2.552285   -2.438705   -2.537102
      9          6           0        1.892188   -1.250176   -3.301454
     10          6           0        2.204897   -0.086451   -2.372281
     11          6           0        2.351033   -0.937414   -4.784309
     12          6           0        1.501128   -3.389464   -1.807672
     13          6           0        0.412019   -2.642650   -0.953624
     14          6           0       -0.995156   -2.746583   -1.444096
     15          8           0       -1.404173   -2.310658   -2.539446
     16          8           0       -1.766493   -3.461743   -0.514698
     17          7           0        3.045066    2.641858   -1.363880
     18          6           0        2.087264    2.408272   -2.332205
     19          6           0        1.576364    3.776905   -2.712962
     20          6           0        2.233234    4.741174   -1.894408
     21          6           0        2.992982    3.915628   -0.911457
     22          6           0        0.430652    3.993576   -3.706322
     23          6           0        2.154609    6.173624   -2.069789
     24          8           0        1.432165    6.663421   -2.890001
     25          6           0        2.712293    7.078988   -1.026644
     26          7           0        4.998839    2.542149    1.136267
     27          6           0        4.302129    3.713670    1.337315
     28          6           0        4.592110    4.337111    2.711029
     29          6           0        5.723794    3.409385    3.248107
     30          6           0        5.770142    2.224405    2.199559
     31          6           0        4.843930    5.927580    2.732100
     32          6           0        5.465716    2.912264    4.738797
     33          6           0        6.447618    3.499020    5.783322
     34          7           0        5.398901   -0.228809    0.508058
     35          6           0        6.247123   -0.185598    1.615450
     36          6           0        6.796414   -1.528040    1.898815
     37          6           0        6.119989   -2.346121    0.966680
     38          6           0        5.293113   -1.546714    0.199798
     39          6           0        7.699900   -1.963991    2.991511
     40          6           0        6.066874   -3.702807    0.534163
     41          8           0        6.772957   -4.628998    0.964220
     42          6           0        4.863478   -3.772392   -0.444246
     43          6           0        5.177262   -4.652916   -1.605974
     44          8           0        4.382127   -5.470886   -2.052364
     45          8           0        6.440696   -4.446129   -2.019567
     46          6           0        6.933830   -5.388968   -3.023126
     47          6           0       -3.183486   -3.469437   -0.765749
     48          6           0       -3.830305   -3.698085    0.616170
     49          6           0       -3.751239   -2.994875    1.767997
     50          6           0       -3.175455   -1.609574    1.793828
     51          6           0       -4.363638   -3.421975    3.108276
     52          6           0       -5.829919   -3.150823    3.319094
     53          6           0       -6.612784   -3.493423    2.059952
     54          6           0       -8.148782   -3.422709    2.333832
     55          6           0       -8.908063   -4.751549    1.897013
     56          6           0       -8.756552   -2.169664    1.573409
     57          6           0       -8.726979   -0.866413    2.445036
     58          6           0       -7.833293    0.196319    1.867254
     59          6           0       -8.494514    1.045822    0.752146
     60          6           0       -7.457039    1.939994    0.096200
     61          6           0       -9.541276    1.967779    1.367570
     62          6           0      -10.896871    1.841759    0.648051
     63          6           0      -11.032084    3.025235   -0.435359
     64          6           0      -11.468508    2.516164   -1.882340
     65          6           0      -10.743521    3.246173   -2.991070
     66          6           0      -12.980448    2.496728   -2.013314
     67          1           0        0.911808    1.063526   -3.493479
     68          1           0        3.073198    5.248961    0.652221
     69          1           0        7.048632    0.851828    3.315997
     70          1           0        3.106453   -3.009201   -3.283151
     71          1           0        0.855257   -1.574847   -3.388404
     72          1           0        2.734092    0.081902   -4.832545
     73          1           0        1.371711   -1.042785   -5.251257
     74          1           0        3.141289   -1.646031   -5.032728
     75          1           0        2.068741   -4.040287   -1.143023
     76          1           0        0.999215   -3.897953   -2.631313
     77          1           0        0.716960   -1.597618   -0.903982
     78          1           0        0.392656   -3.075905    0.046451
     79          1           0       -0.477138    4.257104   -3.163223
     80          1           0        0.228054    3.032299   -4.177153
     81          1           0        0.520494    4.825545   -4.405020
     82          1           0        3.739122    6.916032   -0.698240
     83          1           0        2.023013    7.029122   -0.183915
     84          1           0        2.692485    8.100255   -1.407006
     85          1           0        3.714201    4.160458    3.332411
     86          1           0        6.725519    3.838291    3.231533
     87          1           0        4.031910    6.574686    3.065335
     88          1           0        5.102690    6.326416    1.751278
     89          1           0        5.644035    6.191651    3.423782
     90          1           0        5.419316    1.839790    4.931381
     91          1           0        4.454537    3.142384    5.075603
     92          1           0        7.254564    4.009819    5.258441
     93          1           0        6.813421    2.717532    6.450065
     94          1           0        5.975819    4.286609    6.372009
     95          1           0        7.329960   -1.769986    3.998659
     96          1           0        8.587346   -1.332821    2.935347
     97          1           0        7.888961   -3.031682    2.877784
     98          1           0        4.068042   -4.173007    0.183207
     99          1           0        7.919636   -4.932474   -3.118830
    100          1           0        6.377368   -5.287257   -3.954634
    101          1           0        7.007457   -6.420830   -2.679578
    102          1           0       -3.595864   -4.184913   -1.477645
    103          1           0       -3.587945   -2.531362   -1.146387
    104          1           0       -4.232243   -4.709320    0.669630
    105          1           0       -2.256261   -1.673715    2.376494
    106          1           0       -3.960813   -1.020433    2.269216
    107          1           0       -3.001659   -1.236604    0.784685
    108          1           0       -3.973520   -2.852127    3.951562
    109          1           0       -4.208316   -4.479760    3.318377
    110          1           0       -6.019471   -2.090614    3.485866
    111          1           0       -6.239710   -3.735522    4.142713
    112          1           0       -6.288970   -4.456126    1.664046
    113          1           0       -6.316125   -2.814813    1.260517
    114          1           0       -8.272239   -3.334350    3.413314
    115          1           0       -9.586184   -5.034303    2.702908
    116          1           0       -8.328305   -5.621075    1.588562
    117          1           0       -9.583225   -4.596179    1.055938
    118          1           0       -9.809140   -2.383571    1.382414
    119          1           0       -8.245485   -1.992373    0.626931
    120          1           0       -8.424480   -1.009084    3.482860
    121          1           0       -9.700876   -0.413701    2.631246
    122          1           0       -6.876042   -0.146132    1.473725
    123          1           0       -7.617860    0.832331    2.726338
    124          1           0       -8.777600    0.312578   -0.003303
    125          1           0       -6.755082    1.375485   -0.516896
    126          1           0       -7.049302    2.507573    0.932976
    127          1           0       -7.896633    2.719777   -0.525433
    128          1           0       -9.241918    3.014740    1.337218
    129          1           0       -9.577445    1.899279    2.455355
    130          1           0      -11.642084    1.921600    1.439481
    131          1           0      -11.006765    0.846363    0.218531
    132          1           0      -10.199086    3.727437   -0.444608
    133          1           0      -11.825884    3.674496   -0.065078
    134          1           0      -11.086126    1.497039   -1.943970
    135          1           0      -11.491210    3.876376   -3.472174
    136          1           0      -10.337804    2.557742   -3.732828
    137          1           0       -9.878104    3.790374   -2.612613
    138          1           0      -13.236015    1.444549   -1.882887
    139          1           0      -13.212678    2.658319   -3.066311
    140          1           0      -13.618921    3.166309   -1.437068
 ---------------------------------------------------------------------

 SCF Done:  E(RCAM-B3LYP) =  -3007.16498233     A.U. after   17 cycles

 Excitation energies and oscillator strengths:

 Excited State   1:      Singlet-A      1.7305 eV  716.45 nm  f=0.3479  <S**2>=0.000
     245 -> 248       -0.17868
     246 -> 247        0.68439
     245 <- 248       -0.10357
 This state for optimization and/or second-order correction.
 Total Energy, E(TD-HF/TD-DFT) =  -3007.10138595
 Copying the excited state density for this state as the 1-particle RhoCI density.

 Excited State   2:      Singlet-A      2.2645 eV  547.52 nm  f=0.0604  <S**2>=0.000
     245 -> 247        0.60701
     246 -> 248        0.34535

 Excited State   3:      Singlet-A      3.3376 eV  371.48 nm  f=0.3743  <S**2>=0.000
     241 -> 247       -0.37818
     245 -> 247       -0.25388
     246 -> 248        0.50739

 Excited State   4:      Singlet-A      3.4270 eV  361.79 nm  f=0.1240  <S**2>=0.000
     241 -> 247       -0.31109
     242 -> 247       -0.14806
     244 -> 247        0.50087
     245 -> 247        0.15578
     246 -> 248       -0.26366

 Excited State   5:      Singlet-A      3.4951 eV  354.74 nm  f=0.1490  <S**2>=0.000
     239 -> 247       -0.15986
     239 -> 249        0.14757
     240 -> 247       -0.17560
     241 -> 247        0.22267
     241 -> 249       -0.10231
     242 -> 247        0.25738
     242 -> 251        0.11801
     244 -> 247        0.42897
     245 -> 247       -0.14859
     246 -> 248        0.17322

 The electronic state is 1-A.
 Alpha  occ. eigenvalues --  -46.90171 -19.25868 -19.25504 -19.20824 -19.19641
 Alpha  occ. eigenvalues --  -19.18741 -19.18038 -14.42551 -14.42073 -14.40372
 Alpha  occ. eigenvalues --  -14.39348 -10.40163 -10.39170 -10.34511 -10.33872
 Alpha  occ. eigenvalues --  -10.32326 -10.32063 -10.32061 -10.31876 -10.31325
 Alpha  occ. eigenvalues --  -10.31310 -10.30771 -10.30556 -10.30298 -10.29522
 Alpha  occ. eigenvalues --  -10.29320 -10.28981 -10.28548 -10.28268 -10.28234
 Alpha  occ. eigenvalues --  -10.27503 -10.27451 -10.27436 -10.27384 -10.27367
 Alpha  occ. eigenvalues --  -10.27250 -10.27201 -10.26982 -10.26956 -10.26911
 Alpha  occ. eigenvalues --  -10.26905 -10.26509 -10.26421 -10.26278 -10.25923
 Alpha  occ. eigenvalues --  -10.25815 -10.25597 -10.25590 -10.25582 -10.25286
 Alpha  occ. eigenvalues --  -10.25254 -10.25186 -10.25035 -10.25001 -10.24948
 Alpha  occ. eigenvalues --  -10.24855 -10.24831 -10.24479 -10.24282 -10.24180
 Alpha  occ. eigenvalues --  -10.24175 -10.24127 -10.23964 -10.23883 -10.23757
 Alpha  occ. eigenvalues --  -10.23582  -3.18505  -1.93400  -1.92965  -1.92792
 Alpha  occ. eigenvalues --   -1.17087  -1.15908  -1.11823  -1.08057  -1.07887
 Alpha  occ. eigenvalues --   -1.07859  -1.04831  -1.03870  -1.03218  -1.02070
 Alpha  occ. eigenvalues --   -0.92436  -0.90798  -0.90117  -0.89424  -0.89047
 Alpha  occ. eigenvalues --   -0.88207  -0.87947  -0.87497  -0.87214  -0.86816
 Alpha  occ. eigenvalues --   -0.85930  -0.85496  -0.84503  -0.83820  -0.83205
 Alpha  occ. eigenvalues --   -0.82382  -0.82274  -0.81470  -0.81007  -0.80558
 Alpha  occ. eigenvalues --   -0.79969  -0.78042  -0.77838  -0.77405  -0.76559
 Alpha  occ. eigenvalues --   -0.75564  -0.75449  -0.75060  -0.74307  -0.73655
 Alpha  occ. eigenvalues --   -0.73382  -0.72387  -0.72118  -0.70965  -0.69155
 Alpha  occ. eigenvalues --   -0.68795  -0.67930  -0.67859  -0.66345  -0.65992
 Alpha  occ. eigenvalues --   -0.65772  -0.65396  -0.65143  -0.64551  -0.63982
 Alpha  occ. eigenvalues --   -0.63602  -0.63181  -0.62977  -0.62080  -0.60309
 Alpha  occ. eigenvalues --   -0.60097  -0.59447  -0.58978  -0.58777  -0.58040
 Alpha  occ. eigenvalues --   -0.57457  -0.57013  -0.56827  -0.56362  -0.55933
 Alpha  occ. eigenvalues --   -0.55456  -0.55261  -0.54907  -0.54405  -0.53848
 Alpha  occ. eigenvalues --   -0.53707  -0.53182  -0.53118  -0.53068  -0.52934
 Alpha  occ. eigenvalues --   -0.52649  -0.52003  -0.51843  -0.51649  -0.51608
 Alpha  occ. eigenvalues --   -0.51370  -0.51150  -0.50883  -0.50736  -0.50359
 Alpha  occ. eigenvalues --   -0.50323  -0.50174  -0.49798  -0.49677  -0.49263
 Alpha  occ. eigenvalues --   -0.49117  -0.48947  -0.48879  -0.48436  -0.48411
 Alpha  occ. eigenvalues --   -0.48266  -0.48103  -0.47936  -0.47816  -0.47655
 Alpha  occ. eigenvalues --   -0.47497  -0.47099  -0.46904  -0.46678  -0.46412
 Alpha  occ. eigenvalues --   -0.46362  -0.46322  -0.46115  -0.45896  -0.45679
 Alpha  occ. eigenvalues --   -0.45481  -0.45389  -0.45337  -0.45240  -0.45142
 Alpha  occ. eigenvalues --   -0.44849  -0.44722  -0.44299  -0.44080  -0.43681
 Alpha  occ. eigenvalues --   -0.43634  -0.43452  -0.43381  -0.43290  -0.43189
 Alpha  occ. eigenvalues --   -0.43087  -0.42808  -0.42700  -0.42474  -0.42384
 Alpha  occ. eigenvalues --   -0.41709  -0.41597  -0.41515  -0.41253  -0.41200
 Alpha  occ. eigenvalues --   -0.41031  -0.40876  -0.40745  -0.40646  -0.40105
 Alpha  occ. eigenvalues --   -0.39891  -0.39828  -0.39346  -0.38914  -0.38444
 Alpha  occ. eigenvalues --   -0.38341  -0.38092  -0.37802  -0.37599  -0.37279
 Alpha  occ. eigenvalues --   -0.37262  -0.36994  -0.36843  -0.36580  -0.36306
 Alpha  occ. eigenvalues --   -0.35516  -0.35273  -0.34824  -0.34721  -0.34616
 Alpha  occ. eigenvalues --   -0.34016  -0.33552  -0.32969  -0.31727  -0.31062
 Alpha  occ. eigenvalues --   -0.30288  -0.30056  -0.29837  -0.29056  -0.24456
 Alpha  occ. eigenvalues --   -0.21068
 Alpha virt. eigenvalues --   -0.08529  -0.02458  -0.00223   0.01355   0.02439
 Alpha virt. eigenvalues --    0.03556   0.04997   0.05422   0.05829   0.06259
 Alpha virt. eigenvalues --    0.07793   0.08075   0.08375   0.08916   0.09314

 Mulliken charges:
               1
     1  Mg   0.825613
     2  C   -0.040899
     3  C   -0.082010
     4  C   -0.079273
     5  C   -0.062264
     6  N   -0.233786
     7  C   -0.048945
     8  C   -0.045967
     9  C   -0.128933
    10  C    0.008940
    11  C    0.087998
    12  C    0.074514
    13  C    0.050204
    14  C    0.179493
    15  O   -0.252887
    16  O   -0.322584
    17  N   -0.414254
    18  C    0.187396
    19  C   -0.126554
    20  C   -0.011292
    21  C    0.157336
    22  C    0.124426
    23  C   -0.029952
    24  O   -0.184714
    25  C    0.028113
    26  N   -0.284314
    27  C    0.010397
    28  C    0.028839
    29  C   -0.026934
    30  C    0.062157
    31  C    0.047830
    32  C    0.004503
    33  C   -0.005228
    34  N   -0.334134
    35  C    0.060766
    36  C   -0.174201
    37  C   -0.012154
    38  C    0.121818
    39  C    0.118797
    40  C    0.050584
    41  O   -0.197663
    42  C   -0.016923
    43  C    0.197847
    44  O   -0.225065
    45  O   -0.314170
    46  C    0.181126
    47  C    0.290886
    48  C   -0.147915
    49  C   -0.170820
    50  C    0.098710
    51  C    0.112218
    52  C   -0.017023
    53  C    0.027414
    54  C   -0.105017
    55  C    0.035716
    56  C    0.068108
    57  C    0.046038
    58  C    0.007026
    59  C   -0.103325
    60  C    0.059284
    61  C    0.035350
    62  C    0.040641
    63  C    0.033449
    64  C   -0.163595
    65  C    0.056639
    66  C    0.066632
    67  H   -0.007542
    68  H   -0.017507
    69  H   -0.023323
    70  H    0.009299
    71  H    0.018658
    72  H    0.027368
    73  H    0.035637
    74  H    0.020318
    75  H    0.030357
    76  H    0.030397
    77  H    0.048061
    78  H    0.027676
    79  H    0.031248
    80  H    0.003898
    81  H    0.047420
    82  H    0.032393
    83  H    0.050189
    84  H    0.020467
    85  H    0.023132
    86  H    0.020376
    87  H    0.013774
    88  H    0.020300
    89  H    0.016499
    90  H    0.009922
    91  H   -0.006869
    92  H    0.006700
    93  H    0.022335
    94  H    0.013026
    95  H    0.016304
    96  H    0.013570
    97  H    0.042491
    98  H    0.061194
    99  H    0.039451
   100  H    0.038337
   101  H    0.054277
   102  H    0.018397
   103  H    0.019500
   104  H   -0.003479
   105  H    0.031789
   106  H    0.016894
   107  H    0.009240
   108  H   -0.011366
   109  H    0.008879
   110  H   -0.001526
   111  H    0.007840
   112  H   -0.020091
   113  H    0.007000
   114  H   -0.000498
   115  H    0.003882
   116  H    0.008535
   117  H   -0.002735
   118  H   -0.007525
   119  H    0.007933
   120  H   -0.012437
   121  H   -0.016638
   122  H   -0.014580
   123  H   -0.022475
   124  H   -0.009475
   125  H    0.006369
   126  H   -0.002709
   127  H   -0.002280
   128  H   -0.018722
   129  H   -0.017932
   130  H   -0.008308
   131  H    0.003898
   132  H   -0.004556
   133  H   -0.014408
   134  H   -0.002590
   135  H    0.003540
   136  H    0.004604
   137  H    0.004140
   138  H    0.003630
   139  H   -0.009587
   140  H    0.024001
 Sum of Mulliken charges =  -0.00000

 Dipole moment (field-independent basis, Debye):
    X=             -0.7641    Y=              3.6708    Z=              2.2217  Tot=              4.3583
 Quadrupole moment (field-independent basis, Debye-Ang):
   XX=           -398.0979   YY=           -428.7313   ZZ=           -390.4944
   XY=             31.6435   XZ=            -11.1276   YZ=             27.9939

 Normal termination of Gaussian 16 at Thu Apr 28 06:56:27 2022.
