 Gaussian 16, Revision A.03,
 Gaussian 16:  ES64L-G16RevA.03 25-Dec-2016

 ---------------------------------
 #p PBE1PBE/Def2SVP td=(nstates=5)
 ---------------------------------

 -----------------------------------------------------
 step_1501_chromophore_2 TDDFT with PBE1PBE functional
 -----------------------------------------------------
 Symbolic Z-matrix:
 Charge =  0 Multiplicity = 1

                         Standard orientation:
 ---------------------------------------------------------------------
 Center     Atomic      Atomic             Coordinates (Angstroms)
 Number     Number       Type             X           Y           Z
 ---------------------------------------------------------------------
      1         12           0        4.361492    1.277666   -0.566596
      2          6           0        4.483489   -2.319498   -0.732463
      3          6           0        1.672729    1.170332   -2.718148
      4          6           0        3.549023    4.329283    0.305136
      5          6           0        6.400376    1.014903    2.452279
      6          7           0        3.211699   -0.431320   -1.564281
      7          6           0        3.466410   -1.776243   -1.563252
      8          6           0        2.552285   -2.438705   -2.537102
      9          6           0        1.892188   -1.250176   -3.301454
     10          6           0        2.204897   -0.086451   -2.372281
     11          6           0        2.351033   -0.937414   -4.784309
     12          6           0        1.501128   -3.389464   -1.807672
     13          6           0        0.412019   -2.642650   -0.953624
     14          6           0       -0.995156   -2.746583   -1.444096
     15          8           0       -1.404173   -2.310658   -2.539446
     16          8           0       -1.766493   -3.461743   -0.514698
     17          7           0        3.045066    2.641858   -1.363880
     18          6           0        2.087264    2.408272   -2.332205
     19          6           0        1.576364    3.776905   -2.712962
     20          6           0        2.233234    4.741174   -1.894408
     21          6           0        2.992982    3.915628   -0.911457
     22          6           0        0.430652    3.993576   -3.706322
     23          6           0        2.154609    6.173624   -2.069789
     24          8           0        1.432165    6.663421   -2.890001
     25          6           0        2.712293    7.078988   -1.026644
     26          7           0        4.998839    2.542149    1.136267
     27          6           0        4.302129    3.713670    1.337315
     28          6           0        4.592110    4.337111    2.711029
     29          6           0        5.723794    3.409385    3.248107
     30          6           0        5.770142    2.224405    2.199559
     31          6           0        4.843930    5.927580    2.732100
     32          6           0        5.465716    2.912264    4.738797
     33          6           0        6.447618    3.499020    5.783322
     34          7           0        5.398901   -0.228809    0.508058
     35          6           0        6.247123   -0.185598    1.615450
     36          6           0        6.796414   -1.528040    1.898815
     37          6           0        6.119989   -2.346121    0.966680
     38          6           0        5.293113   -1.546714    0.199798
     39          6           0        7.699900   -1.963991    2.991511
     40          6           0        6.066874   -3.702807    0.534163
     41          8           0        6.772957   -4.628998    0.964220
     42          6           0        4.863478   -3.772392   -0.444246
     43          6           0        5.177262   -4.652916   -1.605974
     44          8           0        4.382127   -5.470886   -2.052364
     45          8           0        6.440696   -4.446129   -2.019567
     46          6           0        6.933830   -5.388968   -3.023126
     47          6           0       -3.183486   -3.469437   -0.765749
     48          6           0       -3.830305   -3.698085    0.616170
     49          6           0       -3.751239   -2.994875    1.767997
     50          6           0       -3.175455   -1.609574    1.793828
     51          6           0       -4.363638   -3.421975    3.108276
     52          6           0       -5.829919   -3.150823    3.319094
     53          6           0       -6.612784   -3.493423    2.059952
     54          6           0       -8.148782   -3.422709    2.333832
     55          6           0       -8.908063   -4.751549    1.897013
     56          6           0       -8.756552   -2.169664    1.573409
     57          6           0       -8.726979   -0.866413    2.445036
     58          6           0       -7.833293    0.196319    1.867254
     59          6           0       -8.494514    1.045822    0.752146
     60          6           0       -7.457039    1.939994    0.096200
     61          6           0       -9.541276    1.967779    1.367570
     62          6           0      -10.896871    1.841759    0.648051
     63          6           0      -11.032084    3.025235   -0.435359
     64          6           0      -11.468508    2.516164   -1.882340
     65          6           0      -10.743521    3.246173   -2.991070
     66          6           0      -12.980448    2.496728   -2.013314
     67          1           0        0.911808    1.063526   -3.493479
     68          1           0        3.073198    5.248961    0.652221
     69          1           0        7.048632    0.851828    3.315997
     70          1           0        3.106453   -3.009201   -3.283151
     71          1           0        0.855257   -1.574847   -3.388404
     72          1           0        2.734092    0.081902   -4.832545
     73          1           0        1.371711   -1.042785   -5.251257
     74          1           0        3.141289   -1.646031   -5.032728
     75          1           0        2.068741   -4.040287   -1.143023
     76          1           0        0.999215   -3.897953   -2.631313
     77          1           0        0.716960   -1.597618   -0.903982
     78          1           0        0.392656   -3.075905    0.046451
     79          1           0       -0.477138    4.257104   -3.163223
     80          1           0        0.228054    3.032299   -4.177153
     81          1           0        0.520494    4.825545   -4.405020
     82          1           0        3.739122    6.916032   -0.698240
     83          1           0        2.023013    7.029122   -0.183915
     84          1           0        2.692485    8.100255   -1.407006
     85          1           0        3.714201    4.160458    3.332411
     86          1           0        6.725519    3.838291    3.231533
     87          1           0        4.031910    6.574686    3.065335
     88          1           0        5.102690    6.326416    1.751278
     89          1           0        5.644035    6.191651    3.423782
     90          1           0        5.419316    1.839790    4.931381
     91          1           0        4.454537    3.142384    5.075603
     92          1           0        7.254564    4.009819    5.258441
     93          1           0        6.813421    2.717532    6.450065
     94          1           0        5.975819    4.286609    6.372009
     95          1           0        7.329960   -1.769986    3.998659
     96          1           0        8.587346   -1.332821    2.935347
     97          1           0        7.888961   -3.031682    2.877784
     98          1           0        4.068042   -4.173007    0.183207
     99          1           0        7.919636   -4.932474   -3.118830
    100          1           0        6.377368   -5.287257   -3.954634
    101          1           0        7.007457   -6.420830   -2.679578
    102          1           0       -3.595864   -4.184913   -1.477645
    103          1           0       -3.587945   -2.531362   -1.146387
    104          1           0       -4.232243   -4.709320    0.669630
    105          1           0       -2.256261   -1.673715    2.376494
    106          1           0       -3.960813   -1.020433    2.269216
    107          1           0       -3.001659   -1.236604    0.784685
    108          1           0       -3.973520   -2.852127    3.951562
    109          1           0       -4.208316   -4.479760    3.318377
    110          1           0       -6.019471   -2.090614    3.485866
    111          1           0       -6.239710   -3.735522    4.142713
    112          1           0       -6.288970   -4.456126    1.664046
    113          1           0       -6.316125   -2.814813    1.260517
    114          1           0       -8.272239   -3.334350    3.413314
    115          1           0       -9.586184   -5.034303    2.702908
    116          1           0       -8.328305   -5.621075    1.588562
    117          1           0       -9.583225   -4.596179    1.055938
    118          1           0       -9.809140   -2.383571    1.382414
    119          1           0       -8.245485   -1.992373    0.626931
    120          1           0       -8.424480   -1.009084    3.482860
    121          1           0       -9.700876   -0.413701    2.631246
    122          1           0       -6.876042   -0.146132    1.473725
    123          1           0       -7.617860    0.832331    2.726338
    124          1           0       -8.777600    0.312578   -0.003303
    125          1           0       -6.755082    1.375485   -0.516896
    126          1           0       -7.049302    2.507573    0.932976
    127          1           0       -7.896633    2.719777   -0.525433
    128          1           0       -9.241918    3.014740    1.337218
    129          1           0       -9.577445    1.899279    2.455355
    130          1           0      -11.642084    1.921600    1.439481
    131          1           0      -11.006765    0.846363    0.218531
    132          1           0      -10.199086    3.727437   -0.444608
    133          1           0      -11.825884    3.674496   -0.065078
    134          1           0      -11.086126    1.497039   -1.943970
    135          1           0      -11.491210    3.876376   -3.472174
    136          1           0      -10.337804    2.557742   -3.732828
    137          1           0       -9.878104    3.790374   -2.612613
    138          1           0      -13.236015    1.444549   -1.882887
    139          1           0      -13.212678    2.658319   -3.066311
    140          1           0      -13.618921    3.166309   -1.437068
 ---------------------------------------------------------------------

 SCF Done:  E(RPBE1PBE) =  -3005.35359330     A.U. after   15 cycles

 Excitation energies and oscillator strengths:

 Excited State   1:      Singlet-A      1.8332 eV  676.31 nm  f=0.3376  <S**2>=0.000
     245 -> 248        0.17698
     246 -> 247        0.69089
     246 <- 247       -0.10311
 This state for optimization and/or second-order correction.
 Total Energy, E(TD-HF/TD-DFT) =  -3005.28622290
 Copying the excited state density for this state as the 1-particle RhoCI density.

 Excited State   2:      Singlet-A      2.2489 eV  551.30 nm  f=0.0674  <S**2>=0.000
     245 -> 247        0.62697
     246 -> 248       -0.31218

 Excited State   3:      Singlet-A      2.9561 eV  419.41 nm  f=0.0037  <S**2>=0.000
     241 -> 247        0.11554
     242 -> 247        0.39229
     242 -> 249       -0.10562
     244 -> 247        0.53872

 Excited State   4:      Singlet-A      2.9871 eV  415.07 nm  f=0.0016  <S**2>=0.000
     240 -> 247        0.13149
     241 -> 247        0.51479
     242 -> 247       -0.37724
     244 -> 247        0.16327
     246 -> 248       -0.10074

 Excited State   5:      Singlet-A      3.0671 eV  404.24 nm  f=0.0112  <S**2>=0.000
     240 -> 247        0.12101
     241 -> 247        0.32951
     242 -> 247        0.39832
     244 -> 247       -0.39332
     246 -> 248       -0.20863

 The electronic state is 1-A.
 Alpha  occ. eigenvalues --  -46.93542 -19.26527 -19.26218 -19.21056 -19.19975
 Alpha  occ. eigenvalues --  -19.18643 -19.18580 -14.41918 -14.41672 -14.39844
 Alpha  occ. eigenvalues --  -14.39222 -10.37152 -10.36255 -10.31308 -10.31278
 Alpha  occ. eigenvalues --  -10.29765 -10.29437 -10.29275 -10.29142 -10.28738
 Alpha  occ. eigenvalues --  -10.28728 -10.28551 -10.28550 -10.27763 -10.27471
 Alpha  occ. eigenvalues --  -10.27085 -10.26809 -10.26486 -10.26321 -10.25993
 Alpha  occ. eigenvalues --  -10.25248 -10.25212 -10.25157 -10.24927 -10.24864
 Alpha  occ. eigenvalues --  -10.24857 -10.24851 -10.24684 -10.24671 -10.24660
 Alpha  occ. eigenvalues --  -10.24571 -10.24249 -10.23704 -10.23654 -10.23540
 Alpha  occ. eigenvalues --  -10.23125 -10.23082 -10.22952 -10.22933 -10.22927
 Alpha  occ. eigenvalues --  -10.22913 -10.22847 -10.22598 -10.22514 -10.22503
 Alpha  occ. eigenvalues --  -10.22481 -10.22410 -10.21990 -10.21743 -10.21689
 Alpha  occ. eigenvalues --  -10.21671 -10.21647 -10.21528 -10.21308 -10.21305
 Alpha  occ. eigenvalues --  -10.21226  -3.15460  -1.88293  -1.87838  -1.87670
 Alpha  occ. eigenvalues --   -1.11946  -1.10665  -1.06281  -1.03012  -1.02842
 Alpha  occ. eigenvalues --   -1.02655  -0.99324  -0.98334  -0.97850  -0.96995
 Alpha  occ. eigenvalues --   -0.86945  -0.84883  -0.84178  -0.83583  -0.83256
 Alpha  occ. eigenvalues --   -0.82488  -0.82019  -0.81797  -0.81328  -0.80769
 Alpha  occ. eigenvalues --   -0.80506  -0.79756  -0.78719  -0.77999  -0.77563
 Alpha  occ. eigenvalues --   -0.76490  -0.76409  -0.75695  -0.75387  -0.74782
 Alpha  occ. eigenvalues --   -0.74111  -0.72354  -0.71985  -0.71694  -0.70910
 Alpha  occ. eigenvalues --   -0.69794  -0.69630  -0.69187  -0.68409  -0.67822
 Alpha  occ. eigenvalues --   -0.67649  -0.66941  -0.66521  -0.65225  -0.63540
 Alpha  occ. eigenvalues --   -0.63127  -0.62355  -0.62097  -0.60519  -0.60465
 Alpha  occ. eigenvalues --   -0.60171  -0.59901  -0.59459  -0.59148  -0.58136
 Alpha  occ. eigenvalues --   -0.58054  -0.57599  -0.57303  -0.56247  -0.54746
 Alpha  occ. eigenvalues --   -0.54641  -0.53946  -0.53481  -0.53239  -0.52700
 Alpha  occ. eigenvalues --   -0.51955  -0.51471  -0.51188  -0.50857  -0.50463
 Alpha  occ. eigenvalues --   -0.50005  -0.49749  -0.49507  -0.48787  -0.48383
 Alpha  occ. eigenvalues --   -0.48186  -0.47810  -0.47593  -0.47399  -0.47361
 Alpha  occ. eigenvalues --   -0.47031  -0.46569  -0.46353  -0.46301  -0.46093
 Alpha  occ. eigenvalues --   -0.45986  -0.45650  -0.45528  -0.45235  -0.44957
 Alpha  occ. eigenvalues --   -0.44819  -0.44561  -0.44268  -0.44166  -0.43877
 Alpha  occ. eigenvalues --   -0.43776  -0.43626  -0.43424  -0.43145  -0.43071
 Alpha  occ. eigenvalues --   -0.42893  -0.42690  -0.42534  -0.42447  -0.42324
 Alpha  occ. eigenvalues --   -0.42089  -0.41793  -0.41548  -0.41297  -0.41165
 Alpha  occ. eigenvalues --   -0.40910  -0.40830  -0.40723  -0.40508  -0.40445
 Alpha  occ. eigenvalues --   -0.40337  -0.40094  -0.39977  -0.39949  -0.39834
 Alpha  occ. eigenvalues --   -0.39566  -0.39470  -0.39125  -0.38751  -0.38482
 Alpha  occ. eigenvalues --   -0.38390  -0.38270  -0.38182  -0.38055  -0.37951
 Alpha  occ. eigenvalues --   -0.37843  -0.37501  -0.37368  -0.37264  -0.37132
 Alpha  occ. eigenvalues --   -0.36597  -0.36496  -0.36242  -0.36171  -0.36103
 Alpha  occ. eigenvalues --   -0.35857  -0.35804  -0.35461  -0.35334  -0.35107
 Alpha  occ. eigenvalues --   -0.34797  -0.34561  -0.34266  -0.33628  -0.33291
 Alpha  occ. eigenvalues --   -0.33169  -0.33117  -0.32637  -0.32447  -0.32275
 Alpha  occ. eigenvalues --   -0.32179  -0.31863  -0.31782  -0.31354  -0.31324
 Alpha  occ. eigenvalues --   -0.30419  -0.30163  -0.29800  -0.29593  -0.29475
 Alpha  occ. eigenvalues --   -0.29088  -0.28613  -0.28443  -0.26788  -0.26261
 Alpha  occ. eigenvalues --   -0.25368  -0.25202  -0.25130  -0.24964  -0.21291
 Alpha  occ. eigenvalues --   -0.18691
 Alpha virt. eigenvalues --   -0.11111  -0.05903  -0.04288  -0.02087  -0.01439
 Alpha virt. eigenvalues --   -0.00957   0.00573   0.00651   0.01288   0.03184
 Alpha virt. eigenvalues --    0.03506   0.04433   0.04887   0.05440   0.06102

 Mulliken charges:
               1
     1  Mg   0.963607
     2  C   -0.044012
     3  C   -0.083947
     4  C   -0.082007
     5  C   -0.057131
     6  N   -0.339097
     7  C    0.031754
     8  C   -0.121771
     9  C   -0.194054
    10  C    0.039648
    11  C    0.030329
    12  C    0.020798
    13  C   -0.035422
    14  C    0.247469
    15  O   -0.285446
    16  O   -0.351643
    17  N   -0.522562
    18  C    0.208531
    19  C   -0.149039
    20  C   -0.062206
    21  C    0.178661
    22  C    0.068751
    23  C    0.023227
    24  O   -0.222196
    25  C   -0.051974
    26  N   -0.383011
    27  C    0.051412
    28  C   -0.047965
    29  C   -0.105012
    30  C    0.108181
    31  C   -0.013374
    32  C   -0.050956
    33  C   -0.076840
    34  N   -0.458685
    35  C    0.089525
    36  C   -0.182284
    37  C   -0.068874
    38  C    0.174411
    39  C    0.060210
    40  C    0.153173
    41  O   -0.241860
    42  C   -0.136113
    43  C    0.293257
    44  O   -0.263037
    45  O   -0.346266
    46  C    0.125544
    47  C    0.247690
    48  C   -0.163955
    49  C   -0.212236
    50  C    0.031870
    51  C    0.047852
    52  C   -0.085780
    53  C   -0.017620
    54  C   -0.193423
    55  C   -0.021281
    56  C    0.010162
    57  C   -0.008096
    58  C   -0.055172
    59  C   -0.187013
    60  C   -0.004224
    61  C   -0.018381
    62  C   -0.021460
    63  C   -0.016462
    64  C   -0.255737
    65  C   -0.004940
    66  C    0.005121
    67  H    0.022756
    68  H    0.017543
    69  H    0.009363
    70  H    0.047356
    71  H    0.058685
    72  H    0.057161
    73  H    0.061487
    74  H    0.047222
    75  H    0.066214
    76  H    0.063200
    77  H    0.087972
    78  H    0.060273
    79  H    0.057528
    80  H    0.030901
    81  H    0.071908
    82  H    0.059018
    83  H    0.076235
    84  H    0.048086
    85  H    0.060556
    86  H    0.057188
    87  H    0.040876
    88  H    0.048514
    89  H    0.043831
    90  H    0.040516
    91  H    0.026133
    92  H    0.034074
    93  H    0.049173
    94  H    0.041413
    95  H    0.046202
    96  H    0.043626
    97  H    0.071310
    98  H    0.098427
    99  H    0.061180
   100  H    0.060322
   101  H    0.075461
   102  H    0.044730
   103  H    0.045903
   104  H    0.026550
   105  H    0.060038
   106  H    0.046179
   107  H    0.038635
   108  H    0.022344
   109  H    0.041623
   110  H    0.034526
   111  H    0.040562
   112  H    0.013358
   113  H    0.041158
   114  H    0.035886
   115  H    0.031633
   116  H    0.034732
   117  H    0.024179
   118  H    0.025984
   119  H    0.039292
   120  H    0.018088
   121  H    0.016838
   122  H    0.020798
   123  H    0.010816
   124  H    0.027894
   125  H    0.033945
   126  H    0.025749
   127  H    0.029013
   128  H    0.014092
   129  H    0.012522
   130  H    0.024586
   131  H    0.034455
   132  H    0.023576
   133  H    0.019163
   134  H    0.036142
   135  H    0.030974
   136  H    0.032420
   137  H    0.031280
   138  H    0.031774
   139  H    0.018863
   140  H    0.049366
 Sum of Mulliken charges =  -0.00000

 Dipole moment (field-independent basis, Debye):
    X=             -0.3000    Y=              3.1586    Z=              2.7446  Tot=              4.1951
 Quadrupole moment (field-independent basis, Debye-Ang):
   XX=           -390.5751   YY=           -427.1162   ZZ=           -386.4835
   XY=             30.2070   XZ=             -8.3609   YZ=             29.5280

 Normal termination of Gaussian 16 at Thu Apr 28 07:21:31 2022.
