 Gaussian 16, Revision A.03,
 Gaussian 16:  ES64L-G16RevA.03 25-Dec-2016

 --------------------------------
 #p wB97XD/Def2SVP td=(nstates=5)
 --------------------------------

 ----------------------------------------------------
 step_1501_chromophore_2 TDDFT with wB97XD functional
 ----------------------------------------------------
 Symbolic Z-matrix:
 Charge =  0 Multiplicity = 1

                         Standard orientation:
 ---------------------------------------------------------------------
 Center     Atomic      Atomic             Coordinates (Angstroms)
 Number     Number       Type             X           Y           Z
 ---------------------------------------------------------------------
      1         12           0        4.361492    1.277666   -0.566596
      2          6           0        4.483489   -2.319498   -0.732463
      3          6           0        1.672729    1.170332   -2.718148
      4          6           0        3.549023    4.329283    0.305136
      5          6           0        6.400376    1.014903    2.452279
      6          7           0        3.211699   -0.431320   -1.564281
      7          6           0        3.466410   -1.776243   -1.563252
      8          6           0        2.552285   -2.438705   -2.537102
      9          6           0        1.892188   -1.250176   -3.301454
     10          6           0        2.204897   -0.086451   -2.372281
     11          6           0        2.351033   -0.937414   -4.784309
     12          6           0        1.501128   -3.389464   -1.807672
     13          6           0        0.412019   -2.642650   -0.953624
     14          6           0       -0.995156   -2.746583   -1.444096
     15          8           0       -1.404173   -2.310658   -2.539446
     16          8           0       -1.766493   -3.461743   -0.514698
     17          7           0        3.045066    2.641858   -1.363880
     18          6           0        2.087264    2.408272   -2.332205
     19          6           0        1.576364    3.776905   -2.712962
     20          6           0        2.233234    4.741174   -1.894408
     21          6           0        2.992982    3.915628   -0.911457
     22          6           0        0.430652    3.993576   -3.706322
     23          6           0        2.154609    6.173624   -2.069789
     24          8           0        1.432165    6.663421   -2.890001
     25          6           0        2.712293    7.078988   -1.026644
     26          7           0        4.998839    2.542149    1.136267
     27          6           0        4.302129    3.713670    1.337315
     28          6           0        4.592110    4.337111    2.711029
     29          6           0        5.723794    3.409385    3.248107
     30          6           0        5.770142    2.224405    2.199559
     31          6           0        4.843930    5.927580    2.732100
     32          6           0        5.465716    2.912264    4.738797
     33          6           0        6.447618    3.499020    5.783322
     34          7           0        5.398901   -0.228809    0.508058
     35          6           0        6.247123   -0.185598    1.615450
     36          6           0        6.796414   -1.528040    1.898815
     37          6           0        6.119989   -2.346121    0.966680
     38          6           0        5.293113   -1.546714    0.199798
     39          6           0        7.699900   -1.963991    2.991511
     40          6           0        6.066874   -3.702807    0.534163
     41          8           0        6.772957   -4.628998    0.964220
     42          6           0        4.863478   -3.772392   -0.444246
     43          6           0        5.177262   -4.652916   -1.605974
     44          8           0        4.382127   -5.470886   -2.052364
     45          8           0        6.440696   -4.446129   -2.019567
     46          6           0        6.933830   -5.388968   -3.023126
     47          6           0       -3.183486   -3.469437   -0.765749
     48          6           0       -3.830305   -3.698085    0.616170
     49          6           0       -3.751239   -2.994875    1.767997
     50          6           0       -3.175455   -1.609574    1.793828
     51          6           0       -4.363638   -3.421975    3.108276
     52          6           0       -5.829919   -3.150823    3.319094
     53          6           0       -6.612784   -3.493423    2.059952
     54          6           0       -8.148782   -3.422709    2.333832
     55          6           0       -8.908063   -4.751549    1.897013
     56          6           0       -8.756552   -2.169664    1.573409
     57          6           0       -8.726979   -0.866413    2.445036
     58          6           0       -7.833293    0.196319    1.867254
     59          6           0       -8.494514    1.045822    0.752146
     60          6           0       -7.457039    1.939994    0.096200
     61          6           0       -9.541276    1.967779    1.367570
     62          6           0      -10.896871    1.841759    0.648051
     63          6           0      -11.032084    3.025235   -0.435359
     64          6           0      -11.468508    2.516164   -1.882340
     65          6           0      -10.743521    3.246173   -2.991070
     66          6           0      -12.980448    2.496728   -2.013314
     67          1           0        0.911808    1.063526   -3.493479
     68          1           0        3.073198    5.248961    0.652221
     69          1           0        7.048632    0.851828    3.315997
     70          1           0        3.106453   -3.009201   -3.283151
     71          1           0        0.855257   -1.574847   -3.388404
     72          1           0        2.734092    0.081902   -4.832545
     73          1           0        1.371711   -1.042785   -5.251257
     74          1           0        3.141289   -1.646031   -5.032728
     75          1           0        2.068741   -4.040287   -1.143023
     76          1           0        0.999215   -3.897953   -2.631313
     77          1           0        0.716960   -1.597618   -0.903982
     78          1           0        0.392656   -3.075905    0.046451
     79          1           0       -0.477138    4.257104   -3.163223
     80          1           0        0.228054    3.032299   -4.177153
     81          1           0        0.520494    4.825545   -4.405020
     82          1           0        3.739122    6.916032   -0.698240
     83          1           0        2.023013    7.029122   -0.183915
     84          1           0        2.692485    8.100255   -1.407006
     85          1           0        3.714201    4.160458    3.332411
     86          1           0        6.725519    3.838291    3.231533
     87          1           0        4.031910    6.574686    3.065335
     88          1           0        5.102690    6.326416    1.751278
     89          1           0        5.644035    6.191651    3.423782
     90          1           0        5.419316    1.839790    4.931381
     91          1           0        4.454537    3.142384    5.075603
     92          1           0        7.254564    4.009819    5.258441
     93          1           0        6.813421    2.717532    6.450065
     94          1           0        5.975819    4.286609    6.372009
     95          1           0        7.329960   -1.769986    3.998659
     96          1           0        8.587346   -1.332821    2.935347
     97          1           0        7.888961   -3.031682    2.877784
     98          1           0        4.068042   -4.173007    0.183207
     99          1           0        7.919636   -4.932474   -3.118830
    100          1           0        6.377368   -5.287257   -3.954634
    101          1           0        7.007457   -6.420830   -2.679578
    102          1           0       -3.595864   -4.184913   -1.477645
    103          1           0       -3.587945   -2.531362   -1.146387
    104          1           0       -4.232243   -4.709320    0.669630
    105          1           0       -2.256261   -1.673715    2.376494
    106          1           0       -3.960813   -1.020433    2.269216
    107          1           0       -3.001659   -1.236604    0.784685
    108          1           0       -3.973520   -2.852127    3.951562
    109          1           0       -4.208316   -4.479760    3.318377
    110          1           0       -6.019471   -2.090614    3.485866
    111          1           0       -6.239710   -3.735522    4.142713
    112          1           0       -6.288970   -4.456126    1.664046
    113          1           0       -6.316125   -2.814813    1.260517
    114          1           0       -8.272239   -3.334350    3.413314
    115          1           0       -9.586184   -5.034303    2.702908
    116          1           0       -8.328305   -5.621075    1.588562
    117          1           0       -9.583225   -4.596179    1.055938
    118          1           0       -9.809140   -2.383571    1.382414
    119          1           0       -8.245485   -1.992373    0.626931
    120          1           0       -8.424480   -1.009084    3.482860
    121          1           0       -9.700876   -0.413701    2.631246
    122          1           0       -6.876042   -0.146132    1.473725
    123          1           0       -7.617860    0.832331    2.726338
    124          1           0       -8.777600    0.312578   -0.003303
    125          1           0       -6.755082    1.375485   -0.516896
    126          1           0       -7.049302    2.507573    0.932976
    127          1           0       -7.896633    2.719777   -0.525433
    128          1           0       -9.241918    3.014740    1.337218
    129          1           0       -9.577445    1.899279    2.455355
    130          1           0      -11.642084    1.921600    1.439481
    131          1           0      -11.006765    0.846363    0.218531
    132          1           0      -10.199086    3.727437   -0.444608
    133          1           0      -11.825884    3.674496   -0.065078
    134          1           0      -11.086126    1.497039   -1.943970
    135          1           0      -11.491210    3.876376   -3.472174
    136          1           0      -10.337804    2.557742   -3.732828
    137          1           0       -9.878104    3.790374   -2.612613
    138          1           0      -13.236015    1.444549   -1.882887
    139          1           0      -13.212678    2.658319   -3.066311
    140          1           0      -13.618921    3.166309   -1.437068
 ---------------------------------------------------------------------

 SCF Done:  E(RwB97XD) =  -3007.86808383     A.U. after   17 cycles

 Excitation energies and oscillator strengths:

 Excited State   1:      Singlet-A      1.7007 eV  729.01 nm  f=0.3481  <S**2>=0.000
     245 -> 248        0.18116
     246 -> 247        0.68227
     245 <- 248        0.11063
 This state for optimization and/or second-order correction.
 Total Energy, E(TD-HF/TD-DFT) =  -3007.80558390
 Copying the excited state density for this state as the 1-particle RhoCI density.

 Excited State   2:      Singlet-A      2.2172 eV  559.18 nm  f=0.0589  <S**2>=0.000
     245 -> 247        0.60498
     246 -> 248       -0.34557

 Excited State   3:      Singlet-A      3.3433 eV  370.85 nm  f=0.2975  <S**2>=0.000
     241 -> 247        0.44951
     241 -> 249        0.11786
     245 -> 247        0.21746
     246 -> 248        0.45747

 Excited State   4:      Singlet-A      3.4573 eV  358.62 nm  f=0.2881  <S**2>=0.000
     239 -> 247        0.10935
     239 -> 249        0.11244
     240 -> 249        0.10084
     241 -> 247       -0.33711
     241 -> 249       -0.10020
     242 -> 247       -0.11426
     244 -> 247        0.34373
     245 -> 247        0.22583
     246 -> 248        0.36637

 Excited State   5:      Singlet-A      3.5346 eV  350.78 nm  f=0.0778  <S**2>=0.000
     239 -> 247       -0.18021
     239 -> 249       -0.15942
     240 -> 247       -0.21920
     244 -> 247        0.53181
     244 -> 249       -0.10561
     246 -> 248       -0.10457

 The electronic state is 1-A.
 Alpha  occ. eigenvalues --  -46.96507 -19.31087 -19.30692 -19.25763 -19.24571
 Alpha  occ. eigenvalues --  -19.23811 -19.23028 -14.47157 -14.46640 -14.44997
 Alpha  occ. eigenvalues --  -14.43892 -10.43973 -10.42983 -10.38492 -10.37825
 Alpha  occ. eigenvalues --  -10.36429 -10.36212 -10.35940 -10.35573 -10.35481
 Alpha  occ. eigenvalues --  -10.35410 -10.34752 -10.34588 -10.34492 -10.33459
 Alpha  occ. eigenvalues --  -10.33384 -10.33125 -10.32584 -10.32261 -10.32142
 Alpha  occ. eigenvalues --  -10.31597 -10.31546 -10.31438 -10.31435 -10.31331
 Alpha  occ. eigenvalues --  -10.31177 -10.31152 -10.30994 -10.30987 -10.30976
 Alpha  occ. eigenvalues --  -10.30929 -10.30435 -10.30428 -10.30195 -10.29940
 Alpha  occ. eigenvalues --  -10.29727 -10.29502 -10.29391 -10.29380 -10.29220
 Alpha  occ. eigenvalues --  -10.29188 -10.28984 -10.28979 -10.28903 -10.28867
 Alpha  occ. eigenvalues --  -10.28814 -10.28785 -10.28394 -10.28117 -10.28111
 Alpha  occ. eigenvalues --  -10.28039 -10.27981 -10.27790 -10.27693 -10.27682
 Alpha  occ. eigenvalues --  -10.27510  -3.22317  -1.95892  -1.95437  -1.95269
 Alpha  occ. eigenvalues --   -1.19240  -1.18069  -1.14092  -1.10219  -1.10056
 Alpha  occ. eigenvalues --   -1.10038  -1.06856  -1.05939  -1.05225  -1.04042
 Alpha  occ. eigenvalues --   -0.94371  -0.92565  -0.91866  -0.91413  -0.90904
 Alpha  occ. eigenvalues --   -0.90044  -0.89709  -0.89435  -0.89015  -0.88857
 Alpha  occ. eigenvalues --   -0.87810  -0.87364  -0.86387  -0.85682  -0.85071
 Alpha  occ. eigenvalues --   -0.84268  -0.84147  -0.83372  -0.82959  -0.82418
 Alpha  occ. eigenvalues --   -0.81790  -0.80009  -0.79763  -0.79305  -0.78459
 Alpha  occ. eigenvalues --   -0.77424  -0.77348  -0.76878  -0.76119  -0.75494
 Alpha  occ. eigenvalues --   -0.75277  -0.74341  -0.74107  -0.72891  -0.71088
 Alpha  occ. eigenvalues --   -0.70802  -0.69865  -0.69770  -0.68184  -0.67894
 Alpha  occ. eigenvalues --   -0.67693  -0.67389  -0.67062  -0.66539  -0.65803
 Alpha  occ. eigenvalues --   -0.65550  -0.64991  -0.64921  -0.63906  -0.62359
 Alpha  occ. eigenvalues --   -0.62042  -0.61429  -0.60914  -0.60713  -0.59964
 Alpha  occ. eigenvalues --   -0.59409  -0.58950  -0.58736  -0.58298  -0.57847
 Alpha  occ. eigenvalues --   -0.57363  -0.57188  -0.56829  -0.56275  -0.55720
 Alpha  occ. eigenvalues --   -0.55627  -0.55151  -0.55034  -0.55008  -0.54855
 Alpha  occ. eigenvalues --   -0.54620  -0.53921  -0.53746  -0.53538  -0.53467
 Alpha  occ. eigenvalues --   -0.53269  -0.53018  -0.52790  -0.52609  -0.52307
 Alpha  occ. eigenvalues --   -0.52217  -0.52130  -0.51786  -0.51525  -0.51183
 Alpha  occ. eigenvalues --   -0.50998  -0.50848  -0.50808  -0.50367  -0.50305
 Alpha  occ. eigenvalues --   -0.50172  -0.50035  -0.49833  -0.49747  -0.49567
 Alpha  occ. eigenvalues --   -0.49378  -0.49011  -0.48792  -0.48607  -0.48412
 Alpha  occ. eigenvalues --   -0.48225  -0.48213  -0.48000  -0.47734  -0.47606
 Alpha  occ. eigenvalues --   -0.47356  -0.47243  -0.47201  -0.47110  -0.47038
 Alpha  occ. eigenvalues --   -0.46703  -0.46648  -0.46256  -0.46028  -0.45614
 Alpha  occ. eigenvalues --   -0.45540  -0.45331  -0.45303  -0.45247  -0.45102
 Alpha  occ. eigenvalues --   -0.44961  -0.44734  -0.44641  -0.44327  -0.44276
 Alpha  occ. eigenvalues --   -0.43636  -0.43521  -0.43360  -0.43176  -0.43122
 Alpha  occ. eigenvalues --   -0.42906  -0.42837  -0.42593  -0.42478  -0.41991
 Alpha  occ. eigenvalues --   -0.41799  -0.41661  -0.41230  -0.40745  -0.40276
 Alpha  occ. eigenvalues --   -0.40255  -0.40038  -0.39648  -0.39449  -0.39307
 Alpha  occ. eigenvalues --   -0.39241  -0.38938  -0.38846  -0.38413  -0.38253
 Alpha  occ. eigenvalues --   -0.37356  -0.37120  -0.36746  -0.36570  -0.36539
 Alpha  occ. eigenvalues --   -0.35945  -0.35380  -0.35186  -0.33790  -0.33244
 Alpha  occ. eigenvalues --   -0.32484  -0.31962  -0.31847  -0.31145  -0.26397
 Alpha  occ. eigenvalues --   -0.22886
 Alpha virt. eigenvalues --   -0.06841  -0.00535   0.01842   0.04448   0.04661
 Alpha virt. eigenvalues --    0.05797   0.07282   0.07611   0.08091   0.09293
 Alpha virt. eigenvalues --    0.10221   0.11127   0.11525   0.12145   0.12704

 Mulliken charges:
               1
     1  Mg   0.957565
     2  C   -0.048257
     3  C   -0.096589
     4  C   -0.096519
     5  C   -0.071764
     6  N   -0.300610
     7  C   -0.010568
     8  C   -0.091150
     9  C   -0.171527
    10  C    0.028796
    11  C    0.040671
    12  C    0.035003
    13  C   -0.011560
    14  C    0.234616
    15  O   -0.282162
    16  O   -0.350434
    17  N   -0.496294
    18  C    0.205360
    19  C   -0.139764
    20  C   -0.055654
    21  C    0.181813
    22  C    0.079350
    23  C    0.019176
    24  O   -0.215836
    25  C   -0.036636
    26  N   -0.353682
    27  C    0.044003
    28  C   -0.026285
    29  C   -0.076534
    30  C    0.089061
    31  C    0.000544
    32  C   -0.039325
    33  C   -0.059037
    34  N   -0.421590
    35  C    0.074405
    36  C   -0.184773
    37  C   -0.058635
    38  C    0.152739
    39  C    0.072277
    40  C    0.128155
    41  O   -0.233456
    42  C   -0.092064
    43  C    0.267666
    44  O   -0.256812
    45  O   -0.344887
    46  C    0.138982
    47  C    0.261076
    48  C   -0.172095
    49  C   -0.195898
    50  C    0.048032
    51  C    0.062732
    52  C   -0.063687
    53  C    0.002144
    54  C   -0.162676
    55  C   -0.009419
    56  C    0.026407
    57  C    0.003448
    58  C   -0.029981
    59  C   -0.161251
    60  C    0.014406
    61  C   -0.002377
    62  C   -0.005382
    63  C   -0.002754
    64  C   -0.224221
    65  C    0.008293
    66  C    0.015478
    67  H    0.018156
    68  H    0.003530
    69  H    0.003815
    70  H    0.036956
    71  H    0.042905
    72  H    0.048424
    73  H    0.057418
    74  H    0.043276
    75  H    0.054714
    76  H    0.055938
    77  H    0.073474
    78  H    0.056369
    79  H    0.055396
    80  H    0.026383
    81  H    0.071158
    82  H    0.053469
    83  H    0.072033
    84  H    0.047528
    85  H    0.050361
    86  H    0.045254
    87  H    0.035754
    88  H    0.040292
    89  H    0.038854
    90  H    0.033233
    91  H    0.017189
    92  H    0.026072
    93  H    0.044439
    94  H    0.034534
    95  H    0.038669
    96  H    0.035622
    97  H    0.065905
    98  H    0.091268
    99  H    0.058155
   100  H    0.056198
   101  H    0.072198
   102  H    0.041804
   103  H    0.039565
   104  H    0.021262
   105  H    0.054901
   106  H    0.038211
   107  H    0.030824
   108  H    0.015579
   109  H    0.035438
   110  H    0.019352
   111  H    0.033302
   112  H   -0.000014
   113  H    0.023073
   114  H    0.022879
   115  H    0.026001
   116  H    0.029855
   117  H    0.017499
   118  H    0.017607
   119  H    0.029074
   120  H    0.009973
   121  H    0.007402
   122  H    0.007634
   123  H    0.000610
   124  H    0.014240
   125  H    0.029259
   126  H    0.016917
   127  H    0.018455
   128  H    0.003154
   129  H    0.004605
   130  H    0.018296
   131  H    0.023835
   132  H    0.012527
   133  H    0.010113
   134  H    0.022908
   135  H    0.024139
   136  H    0.027209
   137  H    0.024758
   138  H    0.025974
   139  H    0.011949
   140  H    0.044842
 Sum of Mulliken charges =  -0.00000

 Dipole moment (field-independent basis, Debye):
    X=             -0.8866    Y=              3.8931    Z=              2.1195  Tot=              4.5204
 Quadrupole moment (field-independent basis, Debye-Ang):
   XX=           -395.3356   YY=           -424.3824   ZZ=           -386.0538
   XY=             32.2877   XZ=            -11.0046   YZ=             28.1042

 Normal termination of Gaussian 16 at Thu Apr 28 07:52:28 2022.
