 Gaussian 16, Revision A.03,
 Gaussian 16:  ES64L-G16RevA.03 25-Dec-2016

 --------------------
 #p ZINDO=(nstates=5)
 --------------------

 -----------------------------
 step_1501_chromophore_2 ZINDO
 -----------------------------
 Symbolic Z-matrix:
 Charge =  0 Multiplicity = 1

                         Standard orientation:
 ---------------------------------------------------------------------
 Center     Atomic      Atomic             Coordinates (Angstroms)
 Number     Number       Type             X           Y           Z
 ---------------------------------------------------------------------
      1         12           0        4.361492    1.277666   -0.566596
      2          6           0        4.483489   -2.319498   -0.732463
      3          6           0        1.672729    1.170332   -2.718148
      4          6           0        3.549023    4.329283    0.305136
      5          6           0        6.400376    1.014903    2.452279
      6          7           0        3.211699   -0.431320   -1.564281
      7          6           0        3.466410   -1.776243   -1.563252
      8          6           0        2.552285   -2.438705   -2.537102
      9          6           0        1.892188   -1.250176   -3.301454
     10          6           0        2.204897   -0.086451   -2.372281
     11          6           0        2.351033   -0.937414   -4.784309
     12          6           0        1.501128   -3.389464   -1.807672
     13          6           0        0.412019   -2.642650   -0.953624
     14          6           0       -0.995156   -2.746583   -1.444096
     15          8           0       -1.404173   -2.310658   -2.539446
     16          8           0       -1.766493   -3.461743   -0.514698
     17          7           0        3.045066    2.641858   -1.363880
     18          6           0        2.087264    2.408272   -2.332205
     19          6           0        1.576364    3.776905   -2.712962
     20          6           0        2.233234    4.741174   -1.894408
     21          6           0        2.992982    3.915628   -0.911457
     22          6           0        0.430652    3.993576   -3.706322
     23          6           0        2.154609    6.173624   -2.069789
     24          8           0        1.432165    6.663421   -2.890001
     25          6           0        2.712293    7.078988   -1.026644
     26          7           0        4.998839    2.542149    1.136267
     27          6           0        4.302129    3.713670    1.337315
     28          6           0        4.592110    4.337111    2.711029
     29          6           0        5.723794    3.409385    3.248107
     30          6           0        5.770142    2.224405    2.199559
     31          6           0        4.843930    5.927580    2.732100
     32          6           0        5.465716    2.912264    4.738797
     33          6           0        6.447618    3.499020    5.783322
     34          7           0        5.398901   -0.228809    0.508058
     35          6           0        6.247123   -0.185598    1.615450
     36          6           0        6.796414   -1.528040    1.898815
     37          6           0        6.119989   -2.346121    0.966680
     38          6           0        5.293113   -1.546714    0.199798
     39          6           0        7.699900   -1.963991    2.991511
     40          6           0        6.066874   -3.702807    0.534163
     41          8           0        6.772957   -4.628998    0.964220
     42          6           0        4.863478   -3.772392   -0.444246
     43          6           0        5.177262   -4.652916   -1.605974
     44          8           0        4.382127   -5.470886   -2.052364
     45          8           0        6.440696   -4.446129   -2.019567
     46          6           0        6.933830   -5.388968   -3.023126
     47          6           0       -3.183486   -3.469437   -0.765749
     48          6           0       -3.830305   -3.698085    0.616170
     49          6           0       -3.751239   -2.994875    1.767997
     50          6           0       -3.175455   -1.609574    1.793828
     51          6           0       -4.363638   -3.421975    3.108276
     52          6           0       -5.829919   -3.150823    3.319094
     53          6           0       -6.612784   -3.493423    2.059952
     54          6           0       -8.148782   -3.422709    2.333832
     55          6           0       -8.908063   -4.751549    1.897013
     56          6           0       -8.756552   -2.169664    1.573409
     57          6           0       -8.726979   -0.866413    2.445036
     58          6           0       -7.833293    0.196319    1.867254
     59          6           0       -8.494514    1.045822    0.752146
     60          6           0       -7.457039    1.939994    0.096200
     61          6           0       -9.541276    1.967779    1.367570
     62          6           0      -10.896871    1.841759    0.648051
     63          6           0      -11.032084    3.025235   -0.435359
     64          6           0      -11.468508    2.516164   -1.882340
     65          6           0      -10.743521    3.246173   -2.991070
     66          6           0      -12.980448    2.496728   -2.013314
     67          1           0        0.911808    1.063526   -3.493479
     68          1           0        3.073198    5.248961    0.652221
     69          1           0        7.048632    0.851828    3.315997
     70          1           0        3.106453   -3.009201   -3.283151
     71          1           0        0.855257   -1.574847   -3.388404
     72          1           0        2.734092    0.081902   -4.832545
     73          1           0        1.371711   -1.042785   -5.251257
     74          1           0        3.141289   -1.646031   -5.032728
     75          1           0        2.068741   -4.040287   -1.143023
     76          1           0        0.999215   -3.897953   -2.631313
     77          1           0        0.716960   -1.597618   -0.903982
     78          1           0        0.392656   -3.075905    0.046451
     79          1           0       -0.477138    4.257104   -3.163223
     80          1           0        0.228054    3.032299   -4.177153
     81          1           0        0.520494    4.825545   -4.405020
     82          1           0        3.739122    6.916032   -0.698240
     83          1           0        2.023013    7.029122   -0.183915
     84          1           0        2.692485    8.100255   -1.407006
     85          1           0        3.714201    4.160458    3.332411
     86          1           0        6.725519    3.838291    3.231533
     87          1           0        4.031910    6.574686    3.065335
     88          1           0        5.102690    6.326416    1.751278
     89          1           0        5.644035    6.191651    3.423782
     90          1           0        5.419316    1.839790    4.931381
     91          1           0        4.454537    3.142384    5.075603
     92          1           0        7.254564    4.009819    5.258441
     93          1           0        6.813421    2.717532    6.450065
     94          1           0        5.975819    4.286609    6.372009
     95          1           0        7.329960   -1.769986    3.998659
     96          1           0        8.587346   -1.332821    2.935347
     97          1           0        7.888961   -3.031682    2.877784
     98          1           0        4.068042   -4.173007    0.183207
     99          1           0        7.919636   -4.932474   -3.118830
    100          1           0        6.377368   -5.287257   -3.954634
    101          1           0        7.007457   -6.420830   -2.679578
    102          1           0       -3.595864   -4.184913   -1.477645
    103          1           0       -3.587945   -2.531362   -1.146387
    104          1           0       -4.232243   -4.709320    0.669630
    105          1           0       -2.256261   -1.673715    2.376494
    106          1           0       -3.960813   -1.020433    2.269216
    107          1           0       -3.001659   -1.236604    0.784685
    108          1           0       -3.973520   -2.852127    3.951562
    109          1           0       -4.208316   -4.479760    3.318377
    110          1           0       -6.019471   -2.090614    3.485866
    111          1           0       -6.239710   -3.735522    4.142713
    112          1           0       -6.288970   -4.456126    1.664046
    113          1           0       -6.316125   -2.814813    1.260517
    114          1           0       -8.272239   -3.334350    3.413314
    115          1           0       -9.586184   -5.034303    2.702908
    116          1           0       -8.328305   -5.621075    1.588562
    117          1           0       -9.583225   -4.596179    1.055938
    118          1           0       -9.809140   -2.383571    1.382414
    119          1           0       -8.245485   -1.992373    0.626931
    120          1           0       -8.424480   -1.009084    3.482860
    121          1           0       -9.700876   -0.413701    2.631246
    122          1           0       -6.876042   -0.146132    1.473725
    123          1           0       -7.617860    0.832331    2.726338
    124          1           0       -8.777600    0.312578   -0.003303
    125          1           0       -6.755082    1.375485   -0.516896
    126          1           0       -7.049302    2.507573    0.932976
    127          1           0       -7.896633    2.719777   -0.525433
    128          1           0       -9.241918    3.014740    1.337218
    129          1           0       -9.577445    1.899279    2.455355
    130          1           0      -11.642084    1.921600    1.439481
    131          1           0      -11.006765    0.846363    0.218531
    132          1           0      -10.199086    3.727437   -0.444608
    133          1           0      -11.825884    3.674496   -0.065078
    134          1           0      -11.086126    1.497039   -1.943970
    135          1           0      -11.491210    3.876376   -3.472174
    136          1           0      -10.337804    2.557742   -3.732828
    137          1           0       -9.878104    3.790374   -2.612613
    138          1           0      -13.236015    1.444549   -1.882887
    139          1           0      -13.212678    2.658319   -3.066311
    140          1           0      -13.618921    3.166309   -1.437068
 ---------------------------------------------------------------------

 SCF Done:  E(RZINDO/S) =  -474.254575508     A.U. after   19 cycles

 Excitation energies and oscillator strengths:

 Excited State   1:      Singlet-A      1.3983 eV  886.67 nm  f=0.5090  <S**2>=0.000
     175 ->178         0.14768
     176 ->177         0.67379
 This state for optimization and/or second-order correction.
 Total Energy, E(CIS/TDA) =  -474.203188708
 Copying the excited state density for this state as the 1-particle RhoCI density.

 Excited State   2:      Singlet-A      1.9377 eV  639.85 nm  f=0.0022  <S**2>=0.000
     175 ->177        -0.46112
     176 ->178         0.49852

 Excited State   3:      Singlet-A      2.8261 eV  438.71 nm  f=0.0175  <S**2>=0.000
     167 ->179         0.13552
     168 ->177         0.27476
     168 ->178         0.13719
     168 ->179         0.38903
     168 ->182         0.15518
     168 ->185         0.19324
     168 ->192        -0.11597
     170 ->177        -0.19299
     170 ->179        -0.15199

 Excited State   4:      Singlet-A      2.8933 eV  428.53 nm  f=0.4967  <S**2>=0.000
     175 ->177         0.33170
     176 ->178         0.35397
     176 ->179         0.32602
     176 ->180         0.31410

 Excited State   5:      Singlet-A      2.9596 eV  418.92 nm  f=0.5016  <S**2>=0.000
     175 ->177        -0.32074
     176 ->178        -0.26792
     176 ->179         0.42940
     176 ->180         0.16403
     176 ->182        -0.23741

 The electronic state is 1-A.
 Alpha  occ. eigenvalues --   -1.84106  -1.81241  -1.79137  -1.73802  -1.72110
 Alpha  occ. eigenvalues --   -1.70491  -1.67375  -1.63972  -1.62232  -1.56488
 Alpha  occ. eigenvalues --   -1.55406  -1.51285  -1.48178  -1.47493  -1.46038
 Alpha  occ. eigenvalues --   -1.44930  -1.42000  -1.40190  -1.39168  -1.37371
 Alpha  occ. eigenvalues --   -1.35102  -1.33302  -1.32358  -1.31690  -1.28872
 Alpha  occ. eigenvalues --   -1.28064  -1.26756  -1.22865  -1.22301  -1.18599
 Alpha  occ. eigenvalues --   -1.16238  -1.15747  -1.14989  -1.13502  -1.12416
 Alpha  occ. eigenvalues --   -1.11803  -1.11513  -1.09138  -1.05124  -1.04349
 Alpha  occ. eigenvalues --   -1.03708  -1.01101  -1.00094  -0.97980  -0.97507
 Alpha  occ. eigenvalues --   -0.95807  -0.94930  -0.94027  -0.93598  -0.91396
 Alpha  occ. eigenvalues --   -0.90799  -0.90630  -0.89206  -0.88873  -0.87057
 Alpha  occ. eigenvalues --   -0.85923  -0.85011  -0.84344  -0.82443  -0.81140
 Alpha  occ. eigenvalues --   -0.80216  -0.79527  -0.77797  -0.77725  -0.77135
 Alpha  occ. eigenvalues --   -0.76610  -0.75338  -0.74683  -0.74043  -0.73711
 Alpha  occ. eigenvalues --   -0.73318  -0.71749  -0.71637  -0.71490  -0.70863
 Alpha  occ. eigenvalues --   -0.70199  -0.69897  -0.69488  -0.68735  -0.67722
 Alpha  occ. eigenvalues --   -0.67506  -0.66612  -0.66277  -0.66036  -0.65682
 Alpha  occ. eigenvalues --   -0.65548  -0.65219  -0.64468  -0.64178  -0.63806
 Alpha  occ. eigenvalues --   -0.63232  -0.62498  -0.61944  -0.61377  -0.61266
 Alpha  occ. eigenvalues --   -0.60942  -0.60419  -0.60091  -0.60002  -0.59664
 Alpha  occ. eigenvalues --   -0.59525  -0.59206  -0.59141  -0.58842  -0.58372
 Alpha  occ. eigenvalues --   -0.58153  -0.57804  -0.57566  -0.56835  -0.56661
 Alpha  occ. eigenvalues --   -0.56380  -0.55911  -0.55581  -0.55333  -0.54865
 Alpha  occ. eigenvalues --   -0.54744  -0.54244  -0.54104  -0.53421  -0.53379
 Alpha  occ. eigenvalues --   -0.53092  -0.52314  -0.51785  -0.51747  -0.51705
 Alpha  occ. eigenvalues --   -0.51459  -0.51372  -0.51022  -0.50605  -0.50198
 Alpha  occ. eigenvalues --   -0.50119  -0.49982  -0.49775  -0.49615  -0.49344
 Alpha  occ. eigenvalues --   -0.48833  -0.48786  -0.48545  -0.48227  -0.48034
 Alpha  occ. eigenvalues --   -0.47523  -0.47376  -0.47097  -0.47059  -0.46682
 Alpha  occ. eigenvalues --   -0.46311  -0.46240  -0.46174  -0.45447  -0.45244
 Alpha  occ. eigenvalues --   -0.44894  -0.44731  -0.44652  -0.44273  -0.43597
 Alpha  occ. eigenvalues --   -0.43415  -0.43037  -0.42678  -0.42398  -0.42272
 Alpha  occ. eigenvalues --   -0.42052  -0.41578  -0.41166  -0.39707  -0.39275
 Alpha  occ. eigenvalues --   -0.38366  -0.37150  -0.36608  -0.34531  -0.34062
 Alpha  occ. eigenvalues --   -0.33565  -0.32698  -0.32201  -0.31355  -0.27391
 Alpha  occ. eigenvalues --   -0.21933
 Alpha virt. eigenvalues --   -0.08055  -0.02910  -0.01410   0.00572   0.00727
 Alpha virt. eigenvalues --    0.01462   0.02631   0.02842   0.04211   0.04490
 Alpha virt. eigenvalues --    0.05862   0.06416   0.06868   0.07080   0.07525

 Mulliken charges:
               1
     1  Mg   0.431270
     2  C   -0.038061
     3  C   -0.060660
     4  C   -0.120855
     5  C   -0.067950
     6  N   -0.271322
     7  C    0.082730
     8  C    0.003241
     9  C   -0.016480
    10  C    0.181368
    11  C   -0.056169
    12  C   -0.018492
    13  C    0.004071
    14  C    0.470054
    15  O   -0.528735
    16  O   -0.254575
    17  N   -0.339936
    18  C    0.136052
    19  C    0.069011
    20  C   -0.042757
    21  C    0.182866
    22  C   -0.035787
    23  C    0.342034
    24  O   -0.512901
    25  C   -0.029552
    26  N   -0.283161
    27  C    0.173277
    28  C    0.013912
    29  C    0.002738
    30  C    0.081747
    31  C   -0.056612
    32  C   -0.040901
    33  C   -0.060462
    34  N   -0.316503
    35  C    0.045029
    36  C   -0.007884
    37  C   -0.059443
    38  C    0.083278
    39  C   -0.035219
    40  C    0.323325
    41  O   -0.547753
    42  C    0.060011
    43  C    0.492493
    44  O   -0.536931
    45  O   -0.248121
    46  C    0.076206
    47  C    0.106567
    48  C   -0.099302
    49  C    0.009427
    50  C   -0.044048
    51  C   -0.016899
    52  C   -0.025030
    53  C   -0.039365
    54  C   -0.017973
    55  C   -0.066881
    56  C   -0.031606
    57  C   -0.038623
    58  C   -0.033329
    59  C   -0.008956
    60  C   -0.060444
    61  C   -0.030133
    62  C   -0.037836
    63  C   -0.045405
    64  C   -0.006355
    65  C   -0.055970
    66  C   -0.054846
    67  H    0.034653
    68  H    0.014057
    69  H    0.033882
    70  H    0.033518
    71  H    0.039164
    72  H    0.026895
    73  H    0.036761
    74  H    0.034782
    75  H    0.038892
    76  H    0.034921
    77  H    0.048156
    78  H    0.031672
    79  H    0.037265
    80  H    0.022684
    81  H    0.054051
    82  H    0.030691
    83  H    0.044400
    84  H    0.030635
    85  H    0.038273
    86  H    0.036734
    87  H    0.022196
    88  H    0.021664
    89  H    0.020417
    90  H    0.026726
    91  H    0.011477
    92  H    0.018554
    93  H    0.024982
    94  H    0.015402
    95  H    0.024254
    96  H    0.024065
    97  H    0.039575
    98  H    0.059840
    99  H    0.028230
   100  H    0.044277
   101  H    0.056721
   102  H    0.048183
   103  H    0.042179
   104  H    0.016774
   105  H    0.034615
   106  H    0.027886
   107  H    0.024061
   108  H    0.012592
   109  H    0.023713
   110  H    0.018559
   111  H    0.022094
   112  H    0.018573
   113  H    0.018847
   114  H    0.026795
   115  H    0.013069
   116  H    0.024081
   117  H    0.013431
   118  H    0.014099
   119  H    0.029588
   120  H    0.011937
   121  H    0.017856
   122  H    0.014873
   123  H    0.006596
   124  H    0.026509
   125  H    0.017098
   126  H    0.017944
   127  H    0.011238
   128  H    0.013220
   129  H    0.015683
   130  H    0.014847
   131  H    0.026034
   132  H    0.028344
   133  H    0.009059
   134  H    0.016746
   135  H    0.021310
   136  H    0.014994
   137  H    0.019282
   138  H    0.013874
   139  H    0.008852
   140  H    0.033616
 Sum of Mulliken charges =   0.00000

 Dipole moment (field-independent basis, Debye):
    X=             -3.9711    Y=              7.4538    Z=              1.9966  Tot=              8.6784
 N-N= 4.451131963743D+03 E-N= 0.000000000000D+00  KE=-9.576106530592D+03
 Leave Link  601 at Thu Apr 28 08:08:29 2022, MaxMem=  6710886400 cpu:               0.7 elap:               0.0
 (Enter /sw/apps/gaussian-16.0/g16/l9999.exe)
 1\1\GINC-BP1-COMPUTE142\SP\RZINDO CIS\STO-3G\C55H74Mg1N4O6\OF15641\28-
 Apr-2022\0\\#p ZINDO=(nstates=5)\\step_1501_chromophore_2 ZINDO\\0,1\M
 g,0,2.398,-0.093,44.412\C,0,5.947,0.358,43.984\C,0,1.919,2.557,42.263\
 C,0,-0.7,-1.046,43.936\C,0,3.171,-3.426,45.69\N,0,3.824,1.261,43.241\C
 ,0,5.191,1.326,43.269\C,0,5.631,2.518,42.489\C,0,4.307,3.293,42.208\C,
 0,3.266,2.222,42.499\C,0,4.004,4.62,43.017\C,0,6.418,2.101,41.167\C,0,
 5.536,1.422,40.056\C,0,5.365,2.193,38.788\O,0,4.808,3.306,38.698\O,0,5

 Normal termination of Gaussian 16 at Thu Apr 28 08:08:29 2022.
