 Gaussian 16, Revision A.03,
 Gaussian 16:  ES64L-G16RevA.03 25-Dec-2016

 ------------------------------
 #p blyp/Def2SVP td=(nstates=5)
 ------------------------------

 --------------------------------------------------
 step_1601_chromophore_5 TDDFT with blyp functional
 --------------------------------------------------
 Symbolic Z-matrix:
 Charge =  0 Multiplicity = 1

                         Standard orientation:
 ---------------------------------------------------------------------
 Center     Atomic      Atomic             Coordinates (Angstroms)
 Number     Number       Type             X           Y           Z
 ---------------------------------------------------------------------
      1         12           0       -5.320617   -0.476030   -0.398958
      2          6           0       -3.957519    2.667994   -0.013958
      3          6           0       -3.336610   -1.020677   -3.118669
      4          6           0       -5.848153   -3.880028   -0.051049
      5          6           0       -6.990171   -0.008806    2.733176
      6          7           0       -3.762229    0.658357   -1.279070
      7          6           0       -3.395926    1.920116   -1.039270
      8          6           0       -2.281590    2.399200   -2.032438
      9          6           0       -2.388156    1.294594   -3.146991
     10          6           0       -3.191888    0.256847   -2.490575
     11          6           0       -2.995193    1.678551   -4.508663
     12          6           0       -0.892989    2.502140   -1.235939
     13          6           0        0.008214    3.726865   -1.638780
     14          6           0        1.495339    3.540729   -1.741194
     15          8           0        2.175089    4.232508   -2.408747
     16          8           0        2.034174    2.539051   -0.970099
     17          7           0       -4.831095   -2.173646   -1.563627
     18          6           0       -4.030056   -2.160657   -2.642382
     19          6           0       -3.857374   -3.547682   -3.062720
     20          6           0       -4.588843   -4.364166   -2.162633
     21          6           0       -5.182837   -3.436314   -1.241291
     22          6           0       -2.757186   -3.899167   -4.092092
     23          6           0       -4.737680   -5.915418   -2.384267
     24          8           0       -4.024679   -6.533954   -3.190811
     25          6           0       -5.694214   -6.734738   -1.609670
     26          7           0       -6.369229   -1.707092    1.051011
     27          6           0       -6.419836   -3.110334    0.964303
     28          6           0       -7.344614   -3.692430    2.065488
     29          6           0       -7.809740   -2.385251    2.889191
     30          6           0       -7.038777   -1.312701    2.209175
     31          6           0       -8.405811   -4.739203    1.655105
     32          6           0       -7.594677   -2.493888    4.422200
     33          6           0       -8.864608   -2.499325    5.240024
     34          7           0       -5.561817    1.044256    0.998387
     35          6           0       -6.289584    1.109431    2.168298
     36          6           0       -6.327940    2.497665    2.724371
     37          6           0       -5.321416    3.140206    1.947548
     38          6           0       -4.916150    2.199529    0.934089
     39          6           0       -7.080035    2.919952    3.958887
     40          6           0       -4.575300    4.340116    1.632395
     41          8           0       -4.477158    5.377883    2.210921
     42          6           0       -3.695662    4.070643    0.376092
     43          6           0       -4.274680    4.973972   -0.631151
     44          8           0       -5.220152    4.706230   -1.395894
     45          8           0       -3.658592    6.157027   -0.580438
     46          6           0       -4.340114    7.174223   -1.468365
     47          6           0        3.452587    2.493509   -0.781507
     48          6           0        3.873348    1.553287    0.289380
     49          6           0        5.156545    1.040493    0.438154
     50          6           0        6.389176    1.559034   -0.262943
     51          6           0        5.406757   -0.172168    1.269513
     52          6           0        5.420273   -1.539300    0.595276
     53          6           0        6.339257   -2.641691    1.126232
     54          6           0        7.654492   -2.740657    0.212344
     55          6           0        7.721420   -4.114353   -0.582177
     56          6           0        8.962334   -2.403917    1.009110
     57          6           0        9.832680   -1.379377    0.275764
     58          6           0       10.222408   -0.185721    1.146424
     59          6           0       11.014260    0.767976    0.281708
     60          6           0       10.151073    1.807402   -0.453520
     61          6           0       12.064529    1.528642    1.158655
     62          6           0       13.472592    1.076512    0.793969
     63          6           0       13.872217   -0.141021    1.616103
     64          6           0       14.089709   -1.438763    0.841646
     65          6           0       13.454497   -2.700966    1.537387
     66          6           0       15.597116   -1.694972    0.530569
     67          1           0       -2.830989   -1.163662   -4.076054
     68          1           0       -6.110616   -4.939360   -0.043418
     69          1           0       -7.611575    0.272725    3.586743
     70          1           0       -2.551887    3.386558   -2.407477
     71          1           0       -1.443583    0.789863   -3.349532
     72          1           0       -2.886053    2.747191   -4.693277
     73          1           0       -4.022720    1.328864   -4.607170
     74          1           0       -2.494970    1.108620   -5.291977
     75          1           0       -0.158544    1.705691   -1.355166
     76          1           0       -1.238148    2.768269   -0.236834
     77          1           0       -0.280364    4.663214   -1.161912
     78          1           0       -0.346902    3.894362   -2.655432
     79          1           0       -2.496307   -4.947592   -3.948990
     80          1           0       -1.857428   -3.340677   -3.832487
     81          1           0       -2.984668   -3.628182   -5.123609
     82          1           0       -6.682813   -6.276020   -1.619024
     83          1           0       -5.358927   -6.867302   -0.580749
     84          1           0       -5.778208   -7.706359   -2.096100
     85          1           0       -6.612703   -4.180336    2.709155
     86          1           0       -8.862854   -2.219380    2.665693
     87          1           0       -9.385623   -4.444797    2.030822
     88          1           0       -8.105690   -5.632146    2.202714
     89          1           0       -8.393609   -4.800369    0.566171
     90          1           0       -6.903997   -1.750004    4.819879
     91          1           0       -7.207594   -3.492240    4.628653
     92          1           0       -9.128880   -3.532952    5.464813
     93          1           0       -9.695406   -1.974251    4.768901
     94          1           0       -8.605958   -1.985838    6.165245
     95          1           0       -6.712856    2.457627    4.875154
     96          1           0       -8.151448    2.719530    3.922452
     97          1           0       -6.896668    3.990785    4.038300
     98          1           0       -2.630396    4.293014    0.437415
     99          1           0       -5.399258    7.151617   -1.211390
    100          1           0       -4.046343    7.035247   -2.507968
    101          1           0       -3.760507    8.011257   -1.080828
    102          1           0        3.774891    3.510151   -0.558147
    103          1           0        3.887036    2.134515   -1.714547
    104          1           0        3.028526    1.212830    0.887493
    105          1           0        7.248517    1.739561    0.382864
    106          1           0        6.160084    2.410195   -0.904945
    107          1           0        6.563112    0.844459   -1.066379
    108          1           0        4.639483   -0.129372    2.042502
    109          1           0        6.280362    0.027690    1.890503
    110          1           0        5.561868   -1.490461   -0.484787
    111          1           0        4.363193   -1.792821    0.679406
    112          1           0        5.778649   -3.570809    1.228048
    113          1           0        6.686425   -2.223719    2.071329
    114          1           0        7.577538   -2.039116   -0.618330
    115          1           0        7.320065   -3.896533   -1.571178
    116          1           0        7.019190   -4.830390   -0.153805
    117          1           0        8.724409   -4.542002   -0.605590
    118          1           0        9.641690   -3.253261    1.081719
    119          1           0        8.672338   -2.072178    2.006085
    120          1           0        9.339082   -0.952467   -0.596937
    121          1           0       10.794231   -1.802166   -0.016590
    122          1           0       10.722854   -0.488409    2.066917
    123          1           0        9.312089    0.325410    1.456690
    124          1           0       11.545005    0.139138   -0.431748
    125          1           0       10.731862    2.145213   -1.310912
    126          1           0        9.922802    2.628611    0.225494
    127          1           0        9.222252    1.366843   -0.816316
    128          1           0       11.739054    1.346293    2.182957
    129          1           0       11.968905    2.606053    1.030405
    130          1           0       14.141912    1.906261    1.021363
    131          1           0       13.585456    0.932013   -0.281186
    132          1           0       13.198929   -0.359869    2.444653
    133          1           0       14.793917    0.133674    2.129612
    134          1           0       13.565766   -1.422983   -0.113515
    135          1           0       12.758175   -3.153241    0.832191
    136          1           0       12.885459   -2.428608    2.427045
    137          1           0       14.202743   -3.417931    1.876339
    138          1           0       15.834433   -0.872941   -0.145530
    139          1           0       15.769226   -2.687472    0.114355
    140          1           0       16.208546   -1.611483    1.428908
 ---------------------------------------------------------------------

 SCF Done:  E(RB-LYP) =  -3007.37502333     A.U. after   21 cycles

 Excitation energies and oscillator strengths:

 Excited State   1:      Singlet-A      1.7588 eV  704.95 nm  f=0.3070  <S**2>=0.000
     245 -> 248       -0.16088
     246 -> 247        0.69534
     246 <- 247       -0.16317
 This state for optimization and/or second-order correction.
 Total Energy, E(TD-HF/TD-DFT) =  -3007.31038981
 Copying the excited state density for this state as the 1-particle RhoCI density.

 Excited State   2:      Singlet-A      1.9543 eV  634.42 nm  f=0.0086  <S**2>=0.000
     243 -> 247        0.12593
     244 -> 247        0.65101
     245 -> 247       -0.23225

 Excited State   3:      Singlet-A      1.9765 eV  627.28 nm  f=0.0448  <S**2>=0.000
     243 -> 247       -0.35999
     244 -> 247        0.27349
     245 -> 247        0.50873
     246 -> 248        0.15949

 Excited State   4:      Singlet-A      2.1145 eV  586.35 nm  f=0.0305  <S**2>=0.000
     243 -> 247        0.58662
     245 -> 247        0.33094
     246 -> 248        0.16917

 Excited State   5:      Singlet-A      2.1364 eV  580.35 nm  f=0.0001  <S**2>=0.000
     242 -> 247        0.70573

 The electronic state is 1-A.
 Alpha  occ. eigenvalues --  -46.27150 -18.82274 -18.81624 -18.76582 -18.76014
 Alpha  occ. eigenvalues --  -18.75732 -18.75662 -14.03615 -14.03211 -14.00980
 Alpha  occ. eigenvalues --  -14.00946 -10.04015 -10.03215 -10.00354  -9.99735
 Alpha  occ. eigenvalues --   -9.97929  -9.97725  -9.96756  -9.96613  -9.96476
 Alpha  occ. eigenvalues --   -9.96442  -9.95799  -9.95694  -9.94967  -9.94962
 Alpha  occ. eigenvalues --   -9.94566  -9.94474  -9.94077  -9.93991  -9.93907
 Alpha  occ. eigenvalues --   -9.93628  -9.93617  -9.93353  -9.93220  -9.93153
 Alpha  occ. eigenvalues --   -9.93067  -9.93033  -9.92889  -9.92883  -9.92762
 Alpha  occ. eigenvalues --   -9.92681  -9.92678  -9.92659  -9.92330  -9.92197
 Alpha  occ. eigenvalues --   -9.92185  -9.92160  -9.92115  -9.91957  -9.91856
 Alpha  occ. eigenvalues --   -9.91770  -9.91623  -9.91564  -9.91448  -9.91152
 Alpha  occ. eigenvalues --   -9.90983  -9.90973  -9.90948  -9.90912  -9.90906
 Alpha  occ. eigenvalues --   -9.90899  -9.90789  -9.90659  -9.90609  -9.90444
 Alpha  occ. eigenvalues --   -9.90409  -2.91792  -1.72212  -1.71651  -1.71527
 Alpha  occ. eigenvalues --   -0.99202  -0.98118  -0.93139  -0.91364  -0.90774
 Alpha  occ. eigenvalues --   -0.88587  -0.86913  -0.86179  -0.85789  -0.84044
 Alpha  occ. eigenvalues --   -0.75910  -0.73815  -0.73487  -0.72838  -0.72490
 Alpha  occ. eigenvalues --   -0.71887  -0.71677  -0.71191  -0.70696  -0.70081
 Alpha  occ. eigenvalues --   -0.69423  -0.68700  -0.68394  -0.67816  -0.67460
 Alpha  occ. eigenvalues --   -0.66690  -0.66190  -0.65534  -0.65075  -0.64850
 Alpha  occ. eigenvalues --   -0.64122  -0.62945  -0.62517  -0.61630  -0.60725
 Alpha  occ. eigenvalues --   -0.60709  -0.59899  -0.59616  -0.59546  -0.58906
 Alpha  occ. eigenvalues --   -0.58022  -0.57548  -0.56920  -0.55640  -0.54102
 Alpha  occ. eigenvalues --   -0.54098  -0.53768  -0.52469  -0.52332  -0.51404
 Alpha  occ. eigenvalues --   -0.51161  -0.50610  -0.50593  -0.50405  -0.50068
 Alpha  occ. eigenvalues --   -0.49793  -0.49314  -0.48650  -0.47937  -0.46872
 Alpha  occ. eigenvalues --   -0.46188  -0.46018  -0.45785  -0.45137  -0.44787
 Alpha  occ. eigenvalues --   -0.44280  -0.44154  -0.43386  -0.43132  -0.42957
 Alpha  occ. eigenvalues --   -0.42392  -0.41748  -0.41632  -0.41434  -0.41053
 Alpha  occ. eigenvalues --   -0.40757  -0.40581  -0.40336  -0.40268  -0.40237
 Alpha  occ. eigenvalues --   -0.39949  -0.39829  -0.39764  -0.39401  -0.39275
 Alpha  occ. eigenvalues --   -0.39168  -0.39050  -0.38671  -0.38463  -0.38239
 Alpha  occ. eigenvalues --   -0.38231  -0.37921  -0.37622  -0.37515  -0.37257
 Alpha  occ. eigenvalues --   -0.37100  -0.36904  -0.36808  -0.36714  -0.36657
 Alpha  occ. eigenvalues --   -0.36540  -0.36484  -0.36118  -0.35984  -0.35742
 Alpha  occ. eigenvalues --   -0.35701  -0.35574  -0.35485  -0.34802  -0.34619
 Alpha  occ. eigenvalues --   -0.34460  -0.34297  -0.34171  -0.34048  -0.34003
 Alpha  occ. eigenvalues --   -0.33696  -0.33610  -0.33337  -0.33310  -0.33168
 Alpha  occ. eigenvalues --   -0.32999  -0.32832  -0.32668  -0.32543  -0.32346
 Alpha  occ. eigenvalues --   -0.32246  -0.32092  -0.31692  -0.31657  -0.31613
 Alpha  occ. eigenvalues --   -0.31381  -0.31345  -0.31304  -0.31198  -0.30837
 Alpha  occ. eigenvalues --   -0.30290  -0.30266  -0.30234  -0.29992  -0.29889
 Alpha  occ. eigenvalues --   -0.29867  -0.29744  -0.29667  -0.29247  -0.28935
 Alpha  occ. eigenvalues --   -0.28680  -0.28374  -0.27982  -0.27872  -0.27520
 Alpha  occ. eigenvalues --   -0.27477  -0.27244  -0.27058  -0.26866  -0.26641
 Alpha  occ. eigenvalues --   -0.26312  -0.26147  -0.26054  -0.25954  -0.25392
 Alpha  occ. eigenvalues --   -0.25312  -0.24907  -0.24434  -0.23879  -0.23163
 Alpha  occ. eigenvalues --   -0.23125  -0.22132  -0.21728  -0.21417  -0.21005
 Alpha  occ. eigenvalues --   -0.20336  -0.19409  -0.19011  -0.18697  -0.17271
 Alpha  occ. eigenvalues --   -0.15565
 Alpha virt. eigenvalues --   -0.11558  -0.06682  -0.06090  -0.05110  -0.02902
 Alpha virt. eigenvalues --   -0.02721  -0.02278  -0.02023  -0.01453   0.00034
 Alpha virt. eigenvalues --    0.01075   0.01516   0.01925   0.02179   0.02521

 Mulliken charges:
               1
     1  Mg   0.714686
     2  C    0.086114
     3  C   -0.071402
     4  C   -0.060743
     5  C   -0.074742
     6  N   -0.232334
     7  C   -0.109856
     8  C    0.032507
     9  C    0.021396
    10  C    0.038874
    11  C    0.138576
    12  C    0.148701
    13  C    0.060272
    14  C    0.066069
    15  O   -0.148562
    16  O   -0.280552
    17  N   -0.249333
    18  C    0.101818
    19  C   -0.133561
    20  C   -0.011913
    21  C    0.099715
    22  C    0.162920
    23  C   -0.054169
    24  O   -0.172895
    25  C    0.152864
    26  N   -0.249554
    27  C    0.014877
    28  C    0.002393
    29  C    0.050534
    30  C    0.030121
    31  C    0.155705
    32  C    0.096041
    33  C    0.053912
    34  N   -0.226494
    35  C    0.088762
    36  C   -0.202551
    37  C    0.135339
    38  C    0.004465
    39  C    0.164724
    40  C   -0.083144
    41  O   -0.093892
    42  C    0.062227
    43  C    0.078337
    44  O   -0.226254
    45  O   -0.252747
    46  C    0.223212
    47  C    0.310111
    48  C   -0.095343
    49  C   -0.187832
    50  C    0.150912
    51  C    0.142352
    52  C    0.071345
    53  C    0.137729
    54  C   -0.106878
    55  C    0.096054
    56  C    0.170052
    57  C    0.014667
    58  C    0.078368
    59  C   -0.102576
    60  C    0.117338
    61  C    0.117697
    62  C    0.100399
    63  C    0.131847
    64  C   -0.106799
    65  C    0.079418
    66  C    0.101870
    67  H   -0.059885
    68  H   -0.096531
    69  H   -0.065291
    70  H   -0.024012
    71  H   -0.024247
    72  H    0.000985
    73  H   -0.001222
    74  H   -0.010995
    75  H    0.000399
    76  H   -0.016885
    77  H    0.021375
    78  H   -0.010478
    79  H    0.006829
    80  H   -0.015504
    81  H   -0.004322
    82  H    0.004934
    83  H    0.029867
    84  H   -0.007866
    85  H   -0.023633
    86  H   -0.018887
    87  H   -0.011441
    88  H   -0.006045
    89  H    0.011193
    90  H   -0.009695
    91  H   -0.026888
    92  H   -0.005234
    93  H   -0.006853
    94  H   -0.012209
    95  H    0.006852
    96  H    0.000570
    97  H    0.008293
    98  H   -0.011463
    99  H    0.041119
   100  H    0.021722
   101  H    0.013516
   102  H    0.003392
   103  H   -0.000822
   104  H   -0.031922
   105  H    0.026685
   106  H   -0.027796
   107  H   -0.006355
   108  H   -0.039612
   109  H   -0.044766
   110  H   -0.031887
   111  H   -0.040506
   112  H   -0.018347
   113  H   -0.032825
   114  H   -0.020978
   115  H   -0.018097
   116  H   -0.020033
   117  H   -0.008066
   118  H   -0.035091
   119  H   -0.031820
   120  H   -0.027686
   121  H   -0.028918
   122  H   -0.029487
   123  H   -0.046038
   124  H   -0.039389
   125  H   -0.017434
   126  H   -0.007421
   127  H   -0.018488
   128  H   -0.041325
   129  H   -0.053326
   130  H   -0.047019
   131  H   -0.026816
   132  H   -0.042028
   133  H   -0.044717
   134  H   -0.030571
   135  H   -0.005261
   136  H   -0.022289
   137  H   -0.020009
   138  H   -0.016163
   139  H   -0.011218
   140  H   -0.014814
 Sum of Mulliken charges =  -0.00000

 Dipole moment (field-independent basis, Debye):
    X=             -1.1806    Y=             -1.4568    Z=              1.9027  Tot=              2.6714
 Quadrupole moment (field-independent basis, Debye-Ang):
   XX=           -365.4162   YY=           -431.5274   ZZ=           -403.0940
   XY=             13.4732   XZ=            -13.7417   YZ=            -28.6879

 Normal termination of Gaussian 16 at Wed May  4 11:04:33 2022.
