 Gaussian 16, Revision A.03,
 Gaussian 16:  ES64L-G16RevA.03 25-Dec-2016

 -----------------------------------
 #p cam-b3lyp/Def2SVP td=(nstates=5)
 -----------------------------------

 -------------------------------------------------------
 step_1601_chromophore_5 TDDFT with cam-b3lyp functional
 -------------------------------------------------------
 Symbolic Z-matrix:
 Charge =  0 Multiplicity = 1

                         Standard orientation:
 ---------------------------------------------------------------------
 Center     Atomic      Atomic             Coordinates (Angstroms)
 Number     Number       Type             X           Y           Z
 ---------------------------------------------------------------------
      1         12           0       -5.320617   -0.476030   -0.398958
      2          6           0       -3.957519    2.667994   -0.013958
      3          6           0       -3.336610   -1.020677   -3.118669
      4          6           0       -5.848153   -3.880028   -0.051049
      5          6           0       -6.990171   -0.008806    2.733176
      6          7           0       -3.762229    0.658357   -1.279070
      7          6           0       -3.395926    1.920116   -1.039270
      8          6           0       -2.281590    2.399200   -2.032438
      9          6           0       -2.388156    1.294594   -3.146991
     10          6           0       -3.191888    0.256847   -2.490575
     11          6           0       -2.995193    1.678551   -4.508663
     12          6           0       -0.892989    2.502140   -1.235939
     13          6           0        0.008214    3.726865   -1.638780
     14          6           0        1.495339    3.540729   -1.741194
     15          8           0        2.175089    4.232508   -2.408747
     16          8           0        2.034174    2.539051   -0.970099
     17          7           0       -4.831095   -2.173646   -1.563627
     18          6           0       -4.030056   -2.160657   -2.642382
     19          6           0       -3.857374   -3.547682   -3.062720
     20          6           0       -4.588843   -4.364166   -2.162633
     21          6           0       -5.182837   -3.436314   -1.241291
     22          6           0       -2.757186   -3.899167   -4.092092
     23          6           0       -4.737680   -5.915418   -2.384267
     24          8           0       -4.024679   -6.533954   -3.190811
     25          6           0       -5.694214   -6.734738   -1.609670
     26          7           0       -6.369229   -1.707092    1.051011
     27          6           0       -6.419836   -3.110334    0.964303
     28          6           0       -7.344614   -3.692430    2.065488
     29          6           0       -7.809740   -2.385251    2.889191
     30          6           0       -7.038777   -1.312701    2.209175
     31          6           0       -8.405811   -4.739203    1.655105
     32          6           0       -7.594677   -2.493888    4.422200
     33          6           0       -8.864608   -2.499325    5.240024
     34          7           0       -5.561817    1.044256    0.998387
     35          6           0       -6.289584    1.109431    2.168298
     36          6           0       -6.327940    2.497665    2.724371
     37          6           0       -5.321416    3.140206    1.947548
     38          6           0       -4.916150    2.199529    0.934089
     39          6           0       -7.080035    2.919952    3.958887
     40          6           0       -4.575300    4.340116    1.632395
     41          8           0       -4.477158    5.377883    2.210921
     42          6           0       -3.695662    4.070643    0.376092
     43          6           0       -4.274680    4.973972   -0.631151
     44          8           0       -5.220152    4.706230   -1.395894
     45          8           0       -3.658592    6.157027   -0.580438
     46          6           0       -4.340114    7.174223   -1.468365
     47          6           0        3.452587    2.493509   -0.781507
     48          6           0        3.873348    1.553287    0.289380
     49          6           0        5.156545    1.040493    0.438154
     50          6           0        6.389176    1.559034   -0.262943
     51          6           0        5.406757   -0.172168    1.269513
     52          6           0        5.420273   -1.539300    0.595276
     53          6           0        6.339257   -2.641691    1.126232
     54          6           0        7.654492   -2.740657    0.212344
     55          6           0        7.721420   -4.114353   -0.582177
     56          6           0        8.962334   -2.403917    1.009110
     57          6           0        9.832680   -1.379377    0.275764
     58          6           0       10.222408   -0.185721    1.146424
     59          6           0       11.014260    0.767976    0.281708
     60          6           0       10.151073    1.807402   -0.453520
     61          6           0       12.064529    1.528642    1.158655
     62          6           0       13.472592    1.076512    0.793969
     63          6           0       13.872217   -0.141021    1.616103
     64          6           0       14.089709   -1.438763    0.841646
     65          6           0       13.454497   -2.700966    1.537387
     66          6           0       15.597116   -1.694972    0.530569
     67          1           0       -2.830989   -1.163662   -4.076054
     68          1           0       -6.110616   -4.939360   -0.043418
     69          1           0       -7.611575    0.272725    3.586743
     70          1           0       -2.551887    3.386558   -2.407477
     71          1           0       -1.443583    0.789863   -3.349532
     72          1           0       -2.886053    2.747191   -4.693277
     73          1           0       -4.022720    1.328864   -4.607170
     74          1           0       -2.494970    1.108620   -5.291977
     75          1           0       -0.158544    1.705691   -1.355166
     76          1           0       -1.238148    2.768269   -0.236834
     77          1           0       -0.280364    4.663214   -1.161912
     78          1           0       -0.346902    3.894362   -2.655432
     79          1           0       -2.496307   -4.947592   -3.948990
     80          1           0       -1.857428   -3.340677   -3.832487
     81          1           0       -2.984668   -3.628182   -5.123609
     82          1           0       -6.682813   -6.276020   -1.619024
     83          1           0       -5.358927   -6.867302   -0.580749
     84          1           0       -5.778208   -7.706359   -2.096100
     85          1           0       -6.612703   -4.180336    2.709155
     86          1           0       -8.862854   -2.219380    2.665693
     87          1           0       -9.385623   -4.444797    2.030822
     88          1           0       -8.105690   -5.632146    2.202714
     89          1           0       -8.393609   -4.800369    0.566171
     90          1           0       -6.903997   -1.750004    4.819879
     91          1           0       -7.207594   -3.492240    4.628653
     92          1           0       -9.128880   -3.532952    5.464813
     93          1           0       -9.695406   -1.974251    4.768901
     94          1           0       -8.605958   -1.985838    6.165245
     95          1           0       -6.712856    2.457627    4.875154
     96          1           0       -8.151448    2.719530    3.922452
     97          1           0       -6.896668    3.990785    4.038300
     98          1           0       -2.630396    4.293014    0.437415
     99          1           0       -5.399258    7.151617   -1.211390
    100          1           0       -4.046343    7.035247   -2.507968
    101          1           0       -3.760507    8.011257   -1.080828
    102          1           0        3.774891    3.510151   -0.558147
    103          1           0        3.887036    2.134515   -1.714547
    104          1           0        3.028526    1.212830    0.887493
    105          1           0        7.248517    1.739561    0.382864
    106          1           0        6.160084    2.410195   -0.904945
    107          1           0        6.563112    0.844459   -1.066379
    108          1           0        4.639483   -0.129372    2.042502
    109          1           0        6.280362    0.027690    1.890503
    110          1           0        5.561868   -1.490461   -0.484787
    111          1           0        4.363193   -1.792821    0.679406
    112          1           0        5.778649   -3.570809    1.228048
    113          1           0        6.686425   -2.223719    2.071329
    114          1           0        7.577538   -2.039116   -0.618330
    115          1           0        7.320065   -3.896533   -1.571178
    116          1           0        7.019190   -4.830390   -0.153805
    117          1           0        8.724409   -4.542002   -0.605590
    118          1           0        9.641690   -3.253261    1.081719
    119          1           0        8.672338   -2.072178    2.006085
    120          1           0        9.339082   -0.952467   -0.596937
    121          1           0       10.794231   -1.802166   -0.016590
    122          1           0       10.722854   -0.488409    2.066917
    123          1           0        9.312089    0.325410    1.456690
    124          1           0       11.545005    0.139138   -0.431748
    125          1           0       10.731862    2.145213   -1.310912
    126          1           0        9.922802    2.628611    0.225494
    127          1           0        9.222252    1.366843   -0.816316
    128          1           0       11.739054    1.346293    2.182957
    129          1           0       11.968905    2.606053    1.030405
    130          1           0       14.141912    1.906261    1.021363
    131          1           0       13.585456    0.932013   -0.281186
    132          1           0       13.198929   -0.359869    2.444653
    133          1           0       14.793917    0.133674    2.129612
    134          1           0       13.565766   -1.422983   -0.113515
    135          1           0       12.758175   -3.153241    0.832191
    136          1           0       12.885459   -2.428608    2.427045
    137          1           0       14.202743   -3.417931    1.876339
    138          1           0       15.834433   -0.872941   -0.145530
    139          1           0       15.769226   -2.687472    0.114355
    140          1           0       16.208546   -1.611483    1.428908
 ---------------------------------------------------------------------

 SCF Done:  E(RCAM-B3LYP) =  -3007.17561039     A.U. after   17 cycles

 Excitation energies and oscillator strengths:

 Excited State   1:      Singlet-A      1.6274 eV  761.84 nm  f=0.3785  <S**2>=0.000
     245 -> 248       -0.16888
     246 -> 247        0.68947
     245 <- 248       -0.10951
 This state for optimization and/or second-order correction.
 Total Energy, E(TD-HF/TD-DFT) =  -3007.11580367
 Copying the excited state density for this state as the 1-particle RhoCI density.

 Excited State   2:      Singlet-A      2.2273 eV  556.66 nm  f=0.1080  <S**2>=0.000
     245 -> 247        0.63817
     246 -> 248        0.29539

 Excited State   3:      Singlet-A      3.4012 eV  364.53 nm  f=0.0006  <S**2>=0.000
     242 -> 247       -0.11388
     243 -> 247        0.68060

 Excited State   4:      Singlet-A      3.4730 eV  356.99 nm  f=0.2199  <S**2>=0.000
     239 -> 247        0.17943
     239 -> 249       -0.12366
     241 -> 247       -0.15671
     242 -> 247       -0.40887
     245 -> 247       -0.16822
     246 -> 248        0.43163

 Excited State   5:      Singlet-A      3.6057 eV  343.86 nm  f=0.3596  <S**2>=0.000
     239 -> 247       -0.34410
     239 -> 249        0.17374
     241 -> 247        0.30634
     241 -> 249       -0.15236
     245 -> 247       -0.19404
     246 -> 248        0.38896

 The electronic state is 1-A.
 Alpha  occ. eigenvalues --  -46.88704 -19.25322 -19.24430 -19.19616 -19.19121
 Alpha  occ. eigenvalues --  -19.19035 -19.18868 -14.42571 -14.42074 -14.39444
 Alpha  occ. eigenvalues --  -14.39390 -10.39226 -10.38673 -10.35584 -10.35083
 Alpha  occ. eigenvalues --  -10.32088 -10.31641 -10.31265 -10.31162 -10.30965
 Alpha  occ. eigenvalues --  -10.30863 -10.30248 -10.30029 -10.29220 -10.29167
 Alpha  occ. eigenvalues --  -10.29073 -10.28881 -10.28060 -10.27915 -10.27819
 Alpha  occ. eigenvalues --  -10.27698 -10.27655 -10.27606 -10.27573 -10.27392
 Alpha  occ. eigenvalues --  -10.27375 -10.27138 -10.26852 -10.26792 -10.26730
 Alpha  occ. eigenvalues --  -10.26708 -10.26658 -10.26381 -10.26374 -10.26150
 Alpha  occ. eigenvalues --  -10.26121 -10.25990 -10.25980 -10.25872 -10.25582
 Alpha  occ. eigenvalues --  -10.25575 -10.25297 -10.25238 -10.25051 -10.24971
 Alpha  occ. eigenvalues --  -10.24689 -10.24564 -10.24555 -10.24554 -10.24523
 Alpha  occ. eigenvalues --  -10.24497 -10.24438 -10.24278 -10.24238 -10.24085
 Alpha  occ. eigenvalues --  -10.24059  -3.17247  -1.92143  -1.91682  -1.91569
 Alpha  occ. eigenvalues --   -1.17758  -1.16754  -1.11718  -1.09267  -1.09131
 Alpha  occ. eigenvalues --   -1.06574  -1.04689  -1.03808  -1.03401  -1.01574
 Alpha  occ. eigenvalues --   -0.93140  -0.90702  -0.90337  -0.89596  -0.89168
 Alpha  occ. eigenvalues --   -0.88570  -0.88353  -0.87798  -0.87258  -0.86669
 Alpha  occ. eigenvalues --   -0.85850  -0.85281  -0.84658  -0.84014  -0.83671
 Alpha  occ. eigenvalues --   -0.82740  -0.82380  -0.81538  -0.80938  -0.80702
 Alpha  occ. eigenvalues --   -0.79910  -0.78642  -0.78077  -0.77205  -0.76204
 Alpha  occ. eigenvalues --   -0.76082  -0.75238  -0.74925  -0.74832  -0.74149
 Alpha  occ. eigenvalues --   -0.73041  -0.72542  -0.71808  -0.70478  -0.68696
 Alpha  occ. eigenvalues --   -0.68646  -0.68372  -0.66816  -0.66792  -0.65522
 Alpha  occ. eigenvalues --   -0.65400  -0.64761  -0.64550  -0.64435  -0.64135
 Alpha  occ. eigenvalues --   -0.63625  -0.63269  -0.62547  -0.61784  -0.60468
 Alpha  occ. eigenvalues --   -0.59843  -0.59724  -0.59291  -0.58589  -0.58447
 Alpha  occ. eigenvalues --   -0.57787  -0.57622  -0.56656  -0.56368  -0.56077
 Alpha  occ. eigenvalues --   -0.55662  -0.54684  -0.54449  -0.54392  -0.53800
 Alpha  occ. eigenvalues --   -0.53525  -0.53474  -0.53272  -0.53090  -0.52875
 Alpha  occ. eigenvalues --   -0.52817  -0.52541  -0.52415  -0.52063  -0.52006
 Alpha  occ. eigenvalues --   -0.51824  -0.51486  -0.51401  -0.50795  -0.50691
 Alpha  occ. eigenvalues --   -0.50482  -0.50164  -0.49851  -0.49759  -0.49704
 Alpha  occ. eigenvalues --   -0.49593  -0.49348  -0.49189  -0.48983  -0.48840
 Alpha  occ. eigenvalues --   -0.48770  -0.48715  -0.48551  -0.48366  -0.48233
 Alpha  occ. eigenvalues --   -0.47895  -0.47503  -0.47451  -0.46813  -0.46649
 Alpha  occ. eigenvalues --   -0.46500  -0.46264  -0.45955  -0.45897  -0.45865
 Alpha  occ. eigenvalues --   -0.45664  -0.45332  -0.45105  -0.45002  -0.44914
 Alpha  occ. eigenvalues --   -0.44703  -0.44603  -0.44454  -0.44440  -0.44001
 Alpha  occ. eigenvalues --   -0.43869  -0.43840  -0.43406  -0.43299  -0.43076
 Alpha  occ. eigenvalues --   -0.42979  -0.42830  -0.42646  -0.42529  -0.42454
 Alpha  occ. eigenvalues --   -0.42107  -0.41738  -0.41662  -0.41418  -0.41105
 Alpha  occ. eigenvalues --   -0.41035  -0.40886  -0.40790  -0.40488  -0.40162
 Alpha  occ. eigenvalues --   -0.39966  -0.39303  -0.38970  -0.38888  -0.38458
 Alpha  occ. eigenvalues --   -0.38336  -0.38121  -0.37858  -0.37634  -0.37517
 Alpha  occ. eigenvalues --   -0.37415  -0.37245  -0.36964  -0.36910  -0.36811
 Alpha  occ. eigenvalues --   -0.36426  -0.35410  -0.34961  -0.34742  -0.34156
 Alpha  occ. eigenvalues --   -0.33917  -0.33490  -0.32713  -0.31191  -0.31009
 Alpha  occ. eigenvalues --   -0.30867  -0.30330  -0.29734  -0.28878  -0.24097
 Alpha  occ. eigenvalues --   -0.20780
 Alpha virt. eigenvalues --   -0.08745  -0.01409   0.00378   0.01910   0.02422
 Alpha virt. eigenvalues --    0.04469   0.05039   0.05520   0.06027   0.06868
 Alpha virt. eigenvalues --    0.07842   0.08051   0.08098   0.08463   0.08732

 Mulliken charges:
               1
     1  Mg   0.847137
     2  C    0.052301
     3  C   -0.082887
     4  C   -0.080529
     5  C   -0.084827
     6  N   -0.303342
     7  C   -0.065364
     8  C   -0.012820
     9  C   -0.039843
    10  C    0.057161
    11  C    0.080387
    12  C    0.099178
    13  C   -0.007004
    14  C    0.149048
    15  O   -0.188465
    16  O   -0.347470
    17  N   -0.338358
    18  C    0.107325
    19  C   -0.135881
    20  C   -0.079999
    21  C    0.133519
    22  C    0.103094
    23  C    0.026680
    24  O   -0.214077
    25  C    0.062108
    26  N   -0.321645
    27  C    0.038574
    28  C   -0.049484
    29  C   -0.005466
    30  C    0.055163
    31  C    0.092434
    32  C    0.032744
    33  C   -0.004158
    34  N   -0.314265
    35  C    0.091108
    36  C   -0.185730
    37  C    0.054791
    38  C    0.042832
    39  C    0.108201
    40  C    0.011837
    41  O   -0.130693
    42  C   -0.017185
    43  C    0.167853
    44  O   -0.263836
    45  O   -0.314564
    46  C    0.183053
    47  C    0.276791
    48  C   -0.116302
    49  C   -0.202991
    50  C    0.087328
    51  C    0.083475
    52  C    0.017223
    53  C    0.082385
    54  C   -0.161786
    55  C    0.043842
    56  C    0.114970
    57  C   -0.028081
    58  C    0.032510
    59  C   -0.157715
    60  C    0.065987
    61  C    0.061338
    62  C    0.040144
    63  C    0.073647
    64  C   -0.166707
    65  C    0.025109
    66  C    0.047772
    67  H   -0.022477
    68  H   -0.061023
    69  H   -0.029796
    70  H    0.009277
    71  H    0.012276
    72  H    0.024628
    73  H    0.025706
    74  H    0.013231
    75  H    0.033228
    76  H    0.012416
    77  H    0.050182
    78  H    0.022425
    79  H    0.038973
    80  H    0.011130
    81  H    0.021651
    82  H    0.031426
    83  H    0.055924
    84  H    0.029071
    85  H    0.011161
    86  H    0.015085
    87  H    0.013920
    88  H    0.018252
    89  H    0.033658
    90  H    0.020843
    91  H    0.002712
    92  H    0.017193
    93  H    0.015129
    94  H    0.012309
    95  H    0.033057
    96  H    0.026002
    97  H    0.035282
    98  H    0.030637
    99  H    0.065525
   100  H    0.044525
   101  H    0.039476
   102  H    0.031426
   103  H    0.025032
   104  H    0.004468
   105  H    0.046771
   106  H   -0.000719
   107  H    0.016200
   108  H   -0.007561
   109  H   -0.017212
   110  H   -0.004733
   111  H   -0.009394
   112  H    0.010943
   113  H   -0.005163
   114  H    0.006673
   115  H    0.004976
   116  H    0.002783
   117  H    0.014735
   118  H   -0.006785
   119  H   -0.003734
   120  H   -0.003084
   121  H   -0.006249
   122  H   -0.003657
   123  H   -0.021665
   124  H   -0.009894
   125  H    0.008076
   126  H    0.014511
   127  H    0.000030
   128  H   -0.010954
   129  H   -0.020811
   130  H   -0.014526
   131  H    0.000871
   132  H   -0.013648
   133  H   -0.013450
   134  H   -0.001739
   135  H    0.014659
   136  H    0.000081
   137  H    0.005141
   138  H    0.006325
   139  H    0.012813
   140  H    0.007873
 Sum of Mulliken charges =  -0.00000

 Dipole moment (field-independent basis, Debye):
    X=             -1.3978    Y=             -1.5266    Z=              1.8854  Tot=              2.7998
 Quadrupole moment (field-independent basis, Debye-Ang):
   XX=           -363.8173   YY=           -428.3768   ZZ=           -401.6407
   XY=             14.8096   XZ=            -14.2967   YZ=            -29.3522

 Normal termination of Gaussian 16 at Wed May  4 10:06:54 2022.
