 Gaussian 16, Revision A.03,
 Gaussian 16:  ES64L-G16RevA.03 25-Dec-2016

 ---------------------------------
 #p PBE1PBE/Def2SVP td=(nstates=5)
 ---------------------------------

 -----------------------------------------------------
 step_1601_chromophore_5 TDDFT with PBE1PBE functional
 -----------------------------------------------------
 Symbolic Z-matrix:
 Charge =  0 Multiplicity = 1

                         Standard orientation:
 ---------------------------------------------------------------------
 Center     Atomic      Atomic             Coordinates (Angstroms)
 Number     Number       Type             X           Y           Z
 ---------------------------------------------------------------------
      1         12           0       -5.320617   -0.476030   -0.398958
      2          6           0       -3.957519    2.667994   -0.013958
      3          6           0       -3.336610   -1.020677   -3.118669
      4          6           0       -5.848153   -3.880028   -0.051049
      5          6           0       -6.990171   -0.008806    2.733176
      6          7           0       -3.762229    0.658357   -1.279070
      7          6           0       -3.395926    1.920116   -1.039270
      8          6           0       -2.281590    2.399200   -2.032438
      9          6           0       -2.388156    1.294594   -3.146991
     10          6           0       -3.191888    0.256847   -2.490575
     11          6           0       -2.995193    1.678551   -4.508663
     12          6           0       -0.892989    2.502140   -1.235939
     13          6           0        0.008214    3.726865   -1.638780
     14          6           0        1.495339    3.540729   -1.741194
     15          8           0        2.175089    4.232508   -2.408747
     16          8           0        2.034174    2.539051   -0.970099
     17          7           0       -4.831095   -2.173646   -1.563627
     18          6           0       -4.030056   -2.160657   -2.642382
     19          6           0       -3.857374   -3.547682   -3.062720
     20          6           0       -4.588843   -4.364166   -2.162633
     21          6           0       -5.182837   -3.436314   -1.241291
     22          6           0       -2.757186   -3.899167   -4.092092
     23          6           0       -4.737680   -5.915418   -2.384267
     24          8           0       -4.024679   -6.533954   -3.190811
     25          6           0       -5.694214   -6.734738   -1.609670
     26          7           0       -6.369229   -1.707092    1.051011
     27          6           0       -6.419836   -3.110334    0.964303
     28          6           0       -7.344614   -3.692430    2.065488
     29          6           0       -7.809740   -2.385251    2.889191
     30          6           0       -7.038777   -1.312701    2.209175
     31          6           0       -8.405811   -4.739203    1.655105
     32          6           0       -7.594677   -2.493888    4.422200
     33          6           0       -8.864608   -2.499325    5.240024
     34          7           0       -5.561817    1.044256    0.998387
     35          6           0       -6.289584    1.109431    2.168298
     36          6           0       -6.327940    2.497665    2.724371
     37          6           0       -5.321416    3.140206    1.947548
     38          6           0       -4.916150    2.199529    0.934089
     39          6           0       -7.080035    2.919952    3.958887
     40          6           0       -4.575300    4.340116    1.632395
     41          8           0       -4.477158    5.377883    2.210921
     42          6           0       -3.695662    4.070643    0.376092
     43          6           0       -4.274680    4.973972   -0.631151
     44          8           0       -5.220152    4.706230   -1.395894
     45          8           0       -3.658592    6.157027   -0.580438
     46          6           0       -4.340114    7.174223   -1.468365
     47          6           0        3.452587    2.493509   -0.781507
     48          6           0        3.873348    1.553287    0.289380
     49          6           0        5.156545    1.040493    0.438154
     50          6           0        6.389176    1.559034   -0.262943
     51          6           0        5.406757   -0.172168    1.269513
     52          6           0        5.420273   -1.539300    0.595276
     53          6           0        6.339257   -2.641691    1.126232
     54          6           0        7.654492   -2.740657    0.212344
     55          6           0        7.721420   -4.114353   -0.582177
     56          6           0        8.962334   -2.403917    1.009110
     57          6           0        9.832680   -1.379377    0.275764
     58          6           0       10.222408   -0.185721    1.146424
     59          6           0       11.014260    0.767976    0.281708
     60          6           0       10.151073    1.807402   -0.453520
     61          6           0       12.064529    1.528642    1.158655
     62          6           0       13.472592    1.076512    0.793969
     63          6           0       13.872217   -0.141021    1.616103
     64          6           0       14.089709   -1.438763    0.841646
     65          6           0       13.454497   -2.700966    1.537387
     66          6           0       15.597116   -1.694972    0.530569
     67          1           0       -2.830989   -1.163662   -4.076054
     68          1           0       -6.110616   -4.939360   -0.043418
     69          1           0       -7.611575    0.272725    3.586743
     70          1           0       -2.551887    3.386558   -2.407477
     71          1           0       -1.443583    0.789863   -3.349532
     72          1           0       -2.886053    2.747191   -4.693277
     73          1           0       -4.022720    1.328864   -4.607170
     74          1           0       -2.494970    1.108620   -5.291977
     75          1           0       -0.158544    1.705691   -1.355166
     76          1           0       -1.238148    2.768269   -0.236834
     77          1           0       -0.280364    4.663214   -1.161912
     78          1           0       -0.346902    3.894362   -2.655432
     79          1           0       -2.496307   -4.947592   -3.948990
     80          1           0       -1.857428   -3.340677   -3.832487
     81          1           0       -2.984668   -3.628182   -5.123609
     82          1           0       -6.682813   -6.276020   -1.619024
     83          1           0       -5.358927   -6.867302   -0.580749
     84          1           0       -5.778208   -7.706359   -2.096100
     85          1           0       -6.612703   -4.180336    2.709155
     86          1           0       -8.862854   -2.219380    2.665693
     87          1           0       -9.385623   -4.444797    2.030822
     88          1           0       -8.105690   -5.632146    2.202714
     89          1           0       -8.393609   -4.800369    0.566171
     90          1           0       -6.903997   -1.750004    4.819879
     91          1           0       -7.207594   -3.492240    4.628653
     92          1           0       -9.128880   -3.532952    5.464813
     93          1           0       -9.695406   -1.974251    4.768901
     94          1           0       -8.605958   -1.985838    6.165245
     95          1           0       -6.712856    2.457627    4.875154
     96          1           0       -8.151448    2.719530    3.922452
     97          1           0       -6.896668    3.990785    4.038300
     98          1           0       -2.630396    4.293014    0.437415
     99          1           0       -5.399258    7.151617   -1.211390
    100          1           0       -4.046343    7.035247   -2.507968
    101          1           0       -3.760507    8.011257   -1.080828
    102          1           0        3.774891    3.510151   -0.558147
    103          1           0        3.887036    2.134515   -1.714547
    104          1           0        3.028526    1.212830    0.887493
    105          1           0        7.248517    1.739561    0.382864
    106          1           0        6.160084    2.410195   -0.904945
    107          1           0        6.563112    0.844459   -1.066379
    108          1           0        4.639483   -0.129372    2.042502
    109          1           0        6.280362    0.027690    1.890503
    110          1           0        5.561868   -1.490461   -0.484787
    111          1           0        4.363193   -1.792821    0.679406
    112          1           0        5.778649   -3.570809    1.228048
    113          1           0        6.686425   -2.223719    2.071329
    114          1           0        7.577538   -2.039116   -0.618330
    115          1           0        7.320065   -3.896533   -1.571178
    116          1           0        7.019190   -4.830390   -0.153805
    117          1           0        8.724409   -4.542002   -0.605590
    118          1           0        9.641690   -3.253261    1.081719
    119          1           0        8.672338   -2.072178    2.006085
    120          1           0        9.339082   -0.952467   -0.596937
    121          1           0       10.794231   -1.802166   -0.016590
    122          1           0       10.722854   -0.488409    2.066917
    123          1           0        9.312089    0.325410    1.456690
    124          1           0       11.545005    0.139138   -0.431748
    125          1           0       10.731862    2.145213   -1.310912
    126          1           0        9.922802    2.628611    0.225494
    127          1           0        9.222252    1.366843   -0.816316
    128          1           0       11.739054    1.346293    2.182957
    129          1           0       11.968905    2.606053    1.030405
    130          1           0       14.141912    1.906261    1.021363
    131          1           0       13.585456    0.932013   -0.281186
    132          1           0       13.198929   -0.359869    2.444653
    133          1           0       14.793917    0.133674    2.129612
    134          1           0       13.565766   -1.422983   -0.113515
    135          1           0       12.758175   -3.153241    0.832191
    136          1           0       12.885459   -2.428608    2.427045
    137          1           0       14.202743   -3.417931    1.876339
    138          1           0       15.834433   -0.872941   -0.145530
    139          1           0       15.769226   -2.687472    0.114355
    140          1           0       16.208546   -1.611483    1.428908
 ---------------------------------------------------------------------

 SCF Done:  E(RPBE1PBE) =  -3005.36561816     A.U. after   15 cycles

 Excitation energies and oscillator strengths:

 Excited State   1:      Singlet-A      1.7943 eV  690.99 nm  f=0.3681  <S**2>=0.000
     245 -> 248       -0.16009
     246 -> 247        0.69793
     246 <- 247       -0.12003
 This state for optimization and/or second-order correction.
 Total Energy, E(TD-HF/TD-DFT) =  -3005.29967869
 Copying the excited state density for this state as the 1-particle RhoCI density.

 Excited State   2:      Singlet-A      2.2376 eV  554.10 nm  f=0.1044  <S**2>=0.000
     245 -> 247        0.64896
     246 -> 248        0.26934

 Excited State   3:      Singlet-A      3.0378 eV  408.13 nm  f=0.0030  <S**2>=0.000
     240 -> 247       -0.10963
     241 -> 247       -0.24030
     242 -> 247        0.37815
     243 -> 247        0.50913

 Excited State   4:      Singlet-A      3.0667 eV  404.29 nm  f=0.0002  <S**2>=0.000
     240 -> 247        0.13995
     241 -> 247        0.26166
     242 -> 247       -0.37441
     243 -> 247        0.47712
     246 -> 248       -0.12752

 Excited State   5:      Singlet-A      3.1725 eV  390.81 nm  f=0.0002  <S**2>=0.000
     241 -> 247        0.55427
     241 -> 249        0.10661
     241 -> 250       -0.10767
     242 -> 247        0.37813

 The electronic state is 1-A.
 Alpha  occ. eigenvalues --  -46.92114 -19.25945 -19.25129 -19.19858 -19.19374
 Alpha  occ. eigenvalues --  -19.19199 -19.19109 -14.42049 -14.41664 -14.39062
 Alpha  occ. eigenvalues --  -14.39026 -10.36240 -10.35671 -10.32759 -10.32189
 Alpha  occ. eigenvalues --  -10.29288 -10.29026 -10.29006 -10.28900 -10.28711
 Alpha  occ. eigenvalues --  -10.28609 -10.27891 -10.27798 -10.26993 -10.26922
 Alpha  occ. eigenvalues --  -10.26776 -10.26595 -10.25917 -10.25700 -10.25677
 Alpha  occ. eigenvalues --  -10.25296 -10.25291 -10.25289 -10.25116 -10.25043
 Alpha  occ. eigenvalues --  -10.25002 -10.24925 -10.24542 -10.24441 -10.24417
 Alpha  occ. eigenvalues --  -10.24278 -10.24083 -10.24022 -10.23872 -10.23740
 Alpha  occ. eigenvalues --  -10.23715 -10.23668 -10.23476 -10.23249 -10.23247
 Alpha  occ. eigenvalues --  -10.23013 -10.22890 -10.22757 -10.22596 -10.22428
 Alpha  occ. eigenvalues --  -10.22393 -10.22124 -10.22091 -10.21974 -10.21969
 Alpha  occ. eigenvalues --  -10.21923 -10.21876 -10.21779 -10.21672 -10.21643
 Alpha  occ. eigenvalues --  -10.21620  -3.14235  -1.87071  -1.86589  -1.86479
 Alpha  occ. eigenvalues --   -1.12591  -1.11500  -1.06451  -1.04166  -1.03863
 Alpha  occ. eigenvalues --   -1.01343  -0.99304  -0.98510  -0.98062  -0.96179
 Alpha  occ. eigenvalues --   -0.87483  -0.84791  -0.84452  -0.83865  -0.83453
 Alpha  occ. eigenvalues --   -0.82813  -0.82501  -0.82089  -0.81388  -0.80986
 Alpha  occ. eigenvalues --   -0.80128  -0.79596  -0.78842  -0.78308  -0.77915
 Alpha  occ. eigenvalues --   -0.76946  -0.76571  -0.75782  -0.75208  -0.75049
 Alpha  occ. eigenvalues --   -0.74054  -0.72927  -0.72414  -0.71516  -0.70518
 Alpha  occ. eigenvalues --   -0.70232  -0.69308  -0.69286  -0.68975  -0.68310
 Alpha  occ. eigenvalues --   -0.67438  -0.66963  -0.66212  -0.64821  -0.63019
 Alpha  occ. eigenvalues --   -0.62940  -0.62809  -0.61210  -0.61054  -0.60017
 Alpha  occ. eigenvalues --   -0.59848  -0.59097  -0.59009  -0.58952  -0.58284
 Alpha  occ. eigenvalues --   -0.58049  -0.57421  -0.56754  -0.56341  -0.54842
 Alpha  occ. eigenvalues --   -0.54406  -0.54215  -0.53865  -0.53137  -0.52846
 Alpha  occ. eigenvalues --   -0.52312  -0.52049  -0.51105  -0.50866  -0.50693
 Alpha  occ. eigenvalues --   -0.50259  -0.49240  -0.48957  -0.48760  -0.48380
 Alpha  occ. eigenvalues --   -0.48073  -0.48046  -0.47824  -0.47668  -0.47432
 Alpha  occ. eigenvalues --   -0.47268  -0.47203  -0.46907  -0.46580  -0.46434
 Alpha  occ. eigenvalues --   -0.46359  -0.45980  -0.45941  -0.45345  -0.45274
 Alpha  occ. eigenvalues --   -0.45003  -0.44811  -0.44492  -0.44337  -0.44270
 Alpha  occ. eigenvalues --   -0.44188  -0.43940  -0.43757  -0.43644  -0.43418
 Alpha  occ. eigenvalues --   -0.43371  -0.43254  -0.43114  -0.43012  -0.42898
 Alpha  occ. eigenvalues --   -0.42544  -0.42223  -0.42021  -0.41543  -0.41383
 Alpha  occ. eigenvalues --   -0.41150  -0.41050  -0.40694  -0.40548  -0.40472
 Alpha  occ. eigenvalues --   -0.40305  -0.39927  -0.39890  -0.39776  -0.39670
 Alpha  occ. eigenvalues --   -0.39427  -0.39319  -0.39261  -0.39172  -0.38805
 Alpha  occ. eigenvalues --   -0.38643  -0.38520  -0.38192  -0.38138  -0.37825
 Alpha  occ. eigenvalues --   -0.37759  -0.37710  -0.37386  -0.37312  -0.37256
 Alpha  occ. eigenvalues --   -0.37016  -0.36526  -0.36479  -0.36266  -0.35829
 Alpha  occ. eigenvalues --   -0.35804  -0.35750  -0.35656  -0.35356  -0.35069
 Alpha  occ. eigenvalues --   -0.34876  -0.34084  -0.33871  -0.33644  -0.33458
 Alpha  occ. eigenvalues --   -0.33121  -0.32969  -0.32657  -0.32537  -0.32419
 Alpha  occ. eigenvalues --   -0.32271  -0.32217  -0.31866  -0.31837  -0.31705
 Alpha  occ. eigenvalues --   -0.31543  -0.30287  -0.29930  -0.29846  -0.29006
 Alpha  occ. eigenvalues --   -0.28620  -0.28446  -0.28347  -0.26731  -0.26122
 Alpha  occ. eigenvalues --   -0.25794  -0.25730  -0.25308  -0.24194  -0.21013
 Alpha  occ. eigenvalues --   -0.18460
 Alpha virt. eigenvalues --   -0.11182  -0.04938  -0.03834  -0.02526  -0.00371
 Alpha virt. eigenvalues --    0.00048   0.00746   0.00993   0.01500   0.03036
 Alpha virt. eigenvalues --    0.04008   0.04232   0.04769   0.04998   0.05448

 Mulliken charges:
               1
     1  Mg   0.992521
     2  C    0.026282
     3  C   -0.075355
     4  C   -0.072633
     5  C   -0.072438
     6  N   -0.410671
     7  C    0.014785
     8  C   -0.078847
     9  C   -0.117368
    10  C    0.091010
    11  C    0.024230
    12  C    0.046521
    13  C   -0.081851
    14  C    0.218816
    15  O   -0.222999
    16  O   -0.382968
    17  N   -0.460649
    18  C    0.136739
    19  C   -0.155577
    20  C   -0.123825
    21  C    0.162100
    22  C    0.039911
    23  C    0.076383
    24  O   -0.248924
    25  C   -0.019269
    26  N   -0.420847
    27  C    0.071854
    28  C   -0.119055
    29  C   -0.082168
    30  C    0.095754
    31  C    0.027400
    32  C   -0.031061
    33  C   -0.073990
    34  N   -0.438847
    35  C    0.100656
    36  C   -0.180597
    37  C    0.004303
    38  C    0.102281
    39  C    0.048252
    40  C    0.104715
    41  O   -0.177243
    42  C   -0.140838
    43  C    0.262267
    44  O   -0.294656
    45  O   -0.346360
    46  C    0.126087
    47  C    0.240308
    48  C   -0.127824
    49  C   -0.245527
    50  C    0.020930
    51  C    0.020109
    52  C   -0.043657
    53  C    0.022584
    54  C   -0.243267
    55  C   -0.013734
    56  C    0.060331
    57  C   -0.098924
    58  C   -0.021496
    59  C   -0.241200
    60  C   -0.000421
    61  C    0.007237
    62  C   -0.030864
    63  C    0.025869
    64  C   -0.260319
    65  C   -0.033466
    66  C   -0.015911
    67  H    0.008022
    68  H   -0.023557
    69  H    0.003104
    70  H    0.048618
    71  H    0.049381
    72  H    0.052084
    73  H    0.053741
    74  H    0.040357
    75  H    0.063969
    76  H    0.050213
    77  H    0.080389
    78  H    0.056618
    79  H    0.067224
    80  H    0.039467
    81  H    0.049612
    82  H    0.059005
    83  H    0.081484
    84  H    0.057586
    85  H    0.050328
    86  H    0.053034
    87  H    0.042051
    88  H    0.045419
    89  H    0.061022
    90  H    0.052011
    91  H    0.036396
    92  H    0.044858
    93  H    0.041885
    94  H    0.040473
    95  H    0.060322
    96  H    0.052799
    97  H    0.064035
    98  H    0.067990
    99  H    0.086594
   100  H    0.066315
   101  H    0.060770
   102  H    0.057648
   103  H    0.051891
   104  H    0.034247
   105  H    0.075059
   106  H    0.027122
   107  H    0.043713
   108  H    0.025280
   109  H    0.016107
   110  H    0.027988
   111  H    0.024554
   112  H    0.041763
   113  H    0.029029
   114  H    0.043766
   115  H    0.032339
   116  H    0.029948
   117  H    0.041344
   118  H    0.026532
   119  H    0.027209
   120  H    0.030298
   121  H    0.031478
   122  H    0.028487
   123  H    0.015994
   124  H    0.027855
   125  H    0.037621
   126  H    0.041468
   127  H    0.032244
   128  H    0.022018
   129  H    0.011962
   130  H    0.019486
   131  H    0.032566
   132  H    0.016656
   133  H    0.019378
   134  H    0.036110
   135  H    0.041464
   136  H    0.026925
   137  H    0.032470
   138  H    0.035812
   139  H    0.040403
   140  H    0.035558
 Sum of Mulliken charges =  -0.00000

 Dipole moment (field-independent basis, Debye):
    X=             -1.4399    Y=             -1.6219    Z=              1.9176  Tot=              2.8950
 Quadrupole moment (field-independent basis, Debye-Ang):
   XX=           -359.3213   YY=           -425.7862   ZZ=           -397.7529
   XY=             15.7194   XZ=            -15.9296   YZ=            -30.0031

 Normal termination of Gaussian 16 at Wed May  4 10:27:33 2022.
