 Gaussian 16, Revision A.03,
 Gaussian 16:  ES64L-G16RevA.03 25-Dec-2016

 --------------------------------
 #p wB97XD/Def2SVP td=(nstates=5)
 --------------------------------

 ----------------------------------------------------
 step_1601_chromophore_5 TDDFT with wB97XD functional
 ----------------------------------------------------
 Symbolic Z-matrix:
 Charge =  0 Multiplicity = 1

                         Standard orientation:
 ---------------------------------------------------------------------
 Center     Atomic      Atomic             Coordinates (Angstroms)
 Number     Number       Type             X           Y           Z
 ---------------------------------------------------------------------
      1         12           0       -5.320617   -0.476030   -0.398958
      2          6           0       -3.957519    2.667994   -0.013958
      3          6           0       -3.336610   -1.020677   -3.118669
      4          6           0       -5.848153   -3.880028   -0.051049
      5          6           0       -6.990171   -0.008806    2.733176
      6          7           0       -3.762229    0.658357   -1.279070
      7          6           0       -3.395926    1.920116   -1.039270
      8          6           0       -2.281590    2.399200   -2.032438
      9          6           0       -2.388156    1.294594   -3.146991
     10          6           0       -3.191888    0.256847   -2.490575
     11          6           0       -2.995193    1.678551   -4.508663
     12          6           0       -0.892989    2.502140   -1.235939
     13          6           0        0.008214    3.726865   -1.638780
     14          6           0        1.495339    3.540729   -1.741194
     15          8           0        2.175089    4.232508   -2.408747
     16          8           0        2.034174    2.539051   -0.970099
     17          7           0       -4.831095   -2.173646   -1.563627
     18          6           0       -4.030056   -2.160657   -2.642382
     19          6           0       -3.857374   -3.547682   -3.062720
     20          6           0       -4.588843   -4.364166   -2.162633
     21          6           0       -5.182837   -3.436314   -1.241291
     22          6           0       -2.757186   -3.899167   -4.092092
     23          6           0       -4.737680   -5.915418   -2.384267
     24          8           0       -4.024679   -6.533954   -3.190811
     25          6           0       -5.694214   -6.734738   -1.609670
     26          7           0       -6.369229   -1.707092    1.051011
     27          6           0       -6.419836   -3.110334    0.964303
     28          6           0       -7.344614   -3.692430    2.065488
     29          6           0       -7.809740   -2.385251    2.889191
     30          6           0       -7.038777   -1.312701    2.209175
     31          6           0       -8.405811   -4.739203    1.655105
     32          6           0       -7.594677   -2.493888    4.422200
     33          6           0       -8.864608   -2.499325    5.240024
     34          7           0       -5.561817    1.044256    0.998387
     35          6           0       -6.289584    1.109431    2.168298
     36          6           0       -6.327940    2.497665    2.724371
     37          6           0       -5.321416    3.140206    1.947548
     38          6           0       -4.916150    2.199529    0.934089
     39          6           0       -7.080035    2.919952    3.958887
     40          6           0       -4.575300    4.340116    1.632395
     41          8           0       -4.477158    5.377883    2.210921
     42          6           0       -3.695662    4.070643    0.376092
     43          6           0       -4.274680    4.973972   -0.631151
     44          8           0       -5.220152    4.706230   -1.395894
     45          8           0       -3.658592    6.157027   -0.580438
     46          6           0       -4.340114    7.174223   -1.468365
     47          6           0        3.452587    2.493509   -0.781507
     48          6           0        3.873348    1.553287    0.289380
     49          6           0        5.156545    1.040493    0.438154
     50          6           0        6.389176    1.559034   -0.262943
     51          6           0        5.406757   -0.172168    1.269513
     52          6           0        5.420273   -1.539300    0.595276
     53          6           0        6.339257   -2.641691    1.126232
     54          6           0        7.654492   -2.740657    0.212344
     55          6           0        7.721420   -4.114353   -0.582177
     56          6           0        8.962334   -2.403917    1.009110
     57          6           0        9.832680   -1.379377    0.275764
     58          6           0       10.222408   -0.185721    1.146424
     59          6           0       11.014260    0.767976    0.281708
     60          6           0       10.151073    1.807402   -0.453520
     61          6           0       12.064529    1.528642    1.158655
     62          6           0       13.472592    1.076512    0.793969
     63          6           0       13.872217   -0.141021    1.616103
     64          6           0       14.089709   -1.438763    0.841646
     65          6           0       13.454497   -2.700966    1.537387
     66          6           0       15.597116   -1.694972    0.530569
     67          1           0       -2.830989   -1.163662   -4.076054
     68          1           0       -6.110616   -4.939360   -0.043418
     69          1           0       -7.611575    0.272725    3.586743
     70          1           0       -2.551887    3.386558   -2.407477
     71          1           0       -1.443583    0.789863   -3.349532
     72          1           0       -2.886053    2.747191   -4.693277
     73          1           0       -4.022720    1.328864   -4.607170
     74          1           0       -2.494970    1.108620   -5.291977
     75          1           0       -0.158544    1.705691   -1.355166
     76          1           0       -1.238148    2.768269   -0.236834
     77          1           0       -0.280364    4.663214   -1.161912
     78          1           0       -0.346902    3.894362   -2.655432
     79          1           0       -2.496307   -4.947592   -3.948990
     80          1           0       -1.857428   -3.340677   -3.832487
     81          1           0       -2.984668   -3.628182   -5.123609
     82          1           0       -6.682813   -6.276020   -1.619024
     83          1           0       -5.358927   -6.867302   -0.580749
     84          1           0       -5.778208   -7.706359   -2.096100
     85          1           0       -6.612703   -4.180336    2.709155
     86          1           0       -8.862854   -2.219380    2.665693
     87          1           0       -9.385623   -4.444797    2.030822
     88          1           0       -8.105690   -5.632146    2.202714
     89          1           0       -8.393609   -4.800369    0.566171
     90          1           0       -6.903997   -1.750004    4.819879
     91          1           0       -7.207594   -3.492240    4.628653
     92          1           0       -9.128880   -3.532952    5.464813
     93          1           0       -9.695406   -1.974251    4.768901
     94          1           0       -8.605958   -1.985838    6.165245
     95          1           0       -6.712856    2.457627    4.875154
     96          1           0       -8.151448    2.719530    3.922452
     97          1           0       -6.896668    3.990785    4.038300
     98          1           0       -2.630396    4.293014    0.437415
     99          1           0       -5.399258    7.151617   -1.211390
    100          1           0       -4.046343    7.035247   -2.507968
    101          1           0       -3.760507    8.011257   -1.080828
    102          1           0        3.774891    3.510151   -0.558147
    103          1           0        3.887036    2.134515   -1.714547
    104          1           0        3.028526    1.212830    0.887493
    105          1           0        7.248517    1.739561    0.382864
    106          1           0        6.160084    2.410195   -0.904945
    107          1           0        6.563112    0.844459   -1.066379
    108          1           0        4.639483   -0.129372    2.042502
    109          1           0        6.280362    0.027690    1.890503
    110          1           0        5.561868   -1.490461   -0.484787
    111          1           0        4.363193   -1.792821    0.679406
    112          1           0        5.778649   -3.570809    1.228048
    113          1           0        6.686425   -2.223719    2.071329
    114          1           0        7.577538   -2.039116   -0.618330
    115          1           0        7.320065   -3.896533   -1.571178
    116          1           0        7.019190   -4.830390   -0.153805
    117          1           0        8.724409   -4.542002   -0.605590
    118          1           0        9.641690   -3.253261    1.081719
    119          1           0        8.672338   -2.072178    2.006085
    120          1           0        9.339082   -0.952467   -0.596937
    121          1           0       10.794231   -1.802166   -0.016590
    122          1           0       10.722854   -0.488409    2.066917
    123          1           0        9.312089    0.325410    1.456690
    124          1           0       11.545005    0.139138   -0.431748
    125          1           0       10.731862    2.145213   -1.310912
    126          1           0        9.922802    2.628611    0.225494
    127          1           0        9.222252    1.366843   -0.816316
    128          1           0       11.739054    1.346293    2.182957
    129          1           0       11.968905    2.606053    1.030405
    130          1           0       14.141912    1.906261    1.021363
    131          1           0       13.585456    0.932013   -0.281186
    132          1           0       13.198929   -0.359869    2.444653
    133          1           0       14.793917    0.133674    2.129612
    134          1           0       13.565766   -1.422983   -0.113515
    135          1           0       12.758175   -3.153241    0.832191
    136          1           0       12.885459   -2.428608    2.427045
    137          1           0       14.202743   -3.417931    1.876339
    138          1           0       15.834433   -0.872941   -0.145530
    139          1           0       15.769226   -2.687472    0.114355
    140          1           0       16.208546   -1.611483    1.428908
 ---------------------------------------------------------------------

 SCF Done:  E(RwB97XD) =  -3007.87588820     A.U. after   17 cycles

 Excitation energies and oscillator strengths:

 Excited State   1:      Singlet-A      1.5667 eV  791.37 nm  f=0.3775  <S**2>=0.000
     245 -> 248        0.17465
     246 -> 247        0.68700
     245 <- 248        0.11905
 This state for optimization and/or second-order correction.
 Total Energy, E(TD-HF/TD-DFT) =  -3007.81831289
 Copying the excited state density for this state as the 1-particle RhoCI density.

 Excited State   2:      Singlet-A      2.1710 eV  571.08 nm  f=0.1054  <S**2>=0.000
     245 -> 247        0.63643
     246 -> 248       -0.29781

 Excited State   3:      Singlet-A      3.4361 eV  360.82 nm  f=0.0008  <S**2>=0.000
     242 -> 247       -0.16340
     243 -> 247        0.66510

 Excited State   4:      Singlet-A      3.4871 eV  355.55 nm  f=0.2572  <S**2>=0.000
     240 -> 247        0.13692
     240 -> 249       -0.10999
     242 -> 247        0.41046
     243 -> 247        0.10372
     245 -> 247        0.17873
     246 -> 248        0.45725

 Excited State   5:      Singlet-A      3.6325 eV  341.32 nm  f=0.3246  <S**2>=0.000
     239 -> 247       -0.23467
     239 -> 249        0.13032
     240 -> 247        0.40250
     240 -> 249       -0.22327
     240 -> 250       -0.12339
     245 -> 247       -0.18051
     246 -> 248       -0.35422

 The electronic state is 1-A.
 Alpha  occ. eigenvalues --  -46.95052 -19.30550 -19.29678 -19.24545 -19.24096
 Alpha  occ. eigenvalues --  -19.24087 -19.23897 -14.47183 -14.46698 -14.44028
 Alpha  occ. eigenvalues --  -14.43976 -10.43015 -10.42522 -10.39564 -10.39099
 Alpha  occ. eigenvalues --  -10.35846 -10.35511 -10.35296 -10.35212 -10.34984
 Alpha  occ. eigenvalues --  -10.34860 -10.34290 -10.34067 -10.33267 -10.33254
 Alpha  occ. eigenvalues --  -10.33232 -10.32879 -10.32105 -10.31946 -10.31857
 Alpha  occ. eigenvalues --  -10.31752 -10.31729 -10.31658 -10.31519 -10.31456
 Alpha  occ. eigenvalues --  -10.31408 -10.31274 -10.30912 -10.30810 -10.30764
 Alpha  occ. eigenvalues --  -10.30658 -10.30548 -10.30305 -10.30255 -10.30069
 Alpha  occ. eigenvalues --  -10.30068 -10.30019 -10.29999 -10.29730 -10.29531
 Alpha  occ. eigenvalues --  -10.29385 -10.29241 -10.29160 -10.28971 -10.28904
 Alpha  occ. eigenvalues --  -10.28670 -10.28490 -10.28452 -10.28388 -10.28380
 Alpha  occ. eigenvalues --  -10.28358 -10.28315 -10.28150 -10.28091 -10.28005
 Alpha  occ. eigenvalues --  -10.27983  -3.21033  -1.94619  -1.94137  -1.94024
 Alpha  occ. eigenvalues --   -1.19936  -1.18941  -1.13974  -1.11482  -1.11341
 Alpha  occ. eigenvalues --   -1.08766  -1.06697  -1.05857  -1.05431  -1.03572
 Alpha  occ. eigenvalues --   -0.95135  -0.92470  -0.92125  -0.91477  -0.91028
 Alpha  occ. eigenvalues --   -0.90443  -0.90157  -0.89693  -0.89049  -0.88615
 Alpha  occ. eigenvalues --   -0.87759  -0.87248  -0.86498  -0.85918  -0.85573
 Alpha  occ. eigenvalues --   -0.84596  -0.84290  -0.83446  -0.82844  -0.82666
 Alpha  occ. eigenvalues --   -0.81732  -0.80566  -0.79998  -0.79150  -0.78160
 Alpha  occ. eigenvalues --   -0.77917  -0.77018  -0.76880  -0.76656  -0.75975
 Alpha  occ. eigenvalues --   -0.75006  -0.74525  -0.73770  -0.72421  -0.70568
 Alpha  occ. eigenvalues --   -0.70557  -0.70369  -0.68783  -0.68682  -0.67505
 Alpha  occ. eigenvalues --   -0.67354  -0.66601  -0.66555  -0.66435  -0.65957
 Alpha  occ. eigenvalues --   -0.65560  -0.65086  -0.64380  -0.63792  -0.62366
 Alpha  occ. eigenvalues --   -0.61843  -0.61689  -0.61281  -0.60547  -0.60413
 Alpha  occ. eigenvalues --   -0.59740  -0.59543  -0.58561  -0.58286  -0.58058
 Alpha  occ. eigenvalues --   -0.57649  -0.56635  -0.56354  -0.56262  -0.55750
 Alpha  occ. eigenvalues --   -0.55440  -0.55434  -0.55155  -0.55031  -0.54812
 Alpha  occ. eigenvalues --   -0.54677  -0.54487  -0.54286  -0.53998  -0.53941
 Alpha  occ. eigenvalues --   -0.53731  -0.53358  -0.53349  -0.52675  -0.52611
 Alpha  occ. eigenvalues --   -0.52345  -0.52086  -0.51813  -0.51667  -0.51653
 Alpha  occ. eigenvalues --   -0.51522  -0.51242  -0.51140  -0.50904  -0.50729
 Alpha  occ. eigenvalues --   -0.50701  -0.50573  -0.50423  -0.50263  -0.50157
 Alpha  occ. eigenvalues --   -0.49826  -0.49425  -0.49304  -0.48768  -0.48590
 Alpha  occ. eigenvalues --   -0.48456  -0.48183  -0.47895  -0.47851  -0.47706
 Alpha  occ. eigenvalues --   -0.47527  -0.47184  -0.47028  -0.46959  -0.46866
 Alpha  occ. eigenvalues --   -0.46611  -0.46540  -0.46395  -0.46353  -0.45912
 Alpha  occ. eigenvalues --   -0.45810  -0.45725  -0.45327  -0.45251  -0.44937
 Alpha  occ. eigenvalues --   -0.44893  -0.44803  -0.44514  -0.44424  -0.44383
 Alpha  occ. eigenvalues --   -0.44035  -0.43676  -0.43626  -0.43337  -0.42942
 Alpha  occ. eigenvalues --   -0.42908  -0.42745  -0.42706  -0.42390  -0.42057
 Alpha  occ. eigenvalues --   -0.41865  -0.41154  -0.40888  -0.40723  -0.40367
 Alpha  occ. eigenvalues --   -0.40167  -0.39996  -0.39698  -0.39481  -0.39455
 Alpha  occ. eigenvalues --   -0.39256  -0.39167  -0.38987  -0.38897  -0.38658
 Alpha  occ. eigenvalues --   -0.38617  -0.37264  -0.36784  -0.36744  -0.36082
 Alpha  occ. eigenvalues --   -0.35832  -0.35325  -0.34978  -0.33339  -0.32978
 Alpha  occ. eigenvalues --   -0.32939  -0.32491  -0.31928  -0.30917  -0.26020
 Alpha  occ. eigenvalues --   -0.22578
 Alpha virt. eigenvalues --   -0.07103   0.00505   0.02447   0.04018   0.05626
 Alpha virt. eigenvalues --    0.06694   0.07411   0.07880   0.08253   0.09625
 Alpha virt. eigenvalues --    0.10554   0.10915   0.11297   0.11725   0.12087

 Mulliken charges:
               1
     1  Mg   0.983783
     2  C    0.033459
     3  C   -0.092729
     4  C   -0.083732
     5  C   -0.091798
     6  N   -0.375572
     7  C   -0.019179
     8  C   -0.056228
     9  C   -0.093111
    10  C    0.080364
    11  C    0.033317
    12  C    0.060593
    13  C   -0.066571
    14  C    0.210603
    15  O   -0.221194
    16  O   -0.380406
    17  N   -0.423947
    18  C    0.125398
    19  C   -0.150774
    20  C   -0.120276
    21  C    0.157974
    22  C    0.055430
    23  C    0.071911
    24  O   -0.244403
    25  C   -0.004349
    26  N   -0.392068
    27  C    0.062071
    28  C   -0.095062
    29  C   -0.057322
    30  C    0.084203
    31  C    0.041307
    32  C   -0.014719
    33  C   -0.058898
    34  N   -0.402030
    35  C    0.098308
    36  C   -0.184809
    37  C    0.007474
    38  C    0.079221
    39  C    0.059183
    40  C    0.088443
    41  O   -0.168239
    42  C   -0.094713
    43  C    0.238841
    44  O   -0.290857
    45  O   -0.346255
    46  C    0.141252
    47  C    0.250932
    48  C   -0.137703
    49  C   -0.228900
    50  C    0.038448
    51  C    0.039235
    52  C   -0.027484
    53  C    0.041344
    54  C   -0.213375
    55  C   -0.000878
    56  C    0.074307
    57  C   -0.064191
    58  C   -0.002452
    59  C   -0.209109
    60  C    0.019952
    61  C    0.022522
    62  C   -0.010658
    63  C    0.037834
    64  C   -0.230313
    65  C   -0.020430
    66  C   -0.001033
    67  H    0.003049
    68  H   -0.041043
    69  H   -0.003917
    70  H    0.034471
    71  H    0.039854
    72  H    0.047187
    73  H    0.047107
    74  H    0.034966
    75  H    0.057724
    76  H    0.036251
    77  H    0.076034
    78  H    0.047914
    79  H    0.062938
    80  H    0.032816
    81  H    0.045200
    82  H    0.052155
    83  H    0.077336
    84  H    0.056365
    85  H    0.037341
    86  H    0.040233
    87  H    0.036543
    88  H    0.040509
    89  H    0.053436
    90  H    0.044294
    91  H    0.027205
    92  H    0.038907
    93  H    0.035457
    94  H    0.034981
    95  H    0.055849
    96  H    0.048221
    97  H    0.060073
    98  H    0.060238
    99  H    0.082942
   100  H    0.062791
   101  H    0.058181
   102  H    0.052832
   103  H    0.046109
   104  H    0.032244
   105  H    0.065952
   106  H    0.022088
   107  H    0.035628
   108  H    0.018196
   109  H    0.005164
   110  H    0.016817
   111  H    0.017073
   112  H    0.035870
   113  H    0.016312
   114  H    0.025035
   115  H    0.026788
   116  H    0.023065
   117  H    0.035741
   118  H    0.018263
   119  H    0.017120
   120  H    0.015263
   121  H    0.013722
   122  H    0.016228
   123  H    0.000428
   124  H    0.009014
   125  H    0.032203
   126  H    0.034667
   127  H    0.017576
   128  H    0.012107
   129  H    0.004454
   130  H    0.013020
   131  H    0.023103
   132  H    0.004430
   133  H    0.011635
   134  H    0.021863
   135  H    0.035074
   136  H    0.019743
   137  H    0.027449
   138  H    0.028355
   139  H    0.035151
   140  H    0.028674
 Sum of Mulliken charges =  -0.00000

 Dipole moment (field-independent basis, Debye):
    X=             -1.4554    Y=             -1.5746    Z=              1.8612  Tot=              2.8393
 Quadrupole moment (field-independent basis, Debye-Ang):
   XX=           -359.0501   YY=           -424.1607   ZZ=           -397.7636
   XY=             15.0762   XZ=            -15.0789   YZ=            -29.5786

 Normal termination of Gaussian 16 at Wed May  4 10:51:54 2022.
