 Gaussian 16, Revision A.03,
 Gaussian 16:  ES64L-G16RevA.03 25-Dec-2016

 --------------------
 #p ZINDO=(nstates=5)
 --------------------

 -----------------------------
 step_1601_chromophore_5 ZINDO
 -----------------------------
 Symbolic Z-matrix:
 Charge =  0 Multiplicity = 1

                         Standard orientation:
 ---------------------------------------------------------------------
 Center     Atomic      Atomic             Coordinates (Angstroms)
 Number     Number       Type             X           Y           Z
 ---------------------------------------------------------------------
      1         12           0       -5.320617   -0.476030   -0.398958
      2          6           0       -3.957519    2.667994   -0.013958
      3          6           0       -3.336610   -1.020677   -3.118669
      4          6           0       -5.848153   -3.880028   -0.051049
      5          6           0       -6.990171   -0.008806    2.733176
      6          7           0       -3.762229    0.658357   -1.279070
      7          6           0       -3.395926    1.920116   -1.039270
      8          6           0       -2.281590    2.399200   -2.032438
      9          6           0       -2.388156    1.294594   -3.146991
     10          6           0       -3.191888    0.256847   -2.490575
     11          6           0       -2.995193    1.678551   -4.508663
     12          6           0       -0.892989    2.502140   -1.235939
     13          6           0        0.008214    3.726865   -1.638780
     14          6           0        1.495339    3.540729   -1.741194
     15          8           0        2.175089    4.232508   -2.408747
     16          8           0        2.034174    2.539051   -0.970099
     17          7           0       -4.831095   -2.173646   -1.563627
     18          6           0       -4.030056   -2.160657   -2.642382
     19          6           0       -3.857374   -3.547682   -3.062720
     20          6           0       -4.588843   -4.364166   -2.162633
     21          6           0       -5.182837   -3.436314   -1.241291
     22          6           0       -2.757186   -3.899167   -4.092092
     23          6           0       -4.737680   -5.915418   -2.384267
     24          8           0       -4.024679   -6.533954   -3.190811
     25          6           0       -5.694214   -6.734738   -1.609670
     26          7           0       -6.369229   -1.707092    1.051011
     27          6           0       -6.419836   -3.110334    0.964303
     28          6           0       -7.344614   -3.692430    2.065488
     29          6           0       -7.809740   -2.385251    2.889191
     30          6           0       -7.038777   -1.312701    2.209175
     31          6           0       -8.405811   -4.739203    1.655105
     32          6           0       -7.594677   -2.493888    4.422200
     33          6           0       -8.864608   -2.499325    5.240024
     34          7           0       -5.561817    1.044256    0.998387
     35          6           0       -6.289584    1.109431    2.168298
     36          6           0       -6.327940    2.497665    2.724371
     37          6           0       -5.321416    3.140206    1.947548
     38          6           0       -4.916150    2.199529    0.934089
     39          6           0       -7.080035    2.919952    3.958887
     40          6           0       -4.575300    4.340116    1.632395
     41          8           0       -4.477158    5.377883    2.210921
     42          6           0       -3.695662    4.070643    0.376092
     43          6           0       -4.274680    4.973972   -0.631151
     44          8           0       -5.220152    4.706230   -1.395894
     45          8           0       -3.658592    6.157027   -0.580438
     46          6           0       -4.340114    7.174223   -1.468365
     47          6           0        3.452587    2.493509   -0.781507
     48          6           0        3.873348    1.553287    0.289380
     49          6           0        5.156545    1.040493    0.438154
     50          6           0        6.389176    1.559034   -0.262943
     51          6           0        5.406757   -0.172168    1.269513
     52          6           0        5.420273   -1.539300    0.595276
     53          6           0        6.339257   -2.641691    1.126232
     54          6           0        7.654492   -2.740657    0.212344
     55          6           0        7.721420   -4.114353   -0.582177
     56          6           0        8.962334   -2.403917    1.009110
     57          6           0        9.832680   -1.379377    0.275764
     58          6           0       10.222408   -0.185721    1.146424
     59          6           0       11.014260    0.767976    0.281708
     60          6           0       10.151073    1.807402   -0.453520
     61          6           0       12.064529    1.528642    1.158655
     62          6           0       13.472592    1.076512    0.793969
     63          6           0       13.872217   -0.141021    1.616103
     64          6           0       14.089709   -1.438763    0.841646
     65          6           0       13.454497   -2.700966    1.537387
     66          6           0       15.597116   -1.694972    0.530569
     67          1           0       -2.830989   -1.163662   -4.076054
     68          1           0       -6.110616   -4.939360   -0.043418
     69          1           0       -7.611575    0.272725    3.586743
     70          1           0       -2.551887    3.386558   -2.407477
     71          1           0       -1.443583    0.789863   -3.349532
     72          1           0       -2.886053    2.747191   -4.693277
     73          1           0       -4.022720    1.328864   -4.607170
     74          1           0       -2.494970    1.108620   -5.291977
     75          1           0       -0.158544    1.705691   -1.355166
     76          1           0       -1.238148    2.768269   -0.236834
     77          1           0       -0.280364    4.663214   -1.161912
     78          1           0       -0.346902    3.894362   -2.655432
     79          1           0       -2.496307   -4.947592   -3.948990
     80          1           0       -1.857428   -3.340677   -3.832487
     81          1           0       -2.984668   -3.628182   -5.123609
     82          1           0       -6.682813   -6.276020   -1.619024
     83          1           0       -5.358927   -6.867302   -0.580749
     84          1           0       -5.778208   -7.706359   -2.096100
     85          1           0       -6.612703   -4.180336    2.709155
     86          1           0       -8.862854   -2.219380    2.665693
     87          1           0       -9.385623   -4.444797    2.030822
     88          1           0       -8.105690   -5.632146    2.202714
     89          1           0       -8.393609   -4.800369    0.566171
     90          1           0       -6.903997   -1.750004    4.819879
     91          1           0       -7.207594   -3.492240    4.628653
     92          1           0       -9.128880   -3.532952    5.464813
     93          1           0       -9.695406   -1.974251    4.768901
     94          1           0       -8.605958   -1.985838    6.165245
     95          1           0       -6.712856    2.457627    4.875154
     96          1           0       -8.151448    2.719530    3.922452
     97          1           0       -6.896668    3.990785    4.038300
     98          1           0       -2.630396    4.293014    0.437415
     99          1           0       -5.399258    7.151617   -1.211390
    100          1           0       -4.046343    7.035247   -2.507968
    101          1           0       -3.760507    8.011257   -1.080828
    102          1           0        3.774891    3.510151   -0.558147
    103          1           0        3.887036    2.134515   -1.714547
    104          1           0        3.028526    1.212830    0.887493
    105          1           0        7.248517    1.739561    0.382864
    106          1           0        6.160084    2.410195   -0.904945
    107          1           0        6.563112    0.844459   -1.066379
    108          1           0        4.639483   -0.129372    2.042502
    109          1           0        6.280362    0.027690    1.890503
    110          1           0        5.561868   -1.490461   -0.484787
    111          1           0        4.363193   -1.792821    0.679406
    112          1           0        5.778649   -3.570809    1.228048
    113          1           0        6.686425   -2.223719    2.071329
    114          1           0        7.577538   -2.039116   -0.618330
    115          1           0        7.320065   -3.896533   -1.571178
    116          1           0        7.019190   -4.830390   -0.153805
    117          1           0        8.724409   -4.542002   -0.605590
    118          1           0        9.641690   -3.253261    1.081719
    119          1           0        8.672338   -2.072178    2.006085
    120          1           0        9.339082   -0.952467   -0.596937
    121          1           0       10.794231   -1.802166   -0.016590
    122          1           0       10.722854   -0.488409    2.066917
    123          1           0        9.312089    0.325410    1.456690
    124          1           0       11.545005    0.139138   -0.431748
    125          1           0       10.731862    2.145213   -1.310912
    126          1           0        9.922802    2.628611    0.225494
    127          1           0        9.222252    1.366843   -0.816316
    128          1           0       11.739054    1.346293    2.182957
    129          1           0       11.968905    2.606053    1.030405
    130          1           0       14.141912    1.906261    1.021363
    131          1           0       13.585456    0.932013   -0.281186
    132          1           0       13.198929   -0.359869    2.444653
    133          1           0       14.793917    0.133674    2.129612
    134          1           0       13.565766   -1.422983   -0.113515
    135          1           0       12.758175   -3.153241    0.832191
    136          1           0       12.885459   -2.428608    2.427045
    137          1           0       14.202743   -3.417931    1.876339
    138          1           0       15.834433   -0.872941   -0.145530
    139          1           0       15.769226   -2.687472    0.114355
    140          1           0       16.208546   -1.611483    1.428908
 ---------------------------------------------------------------------

 SCF Done:  E(RZINDO/S) =  -474.472142798     A.U. after   20 cycles

 Excitation energies and oscillator strengths:

 Excited State   1:      Singlet-A      1.1790 eV 1051.59 nm  f=0.6197  <S**2>=0.000
     175 ->178        -0.18420
     176 ->177         0.66458
 This state for optimization and/or second-order correction.
 Total Energy, E(CIS/TDA) =  -474.428814601
 Copying the excited state density for this state as the 1-particle RhoCI density.

 Excited State   2:      Singlet-A      1.8966 eV  653.73 nm  f=0.0367  <S**2>=0.000
     175 ->177         0.54506
     176 ->178         0.42573

 Excited State   3:      Singlet-A      2.8934 eV  428.51 nm  f=0.2524  <S**2>=0.000
     175 ->177         0.22092
     176 ->178        -0.33638
     176 ->179         0.53020
     176 ->184         0.10275

 Excited State   4:      Singlet-A      2.9493 eV  420.38 nm  f=0.0482  <S**2>=0.000
     168 ->179        -0.10485
     169 ->177         0.33019
     169 ->178         0.12159
     169 ->179        -0.40892
     169 ->180         0.16688
     169 ->186         0.11801
     169 ->187        -0.16823
     169 ->199         0.13143
     176 ->179        -0.16925

 Excited State   5:      Singlet-A      3.0033 eV  412.82 nm  f=0.0249  <S**2>=0.000
     168 ->177         0.21106
     168 ->178         0.12518
     168 ->179         0.27206
     168 ->180         0.43930
     168 ->184        -0.13930
     168 ->186        -0.24565
     169 ->180        -0.12394

 The electronic state is 1-A.
 Alpha  occ. eigenvalues --   -1.85117  -1.81792  -1.78496  -1.75422  -1.75001
 Alpha  occ. eigenvalues --   -1.70429  -1.68267  -1.60857  -1.60429  -1.58368
 Alpha  occ. eigenvalues --   -1.54732  -1.51843  -1.50797  -1.48565  -1.48161
 Alpha  occ. eigenvalues --   -1.45211  -1.42680  -1.40391  -1.39962  -1.38870
 Alpha  occ. eigenvalues --   -1.35894  -1.33889  -1.32723  -1.30688  -1.27870
 Alpha  occ. eigenvalues --   -1.27622  -1.26521  -1.22846  -1.20437  -1.18977
 Alpha  occ. eigenvalues --   -1.17921  -1.15928  -1.15489  -1.15081  -1.13047
 Alpha  occ. eigenvalues --   -1.13007  -1.10462  -1.09654  -1.04495  -1.03390
 Alpha  occ. eigenvalues --   -1.01811  -1.01397  -0.99521  -0.97793  -0.96875
 Alpha  occ. eigenvalues --   -0.95060  -0.94452  -0.93725  -0.93296  -0.92213
 Alpha  occ. eigenvalues --   -0.91305  -0.91159  -0.88086  -0.87965  -0.86348
 Alpha  occ. eigenvalues --   -0.85796  -0.84370  -0.83262  -0.81968  -0.80557
 Alpha  occ. eigenvalues --   -0.79185  -0.78412  -0.76732  -0.76480  -0.76270
 Alpha  occ. eigenvalues --   -0.75898  -0.75000  -0.73963  -0.73599  -0.73417
 Alpha  occ. eigenvalues --   -0.73080  -0.72518  -0.71571  -0.71150  -0.70913
 Alpha  occ. eigenvalues --   -0.70238  -0.69681  -0.69132  -0.68678  -0.68490
 Alpha  occ. eigenvalues --   -0.68163  -0.67480  -0.66323  -0.65686  -0.65586
 Alpha  occ. eigenvalues --   -0.65040  -0.64858  -0.64543  -0.64332  -0.64046
 Alpha  occ. eigenvalues --   -0.63576  -0.63461  -0.63252  -0.62511  -0.62357
 Alpha  occ. eigenvalues --   -0.61703  -0.61594  -0.61109  -0.60791  -0.60649
 Alpha  occ. eigenvalues --   -0.60468  -0.59444  -0.59059  -0.58366  -0.58246
 Alpha  occ. eigenvalues --   -0.58040  -0.57685  -0.57543  -0.57518  -0.56787
 Alpha  occ. eigenvalues --   -0.55904  -0.55530  -0.55374  -0.54786  -0.54298
 Alpha  occ. eigenvalues --   -0.54172  -0.53774  -0.53309  -0.53027  -0.52906
 Alpha  occ. eigenvalues --   -0.52645  -0.52523  -0.51966  -0.51807  -0.51329
 Alpha  occ. eigenvalues --   -0.51238  -0.51035  -0.50938  -0.50815  -0.50662
 Alpha  occ. eigenvalues --   -0.49970  -0.49901  -0.49631  -0.49454  -0.49325
 Alpha  occ. eigenvalues --   -0.48703  -0.48601  -0.48224  -0.47988  -0.47397
 Alpha  occ. eigenvalues --   -0.47283  -0.47109  -0.46920  -0.46614  -0.46098
 Alpha  occ. eigenvalues --   -0.46076  -0.45970  -0.45856  -0.45651  -0.45562
 Alpha  occ. eigenvalues --   -0.45262  -0.45242  -0.45143  -0.44967  -0.44544
 Alpha  occ. eigenvalues --   -0.43694  -0.42711  -0.42557  -0.42466  -0.42296
 Alpha  occ. eigenvalues --   -0.42193  -0.41613  -0.40789  -0.38725  -0.38401
 Alpha  occ. eigenvalues --   -0.38198  -0.37469  -0.35382  -0.35158  -0.34415
 Alpha  occ. eigenvalues --   -0.33152  -0.32803  -0.32157  -0.30901  -0.26737
 Alpha  occ. eigenvalues --   -0.21423
 Alpha virt. eigenvalues --   -0.08652  -0.01868  -0.00661   0.00886   0.01620
 Alpha virt. eigenvalues --    0.02613   0.02765   0.02958   0.04095   0.04696
 Alpha virt. eigenvalues --    0.06282   0.07142   0.07373   0.07678   0.08053

 Mulliken charges:
               1
     1  Mg   0.429438
     2  C   -0.040635
     3  C   -0.075729
     4  C   -0.099158
     5  C   -0.088108
     6  N   -0.269564
     7  C    0.122922
     8  C   -0.000084
     9  C    0.011493
    10  C    0.133643
    11  C   -0.044672
    12  C   -0.040646
    13  C   -0.012010
    14  C    0.477827
    15  O   -0.503806
    16  O   -0.287490
    17  N   -0.305974
    18  C    0.104637
    19  C    0.021497
    20  C   -0.054787
    21  C    0.138733
    22  C   -0.043629
    23  C    0.330908
    24  O   -0.524907
    25  C   -0.022066
    26  N   -0.299513
    27  C    0.127122
    28  C   -0.010389
    29  C    0.005929
    30  C    0.131432
    31  C   -0.049835
    32  C   -0.028877
    33  C   -0.056816
    34  N   -0.303341
    35  C    0.091674
    36  C    0.019871
    37  C   -0.056268
    38  C    0.110445
    39  C   -0.032084
    40  C    0.350003
    41  O   -0.510808
    42  C    0.056619
    43  C    0.493878
    44  O   -0.555803
    45  O   -0.265178
    46  C    0.069856
    47  C    0.113987
    48  C   -0.098180
    49  C   -0.007819
    50  C   -0.047992
    51  C   -0.013050
    52  C   -0.025766
    53  C   -0.036647
    54  C   -0.025921
    55  C   -0.064096
    56  C   -0.037405
    57  C   -0.040159
    58  C   -0.033816
    59  C   -0.018309
    60  C   -0.055163
    61  C   -0.039173
    62  C   -0.025616
    63  C   -0.025988
    64  C   -0.014526
    65  C   -0.064901
    66  C   -0.056959
    67  H    0.031094
    68  H    0.028670
    69  H    0.027255
    70  H    0.037288
    71  H    0.030853
    72  H    0.026955
    73  H    0.029403
    74  H    0.017435
    75  H    0.049864
    76  H    0.029385
    77  H    0.052535
    78  H    0.031591
    79  H    0.041786
    80  H    0.018907
    81  H    0.035899
    82  H    0.029493
    83  H    0.044656
    84  H    0.036199
    85  H    0.025454
    86  H    0.036486
    87  H    0.022884
    88  H    0.024850
    89  H    0.033557
    90  H    0.029882
    91  H    0.016424
    92  H    0.020328
    93  H    0.022254
    94  H    0.015602
    95  H    0.032344
    96  H    0.031957
    97  H    0.028317
    98  H    0.056400
    99  H    0.066741
   100  H    0.049557
   101  H    0.030339
   102  H    0.049851
   103  H    0.045021
   104  H    0.034903
   105  H    0.042374
   106  H    0.016591
   107  H    0.028134
   108  H    0.011471
   109  H    0.013859
   110  H    0.019287
   111  H    0.010378
   112  H    0.033463
   113  H    0.022132
   114  H    0.023562
   115  H    0.017253
   116  H    0.017098
   117  H    0.026283
   118  H    0.019428
   119  H    0.024092
   120  H    0.022839
   121  H    0.019117
   122  H    0.020951
   123  H    0.009904
   124  H    0.021312
   125  H    0.016967
   126  H    0.023455
   127  H    0.015020
   128  H    0.021372
   129  H    0.010232
   130  H    0.007068
   131  H    0.024700
   132  H    0.020426
   133  H    0.010872
   134  H    0.018130
   135  H    0.018107
   136  H    0.015089
   137  H    0.020088
   138  H    0.016961
   139  H    0.021130
   140  H    0.020184
 Sum of Mulliken charges =  -0.00000

 Dipole moment (field-independent basis, Debye):
    X=             -1.3578    Y=             -2.6306    Z=              2.4946  Tot=              3.8712
 N-N= 4.331634396818D+03 E-N= 0.000000000000D+00  KE=-9.337579425443D+03
 Leave Link  601 at Wed May  4 11:04:41 2022, MaxMem=  6710886400 cpu:               1.0 elap:               0.1
 (Enter /sw/apps/gaussian-16.0/g16/l9999.exe)
 1\1\GINC-BP1-COMPUTE049\SP\RZINDO CIS\STO-3G\C55H74Mg1N4O6\OF15641\04-
 May-2022\0\\#p ZINDO=(nstates=5)\\step_1601_chromophore_5 ZINDO\\0,1\M
 g,0,23.963,-6.77,46.299\C,0,26.397,-4.607,45.164\C,0,21.638,-5.194,44.
 365\C,0,21.92,-9.553,46.559\C,0,26.55,-8.656,47.901\N,0,24.116,-5.224,
 44.858\C,0,25.151,-4.427,44.58\C,0,24.768,-3.322,43.536\C,0,23.198,-3.
 396,43.594\C,0,22.965,-4.663,44.297\C,0,22.431,-2.245,44.27\C,0,25.465
 ,-3.675,42.135\C,0,26.014,-2.433,41.341\C,0,25.854,-2.388,39.848\O,0,2

 Normal termination of Gaussian 16 at Wed May  4 11:04:41 2022.
