 Gaussian 16, Revision A.03,
 Gaussian 16:  ES64L-G16RevA.03 25-Dec-2016

 ------------------------------
 #p blyp/Def2SVP td=(nstates=5)
 ------------------------------

 ---------------------------------------------------
 step_1101_chromophore_10 TDDFT with blyp functional
 ---------------------------------------------------
 Symbolic Z-matrix:
 Charge =  0 Multiplicity = 1

                         Standard orientation:
 ---------------------------------------------------------------------
 Center     Atomic      Atomic             Coordinates (Angstroms)
 Number     Number       Type             X           Y           Z
 ---------------------------------------------------------------------
      1         12           0        5.703713    1.126918    0.170839
      2          6           0        3.694392   -2.029967    0.643844
      3          6           0        3.106713    2.057302   -1.815923
      4          6           0        7.469609    3.652283   -0.433527
      5          6           0        8.352817   -0.773582    1.516936
      6          7           0        3.690985    0.034704   -0.706514
      7          6           0        2.968553   -1.124864   -0.252089
      8          6           0        1.497388   -1.222528   -0.779100
      9          6           0        1.468173    0.053294   -1.676854
     10          6           0        2.850261    0.747495   -1.435131
     11          6           0        1.093294   -0.256399   -3.113998
     12          6           0        0.607764   -1.107457    0.416978
     13          6           0       -0.345933   -2.313723    0.817431
     14          6           0       -1.100137   -3.156306   -0.269394
     15          8           0       -0.804406   -3.531952   -1.360089
     16          8           0       -2.312710   -3.562376    0.269723
     17          7           0        5.301152    2.694529   -0.914034
     18          6           0        4.190669    2.958970   -1.595688
     19          6           0        4.196159    4.334982   -1.961118
     20          6           0        5.446447    4.871263   -1.575576
     21          6           0        6.158981    3.678018   -0.976142
     22          6           0        3.110963    4.986136   -2.819565
     23          6           0        5.933412    6.351408   -1.622230
     24          8           0        7.129565    6.575367   -1.485089
     25          6           0        4.939623    7.472649   -1.880841
     26          7           0        7.737021    1.220510    0.282268
     27          6           0        8.218688    2.524869    0.033711
     28          6           0        9.749347    2.666990    0.422729
     29          6           0        9.971922    1.368044    1.221533
     30          6           0        8.628109    0.512053    0.983652
     31          6           0       10.679242    2.759001   -0.815921
     32          6           0       10.256395    1.591781    2.755885
     33          6           0        9.091856    2.261645    3.510856
     34          7           0        6.013868   -0.950167    0.931677
     35          6           0        7.131457   -1.488709    1.481439
     36          6           0        6.876427   -2.779274    1.989941
     37          6           0        5.507958   -2.989427    1.754769
     38          6           0        5.033204   -1.862290    1.083296
     39          6           0        7.937781   -3.634366    2.747245
     40          6           0        4.495365   -4.056601    1.752388
     41          8           0        4.399815   -5.235632    2.146672
     42          6           0        3.318404   -3.427991    1.094564
     43          6           0        2.952692   -4.310003   -0.083058
     44          8           0        3.334712   -4.076081   -1.221737
     45          8           0        2.097341   -5.380779    0.285825
     46          6           0        1.550268   -6.277730   -0.726114
     47          6           0       -3.060381   -4.693000   -0.249899
     48          6           0       -4.558536   -4.540403   -0.123005
     49          6           0       -5.452518   -4.451113   -1.157644
     50          6           0       -5.091745   -4.395754   -2.661346
     51          6           0       -6.922151   -4.290920   -0.894102
     52          6           0       -7.425670   -2.850521   -1.002969
     53          6           0       -8.514637   -2.567122   -1.987602
     54          6           0       -9.953568   -2.183197   -1.494866
     55          6           0      -11.131583   -2.752230   -2.433511
     56          6           0      -10.161367   -0.604165   -1.322555
     57          6           0      -11.115712   -0.282563   -0.083247
     58          6           0      -10.440149    0.383483    1.104053
     59          6           0      -10.621185    1.950169    1.148374
     60          6           0       -9.360876    2.756563    1.452296
     61          6           0      -11.847781    2.415396    2.063364
     62          6           0      -12.176237    3.972366    1.947043
     63          6           0      -13.477305    4.138809    1.135686
     64          6           0      -14.578344    4.929194    1.957979
     65          6           0      -15.598518    3.934782    2.538098
     66          6           0      -15.185966    6.167117    1.240654
     67          1           0        2.194200    2.418424   -2.296001
     68          1           0        8.054607    4.571250   -0.511810
     69          1           0        9.120420   -1.214919    2.156418
     70          1           0        1.288547   -2.181438   -1.253049
     71          1           0        0.713963    0.785492   -1.390421
     72          1           0        0.470681    0.507445   -3.580430
     73          1           0        0.411573   -1.107108   -3.122725
     74          1           0        1.960219   -0.491140   -3.731552
     75          1           0       -0.056205   -0.258532    0.254577
     76          1           0        1.145915   -1.007763    1.359919
     77          1           0       -1.160196   -1.928268    1.429857
     78          1           0        0.268288   -2.974571    1.429295
     79          1           0        2.303061    4.264502   -2.939946
     80          1           0        3.532655    5.218467   -3.796892
     81          1           0        2.607255    5.833709   -2.355033
     82          1           0        4.210534    7.533260   -1.073946
     83          1           0        4.438770    7.161829   -2.797689
     84          1           0        5.511438    8.398371   -1.927021
     85          1           0        9.802403    3.599668    0.983752
     86          1           0       10.831153    0.821933    0.832421
     87          1           0       11.363802    3.597505   -0.686273
     88          1           0        9.964378    3.105198   -1.561381
     89          1           0       11.323423    1.939185   -1.132068
     90          1           0       11.000234    2.388552    2.735339
     91          1           0       10.569807    0.693715    3.289134
     92          1           0        8.616690    1.603925    4.239575
     93          1           0        8.229033    2.440885    2.870807
     94          1           0        9.377317    3.172576    4.037020
     95          1           0        7.503735   -4.362423    3.432826
     96          1           0        8.434390   -2.921123    3.405111
     97          1           0        8.656076   -4.050219    2.040373
     98          1           0        2.441989   -3.341518    1.737327
     99          1           0        0.543179   -6.108344   -1.105511
    100          1           0        1.582470   -7.272375   -0.281337
    101          1           0        2.172987   -6.344549   -1.618095
    102          1           0       -2.907247   -5.430594    0.537819
    103          1           0       -2.760614   -5.083270   -1.223096
    104          1           0       -4.906645   -4.452459    0.906124
    105          1           0       -5.782052   -5.115257   -3.102918
    106          1           0       -4.039354   -4.477232   -2.931790
    107          1           0       -5.254184   -3.377190   -3.012253
    108          1           0       -7.103213   -4.575386    0.142243
    109          1           0       -7.535082   -4.918854   -1.541900
    110          1           0       -6.622082   -2.182623   -1.315295
    111          1           0       -7.759552   -2.496503   -0.028056
    112          1           0       -8.689736   -3.468249   -2.574141
    113          1           0       -8.144261   -1.820834   -2.690209
    114          1           0      -10.070126   -2.659761   -0.521667
    115          1           0      -10.839563   -2.945418   -3.464843
    116          1           0      -11.941191   -2.024261   -2.484805
    117          1           0      -11.478101   -3.691349   -2.003472
    118          1           0      -10.716183   -0.174848   -2.156989
    119          1           0       -9.191370   -0.143834   -1.132057
    120          1           0      -11.588746   -1.224594    0.193616
    121          1           0      -11.867906    0.351218   -0.553602
    122          1           0       -9.394110    0.079992    1.147783
    123          1           0      -10.919606    0.034228    2.019364
    124          1           0      -10.985842    2.229900    0.160381
    125          1           0       -8.538804    2.193095    1.009585
    126          1           0       -9.193103    2.790752    2.528540
    127          1           0       -9.425706    3.801838    1.152272
    128          1           0      -11.483652    2.221641    3.072800
    129          1           0      -12.732510    1.817975    1.843837
    130          1           0      -11.375433    4.471233    1.402334
    131          1           0      -12.084394    4.529559    2.878986
    132          1           0      -13.848333    3.211028    0.699319
    133          1           0      -13.086280    4.655319    0.259701
    134          1           0      -14.035432    5.377489    2.790627
    135          1           0      -15.765515    4.095915    3.603938
    136          1           0      -15.417118    2.899403    2.251376
    137          1           0      -16.547320    4.245238    2.100128
    138          1           0      -16.142250    5.977312    0.753937
    139          1           0      -14.421410    6.540894    0.559286
    140          1           0      -15.419260    6.975324    1.933861
 ---------------------------------------------------------------------

 SCF Done:  E(RB-LYP) =  -3007.35271657     A.U. after   22 cycles

 Excitation energies and oscillator strengths:

 Excited State   1:      Singlet-A      1.8177 eV  682.10 nm  f=0.2801  <S**2>=0.000
     245 -> 248       -0.19796
     246 -> 247        0.68156
     246 <- 247       -0.14058
 This state for optimization and/or second-order correction.
 Total Energy, E(TD-HF/TD-DFT) =  -3007.28591795
 Copying the excited state density for this state as the 1-particle RhoCI density.

 Excited State   2:      Singlet-A      1.9355 eV  640.57 nm  f=0.0146  <S**2>=0.000
     244 -> 247        0.66775
     245 -> 247        0.21003

 Excited State   3:      Singlet-A      2.0190 eV  614.09 nm  f=0.0761  <S**2>=0.000
     243 -> 247       -0.12993
     244 -> 247       -0.21884
     245 -> 247        0.60725
     246 -> 248        0.22116

 Excited State   4:      Singlet-A      2.1282 eV  582.59 nm  f=0.0060  <S**2>=0.000
     243 -> 247        0.69207
     245 -> 247        0.11352

 Excited State   5:      Singlet-A      2.6184 eV  473.51 nm  f=0.0033  <S**2>=0.000
     241 -> 247       -0.16871
     242 -> 247        0.65540
     246 -> 248       -0.15229

 The electronic state is 1-A.
 Alpha  occ. eigenvalues --  -46.28097 -18.81049 -18.80974 -18.77817 -18.76672
 Alpha  occ. eigenvalues --  -18.75930 -18.75195 -14.03172 -14.02953 -14.01387
 Alpha  occ. eigenvalues --  -14.00145 -10.04826 -10.03855 -10.00406  -9.99283
 Alpha  occ. eigenvalues --   -9.97741  -9.97097  -9.96906  -9.96645  -9.96519
 Alpha  occ. eigenvalues --   -9.96170  -9.95747  -9.95626  -9.94614  -9.94485
 Alpha  occ. eigenvalues --   -9.94021  -9.93955  -9.93950  -9.93928  -9.93893
 Alpha  occ. eigenvalues --   -9.93880  -9.93776  -9.93587  -9.93538  -9.93336
 Alpha  occ. eigenvalues --   -9.93092  -9.92844  -9.92841  -9.92839  -9.92770
 Alpha  occ. eigenvalues --   -9.92720  -9.92612  -9.92563  -9.92552  -9.92352
 Alpha  occ. eigenvalues --   -9.92331  -9.92266  -9.92259  -9.92061  -9.91950
 Alpha  occ. eigenvalues --   -9.91774  -9.91634  -9.91609  -9.91557  -9.91497
 Alpha  occ. eigenvalues --   -9.91496  -9.91367  -9.91348  -9.91285  -9.91223
 Alpha  occ. eigenvalues --   -9.91114  -9.91020  -9.90953  -9.90866  -9.90838
 Alpha  occ. eigenvalues --   -9.90744  -2.92832  -1.73187  -1.72788  -1.72527
 Alpha  occ. eigenvalues --   -0.98493  -0.95615  -0.91670  -0.90558  -0.89816
 Alpha  occ. eigenvalues --   -0.89033  -0.88217  -0.86285  -0.84947  -0.84622
 Alpha  occ. eigenvalues --   -0.75572  -0.73936  -0.73320  -0.72397  -0.71843
 Alpha  occ. eigenvalues --   -0.71740  -0.71410  -0.70518  -0.70081  -0.69927
 Alpha  occ. eigenvalues --   -0.69154  -0.69044  -0.68130  -0.67039  -0.66982
 Alpha  occ. eigenvalues --   -0.66311  -0.65702  -0.65345  -0.64414  -0.64117
 Alpha  occ. eigenvalues --   -0.63884  -0.62361  -0.62074  -0.61216  -0.61071
 Alpha  occ. eigenvalues --   -0.60381  -0.60131  -0.59964  -0.59479  -0.58543
 Alpha  occ. eigenvalues --   -0.58288  -0.57600  -0.56347  -0.55514  -0.54668
 Alpha  occ. eigenvalues --   -0.53900  -0.53530  -0.52846  -0.52592  -0.51328
 Alpha  occ. eigenvalues --   -0.51009  -0.50827  -0.50450  -0.49775  -0.49518
 Alpha  occ. eigenvalues --   -0.49415  -0.49101  -0.48411  -0.47823  -0.46786
 Alpha  occ. eigenvalues --   -0.46711  -0.45858  -0.45529  -0.44975  -0.44341
 Alpha  occ. eigenvalues --   -0.43699  -0.43339  -0.42659  -0.42526  -0.42112
 Alpha  occ. eigenvalues --   -0.41756  -0.41417  -0.41253  -0.41132  -0.40998
 Alpha  occ. eigenvalues --   -0.40704  -0.40214  -0.40117  -0.40096  -0.39927
 Alpha  occ. eigenvalues --   -0.39638  -0.39542  -0.39367  -0.39253  -0.39174
 Alpha  occ. eigenvalues --   -0.38937  -0.38738  -0.38598  -0.38503  -0.38221
 Alpha  occ. eigenvalues --   -0.38036  -0.37925  -0.37596  -0.37270  -0.37055
 Alpha  occ. eigenvalues --   -0.37001  -0.36903  -0.36735  -0.36649  -0.36604
 Alpha  occ. eigenvalues --   -0.36446  -0.36095  -0.36001  -0.35777  -0.35511
 Alpha  occ. eigenvalues --   -0.35160  -0.35101  -0.35008  -0.34789  -0.34691
 Alpha  occ. eigenvalues --   -0.34371  -0.34305  -0.34203  -0.33849  -0.33615
 Alpha  occ. eigenvalues --   -0.33471  -0.33327  -0.33233  -0.33053  -0.32990
 Alpha  occ. eigenvalues --   -0.32866  -0.32597  -0.32424  -0.32359  -0.32183
 Alpha  occ. eigenvalues --   -0.31993  -0.31852  -0.31738  -0.31571  -0.31423
 Alpha  occ. eigenvalues --   -0.31313  -0.31114  -0.30846  -0.30719  -0.30583
 Alpha  occ. eigenvalues --   -0.30421  -0.30320  -0.30042  -0.29779  -0.29479
 Alpha  occ. eigenvalues --   -0.29390  -0.29281  -0.29113  -0.28946  -0.28681
 Alpha  occ. eigenvalues --   -0.28459  -0.28402  -0.28220  -0.28166  -0.28028
 Alpha  occ. eigenvalues --   -0.27794  -0.27450  -0.27197  -0.26384  -0.26248
 Alpha  occ. eigenvalues --   -0.26223  -0.26068  -0.25917  -0.25145  -0.25128
 Alpha  occ. eigenvalues --   -0.24364  -0.24213  -0.24015  -0.23724  -0.23616
 Alpha  occ. eigenvalues --   -0.23015  -0.22800  -0.21764  -0.21485  -0.21079
 Alpha  occ. eigenvalues --   -0.20938  -0.20226  -0.18961  -0.18274  -0.16893
 Alpha  occ. eigenvalues --   -0.15649
 Alpha virt. eigenvalues --   -0.11254  -0.06771  -0.06146  -0.04496  -0.04196
 Alpha virt. eigenvalues --   -0.03164  -0.02854  -0.02322  -0.01251   0.00064
 Alpha virt. eigenvalues --    0.01048   0.02438   0.02585   0.02772   0.03120

 Mulliken charges:
               1
     1  Mg   0.721328
     2  C   -0.041627
     3  C   -0.068704
     4  C   -0.040629
     5  C   -0.077508
     6  N   -0.169960
     7  C   -0.088708
     8  C    0.063752
     9  C    0.010966
    10  C   -0.028133
    11  C    0.124079
    12  C    0.104597
    13  C    0.041474
    14  C    0.099419
    15  O   -0.154767
    16  O   -0.287441
    17  N   -0.288097
    18  C    0.176075
    19  C   -0.155034
    20  C    0.017125
    21  C    0.098152
    22  C    0.163706
    23  C   -0.078037
    24  O   -0.163971
    25  C    0.138759
    26  N   -0.267040
    27  C    0.020577
    28  C    0.000933
    29  C    0.051993
    30  C    0.023190
    31  C    0.130797
    32  C    0.085952
    33  C    0.041901
    34  N   -0.181094
    35  C    0.100826
    36  C   -0.184054
    37  C    0.034092
    38  C    0.078806
    39  C    0.174629
    40  C   -0.012164
    41  O   -0.146660
    42  C    0.083362
    43  C    0.131894
    44  O   -0.170238
    45  O   -0.290655
    46  C    0.209575
    47  C    0.341437
    48  C   -0.119687
    49  C   -0.135330
    50  C    0.138904
    51  C    0.153551
    52  C    0.079090
    53  C    0.090861
    54  C   -0.080307
    55  C    0.089024
    56  C    0.086481
    57  C    0.042133
    58  C    0.143061
    59  C   -0.086545
    60  C    0.115932
    61  C    0.069768
    62  C    0.062295
    63  C    0.095078
    64  C   -0.076737
    65  C    0.123433
    66  C    0.096736
    67  H   -0.074793
    68  H   -0.036913
    69  H   -0.070668
    70  H    0.019473
    71  H   -0.030243
    72  H   -0.022557
    73  H   -0.004037
    74  H    0.003312
    75  H   -0.020495
    76  H   -0.009322
    77  H    0.002457
    78  H    0.024071
    79  H   -0.032539
    80  H    0.023672
    81  H   -0.000444
    82  H    0.013519
    83  H    0.008341
    84  H   -0.000348
    85  H   -0.015636
    86  H   -0.030690
    87  H   -0.018402
    88  H   -0.006537
    89  H    0.005773
    90  H   -0.019728
    91  H   -0.005433
    92  H   -0.019079
    93  H   -0.006288
    94  H   -0.005573
    95  H    0.004248
    96  H   -0.006585
    97  H    0.010010
    98  H   -0.000516
    99  H    0.017625
   100  H    0.008501
   101  H    0.006925
   102  H   -0.023976
   103  H    0.001894
   104  H   -0.039133
   105  H    0.006469
   106  H   -0.006154
   107  H   -0.002609
   108  H   -0.035889
   109  H   -0.025056
   110  H   -0.025114
   111  H   -0.029391
   112  H   -0.048590
   113  H   -0.035160
   114  H   -0.036051
   115  H   -0.010374
   116  H   -0.015155
   117  H   -0.012306
   118  H   -0.025810
   119  H   -0.028493
   120  H   -0.028755
   121  H   -0.032286
   122  H   -0.036385
   123  H   -0.042168
   124  H   -0.045914
   125  H   -0.015418
   126  H   -0.027955
   127  H   -0.007139
   128  H   -0.036451
   129  H   -0.020636
   130  H   -0.043562
   131  H   -0.030585
   132  H   -0.027793
   133  H   -0.048277
   134  H   -0.032640
   135  H   -0.015318
   136  H   -0.005501
   137  H   -0.034785
   138  H   -0.014564
   139  H   -0.015746
   140  H   -0.020939
 Sum of Mulliken charges =  -0.00000

 Dipole moment (field-independent basis, Debye):
    X=             -4.5068    Y=              3.3853    Z=              1.1612  Tot=              5.7550
 Quadrupole moment (field-independent basis, Debye-Ang):
   XX=           -391.6688   YY=           -423.2260   ZZ=           -405.6269
   XY=             13.9772   XZ=             20.1463   YZ=              9.8334

 Normal termination of Gaussian 16 at Wed May  4 00:00:14 2022.
