 Gaussian 16, Revision A.03,
 Gaussian 16:  ES64L-G16RevA.03 25-Dec-2016

 -----------------------------------
 #p cam-b3lyp/Def2SVP td=(nstates=5)
 -----------------------------------

 --------------------------------------------------------
 step_1101_chromophore_10 TDDFT with cam-b3lyp functional
 --------------------------------------------------------
 Symbolic Z-matrix:
 Charge =  0 Multiplicity = 1

                         Standard orientation:
 ---------------------------------------------------------------------
 Center     Atomic      Atomic             Coordinates (Angstroms)
 Number     Number       Type             X           Y           Z
 ---------------------------------------------------------------------
      1         12           0        5.703713    1.126918    0.170839
      2          6           0        3.694392   -2.029967    0.643844
      3          6           0        3.106713    2.057302   -1.815923
      4          6           0        7.469609    3.652283   -0.433527
      5          6           0        8.352817   -0.773582    1.516936
      6          7           0        3.690985    0.034704   -0.706514
      7          6           0        2.968553   -1.124864   -0.252089
      8          6           0        1.497388   -1.222528   -0.779100
      9          6           0        1.468173    0.053294   -1.676854
     10          6           0        2.850261    0.747495   -1.435131
     11          6           0        1.093294   -0.256399   -3.113998
     12          6           0        0.607764   -1.107457    0.416978
     13          6           0       -0.345933   -2.313723    0.817431
     14          6           0       -1.100137   -3.156306   -0.269394
     15          8           0       -0.804406   -3.531952   -1.360089
     16          8           0       -2.312710   -3.562376    0.269723
     17          7           0        5.301152    2.694529   -0.914034
     18          6           0        4.190669    2.958970   -1.595688
     19          6           0        4.196159    4.334982   -1.961118
     20          6           0        5.446447    4.871263   -1.575576
     21          6           0        6.158981    3.678018   -0.976142
     22          6           0        3.110963    4.986136   -2.819565
     23          6           0        5.933412    6.351408   -1.622230
     24          8           0        7.129565    6.575367   -1.485089
     25          6           0        4.939623    7.472649   -1.880841
     26          7           0        7.737021    1.220510    0.282268
     27          6           0        8.218688    2.524869    0.033711
     28          6           0        9.749347    2.666990    0.422729
     29          6           0        9.971922    1.368044    1.221533
     30          6           0        8.628109    0.512053    0.983652
     31          6           0       10.679242    2.759001   -0.815921
     32          6           0       10.256395    1.591781    2.755885
     33          6           0        9.091856    2.261645    3.510856
     34          7           0        6.013868   -0.950167    0.931677
     35          6           0        7.131457   -1.488709    1.481439
     36          6           0        6.876427   -2.779274    1.989941
     37          6           0        5.507958   -2.989427    1.754769
     38          6           0        5.033204   -1.862290    1.083296
     39          6           0        7.937781   -3.634366    2.747245
     40          6           0        4.495365   -4.056601    1.752388
     41          8           0        4.399815   -5.235632    2.146672
     42          6           0        3.318404   -3.427991    1.094564
     43          6           0        2.952692   -4.310003   -0.083058
     44          8           0        3.334712   -4.076081   -1.221737
     45          8           0        2.097341   -5.380779    0.285825
     46          6           0        1.550268   -6.277730   -0.726114
     47          6           0       -3.060381   -4.693000   -0.249899
     48          6           0       -4.558536   -4.540403   -0.123005
     49          6           0       -5.452518   -4.451113   -1.157644
     50          6           0       -5.091745   -4.395754   -2.661346
     51          6           0       -6.922151   -4.290920   -0.894102
     52          6           0       -7.425670   -2.850521   -1.002969
     53          6           0       -8.514637   -2.567122   -1.987602
     54          6           0       -9.953568   -2.183197   -1.494866
     55          6           0      -11.131583   -2.752230   -2.433511
     56          6           0      -10.161367   -0.604165   -1.322555
     57          6           0      -11.115712   -0.282563   -0.083247
     58          6           0      -10.440149    0.383483    1.104053
     59          6           0      -10.621185    1.950169    1.148374
     60          6           0       -9.360876    2.756563    1.452296
     61          6           0      -11.847781    2.415396    2.063364
     62          6           0      -12.176237    3.972366    1.947043
     63          6           0      -13.477305    4.138809    1.135686
     64          6           0      -14.578344    4.929194    1.957979
     65          6           0      -15.598518    3.934782    2.538098
     66          6           0      -15.185966    6.167117    1.240654
     67          1           0        2.194200    2.418424   -2.296001
     68          1           0        8.054607    4.571250   -0.511810
     69          1           0        9.120420   -1.214919    2.156418
     70          1           0        1.288547   -2.181438   -1.253049
     71          1           0        0.713963    0.785492   -1.390421
     72          1           0        0.470681    0.507445   -3.580430
     73          1           0        0.411573   -1.107108   -3.122725
     74          1           0        1.960219   -0.491140   -3.731552
     75          1           0       -0.056205   -0.258532    0.254577
     76          1           0        1.145915   -1.007763    1.359919
     77          1           0       -1.160196   -1.928268    1.429857
     78          1           0        0.268288   -2.974571    1.429295
     79          1           0        2.303061    4.264502   -2.939946
     80          1           0        3.532655    5.218467   -3.796892
     81          1           0        2.607255    5.833709   -2.355033
     82          1           0        4.210534    7.533260   -1.073946
     83          1           0        4.438770    7.161829   -2.797689
     84          1           0        5.511438    8.398371   -1.927021
     85          1           0        9.802403    3.599668    0.983752
     86          1           0       10.831153    0.821933    0.832421
     87          1           0       11.363802    3.597505   -0.686273
     88          1           0        9.964378    3.105198   -1.561381
     89          1           0       11.323423    1.939185   -1.132068
     90          1           0       11.000234    2.388552    2.735339
     91          1           0       10.569807    0.693715    3.289134
     92          1           0        8.616690    1.603925    4.239575
     93          1           0        8.229033    2.440885    2.870807
     94          1           0        9.377317    3.172576    4.037020
     95          1           0        7.503735   -4.362423    3.432826
     96          1           0        8.434390   -2.921123    3.405111
     97          1           0        8.656076   -4.050219    2.040373
     98          1           0        2.441989   -3.341518    1.737327
     99          1           0        0.543179   -6.108344   -1.105511
    100          1           0        1.582470   -7.272375   -0.281337
    101          1           0        2.172987   -6.344549   -1.618095
    102          1           0       -2.907247   -5.430594    0.537819
    103          1           0       -2.760614   -5.083270   -1.223096
    104          1           0       -4.906645   -4.452459    0.906124
    105          1           0       -5.782052   -5.115257   -3.102918
    106          1           0       -4.039354   -4.477232   -2.931790
    107          1           0       -5.254184   -3.377190   -3.012253
    108          1           0       -7.103213   -4.575386    0.142243
    109          1           0       -7.535082   -4.918854   -1.541900
    110          1           0       -6.622082   -2.182623   -1.315295
    111          1           0       -7.759552   -2.496503   -0.028056
    112          1           0       -8.689736   -3.468249   -2.574141
    113          1           0       -8.144261   -1.820834   -2.690209
    114          1           0      -10.070126   -2.659761   -0.521667
    115          1           0      -10.839563   -2.945418   -3.464843
    116          1           0      -11.941191   -2.024261   -2.484805
    117          1           0      -11.478101   -3.691349   -2.003472
    118          1           0      -10.716183   -0.174848   -2.156989
    119          1           0       -9.191370   -0.143834   -1.132057
    120          1           0      -11.588746   -1.224594    0.193616
    121          1           0      -11.867906    0.351218   -0.553602
    122          1           0       -9.394110    0.079992    1.147783
    123          1           0      -10.919606    0.034228    2.019364
    124          1           0      -10.985842    2.229900    0.160381
    125          1           0       -8.538804    2.193095    1.009585
    126          1           0       -9.193103    2.790752    2.528540
    127          1           0       -9.425706    3.801838    1.152272
    128          1           0      -11.483652    2.221641    3.072800
    129          1           0      -12.732510    1.817975    1.843837
    130          1           0      -11.375433    4.471233    1.402334
    131          1           0      -12.084394    4.529559    2.878986
    132          1           0      -13.848333    3.211028    0.699319
    133          1           0      -13.086280    4.655319    0.259701
    134          1           0      -14.035432    5.377489    2.790627
    135          1           0      -15.765515    4.095915    3.603938
    136          1           0      -15.417118    2.899403    2.251376
    137          1           0      -16.547320    4.245238    2.100128
    138          1           0      -16.142250    5.977312    0.753937
    139          1           0      -14.421410    6.540894    0.559286
    140          1           0      -15.419260    6.975324    1.933861
 ---------------------------------------------------------------------

 SCF Done:  E(RCAM-B3LYP) =  -3007.13705626     A.U. after   17 cycles

 Excitation energies and oscillator strengths:

 Excited State   1:      Singlet-A      1.7192 eV  721.17 nm  f=0.3684  <S**2>=0.000
     245 -> 248       -0.18522
     246 -> 247        0.68282
     245 <- 248       -0.10786
 This state for optimization and/or second-order correction.
 Total Energy, E(TD-HF/TD-DFT) =  -3007.07387692
 Copying the excited state density for this state as the 1-particle RhoCI density.

 Excited State   2:      Singlet-A      2.2210 eV  558.24 nm  f=0.1264  <S**2>=0.000
     245 -> 247        0.64273
     246 -> 248        0.27977

 Excited State   3:      Singlet-A      3.4166 eV  362.89 nm  f=0.0489  <S**2>=0.000
     241 -> 247        0.14212
     244 -> 247        0.59355
     246 -> 248       -0.29852

 Excited State   4:      Singlet-A      3.4731 eV  356.99 nm  f=0.0002  <S**2>=0.000
     241 -> 247        0.52730
     241 -> 249       -0.31470
     241 -> 250        0.15598
     241 -> 251        0.17487
     244 -> 247       -0.18013

 Excited State   5:      Singlet-A      3.5354 eV  350.70 nm  f=0.1926  <S**2>=0.000
     242 -> 247       -0.10782
     244 -> 247        0.23940
     245 -> 247       -0.15059
     246 -> 248        0.33612
     246 -> 249        0.31432
     246 -> 250        0.43458

 The electronic state is 1-A.
 Alpha  occ. eigenvalues --  -46.89705 -19.23901 -19.23729 -19.20851 -19.19782
 Alpha  occ. eigenvalues --  -19.19236 -19.18485 -14.42059 -14.41864 -14.39890
 Alpha  occ. eigenvalues --  -14.38435 -10.40175 -10.39409 -10.35702 -10.34661
 Alpha  occ. eigenvalues --  -10.31726 -10.31713 -10.31585 -10.31039 -10.30712
 Alpha  occ. eigenvalues --  -10.30425 -10.30176 -10.29937 -10.28737 -10.28542
 Alpha  occ. eigenvalues --  -10.28248 -10.28124 -10.28059 -10.28015 -10.27997
 Alpha  occ. eigenvalues --  -10.27955 -10.27930 -10.27922 -10.27905 -10.27482
 Alpha  occ. eigenvalues --  -10.27220 -10.27127 -10.27112 -10.26904 -10.26707
 Alpha  occ. eigenvalues --  -10.26672 -10.26620 -10.26532 -10.26409 -10.26200
 Alpha  occ. eigenvalues --  -10.26146 -10.26043 -10.25913 -10.25790 -10.25729
 Alpha  occ. eigenvalues --  -10.25415 -10.25303 -10.25300 -10.25217 -10.25143
 Alpha  occ. eigenvalues --  -10.25103 -10.25058 -10.25050 -10.24990 -10.24922
 Alpha  occ. eigenvalues --  -10.24911 -10.24756 -10.24708 -10.24563 -10.24473
 Alpha  occ. eigenvalues --  -10.24314  -3.18347  -1.93173  -1.92851  -1.92635
 Alpha  occ. eigenvalues --   -1.17015  -1.14107  -1.10158  -1.08377  -1.08238
 Alpha  occ. eigenvalues --   -1.06879  -1.06006  -1.03866  -1.02570  -1.02186
 Alpha  occ. eigenvalues --   -0.92784  -0.90770  -0.90172  -0.89177  -0.88574
 Alpha  occ. eigenvalues --   -0.88416  -0.88051  -0.87047  -0.86741  -0.86469
 Alpha  occ. eigenvalues --   -0.85560  -0.85415  -0.84399  -0.83155  -0.83128
 Alpha  occ. eigenvalues --   -0.82359  -0.81984  -0.81251  -0.80254  -0.79862
 Alpha  occ. eigenvalues --   -0.79652  -0.78042  -0.77815  -0.76640  -0.76436
 Alpha  occ. eigenvalues --   -0.75742  -0.75484  -0.75232  -0.74773  -0.73718
 Alpha  occ. eigenvalues --   -0.73322  -0.72605  -0.71212  -0.70318  -0.69234
 Alpha  occ. eigenvalues --   -0.68480  -0.68154  -0.67286  -0.67113  -0.65550
 Alpha  occ. eigenvalues --   -0.65215  -0.64857  -0.64382  -0.63708  -0.63503
 Alpha  occ. eigenvalues --   -0.63361  -0.62787  -0.62266  -0.61422  -0.60460
 Alpha  occ. eigenvalues --   -0.60292  -0.59374  -0.59098  -0.58347  -0.57980
 Alpha  occ. eigenvalues --   -0.57037  -0.56696  -0.55973  -0.55697  -0.55217
 Alpha  occ. eigenvalues --   -0.54802  -0.54640  -0.54119  -0.53928  -0.53717
 Alpha  occ. eigenvalues --   -0.53629  -0.53045  -0.52922  -0.52759  -0.52647
 Alpha  occ. eigenvalues --   -0.52498  -0.52345  -0.52228  -0.51944  -0.51805
 Alpha  occ. eigenvalues --   -0.51410  -0.51219  -0.51130  -0.50868  -0.50779
 Alpha  occ. eigenvalues --   -0.50676  -0.50228  -0.49944  -0.49473  -0.49440
 Alpha  occ. eigenvalues --   -0.49336  -0.49212  -0.49144  -0.48995  -0.48713
 Alpha  occ. eigenvalues --   -0.48677  -0.48618  -0.48336  -0.48140  -0.47894
 Alpha  occ. eigenvalues --   -0.47334  -0.47083  -0.46992  -0.46753  -0.46726
 Alpha  occ. eigenvalues --   -0.46291  -0.46190  -0.46138  -0.45577  -0.45248
 Alpha  occ. eigenvalues --   -0.45205  -0.45033  -0.44940  -0.44764  -0.44622
 Alpha  occ. eigenvalues --   -0.44543  -0.44520  -0.44185  -0.44001  -0.43890
 Alpha  occ. eigenvalues --   -0.43744  -0.43370  -0.43215  -0.43065  -0.42967
 Alpha  occ. eigenvalues --   -0.42830  -0.42474  -0.42455  -0.42246  -0.42126
 Alpha  occ. eigenvalues --   -0.42004  -0.41682  -0.41320  -0.40985  -0.40627
 Alpha  occ. eigenvalues --   -0.40581  -0.40442  -0.40371  -0.40236  -0.39995
 Alpha  occ. eigenvalues --   -0.39834  -0.39558  -0.39394  -0.39126  -0.39076
 Alpha  occ. eigenvalues --   -0.38713  -0.38241  -0.38013  -0.37469  -0.37130
 Alpha  occ. eigenvalues --   -0.36954  -0.36590  -0.36545  -0.36122  -0.35778
 Alpha  occ. eigenvalues --   -0.35642  -0.35344  -0.34892  -0.34647  -0.34079
 Alpha  occ. eigenvalues --   -0.33917  -0.33667  -0.32946  -0.31475  -0.30953
 Alpha  occ. eigenvalues --   -0.30564  -0.30504  -0.30482  -0.29445  -0.23551
 Alpha  occ. eigenvalues --   -0.20999
 Alpha virt. eigenvalues --   -0.08341  -0.01497   0.00266   0.00892   0.02401
 Alpha virt. eigenvalues --    0.04442   0.04798   0.05465   0.06086   0.07556
 Alpha virt. eigenvalues --    0.08183   0.08312   0.08962   0.09311   0.09414

 Mulliken charges:
               1
     1  Mg   0.851873
     2  C   -0.056612
     3  C   -0.078050
     4  C   -0.063841
     5  C   -0.086037
     6  N   -0.227836
     7  C   -0.049767
     8  C    0.006878
     9  C   -0.041398
    10  C   -0.009098
    11  C    0.067115
    12  C    0.057344
    13  C   -0.022590
    14  C    0.180615
    15  O   -0.195862
    16  O   -0.355076
    17  N   -0.382879
    18  C    0.180321
    19  C   -0.160328
    20  C   -0.045149
    21  C    0.121965
    22  C    0.106605
    23  C   -0.001067
    24  O   -0.204570
    25  C    0.061789
    26  N   -0.341107
    27  C    0.037450
    28  C   -0.053341
    29  C    0.003698
    30  C    0.039022
    31  C    0.073207
    32  C    0.033777
    33  C   -0.020294
    34  N   -0.267258
    35  C    0.101601
    36  C   -0.178405
    37  C   -0.045091
    38  C    0.110863
    39  C    0.124708
    40  C    0.085331
    41  O   -0.183895
    42  C    0.005626
    43  C    0.215515
    44  O   -0.205527
    45  O   -0.355648
    46  C    0.176045
    47  C    0.305199
    48  C   -0.137089
    49  C   -0.159534
    50  C    0.080446
    51  C    0.089489
    52  C    0.023812
    53  C    0.038677
    54  C   -0.132107
    55  C    0.031965
    56  C    0.035055
    57  C   -0.008252
    58  C    0.084775
    59  C   -0.137538
    60  C    0.058828
    61  C    0.021534
    62  C    0.005831
    63  C    0.040256
    64  C   -0.138676
    65  C    0.063469
    66  C    0.041620
    67  H   -0.040694
    68  H    0.002138
    69  H   -0.036715
    70  H    0.054777
    71  H    0.004439
    72  H    0.002156
    73  H    0.021380
    74  H    0.029262
    75  H    0.009428
    76  H    0.022071
    77  H    0.038422
    78  H    0.049552
    79  H   -0.003228
    80  H    0.049331
    81  H    0.025999
    82  H    0.041244
    83  H    0.033451
    84  H    0.034122
    85  H    0.019450
    86  H    0.005584
    87  H    0.007029
    88  H    0.018977
    89  H    0.030555
    90  H    0.008274
    91  H    0.021494
    92  H    0.006371
    93  H    0.013016
    94  H    0.018895
    95  H    0.031428
    96  H    0.015917
    97  H    0.035918
    98  H    0.039571
    99  H    0.035135
   100  H    0.030810
   101  H    0.032218
   102  H    0.004291
   103  H    0.030992
   104  H   -0.005155
   105  H    0.028580
   106  H    0.019154
   107  H    0.020571
   108  H   -0.003357
   109  H    0.004683
   110  H    0.004308
   111  H   -0.001802
   112  H   -0.019914
   113  H   -0.006218
   114  H   -0.005823
   115  H    0.013292
   116  H    0.007310
   117  H    0.011581
   118  H    0.002637
   119  H   -0.002913
   120  H   -0.000791
   121  H   -0.005348
   122  H   -0.008866
   123  H   -0.011186
   124  H   -0.016556
   125  H    0.008032
   126  H   -0.004010
   127  H    0.016046
   128  H   -0.008757
   129  H    0.004304
   130  H   -0.015499
   131  H   -0.000955
   132  H   -0.000731
   133  H   -0.017599
   134  H   -0.001240
   135  H    0.009465
   136  H    0.016895
   137  H   -0.010643
   138  H    0.007944
   139  H    0.007694
   140  H    0.003428
 Sum of Mulliken charges =  -0.00000

 Dipole moment (field-independent basis, Debye):
    X=             -4.7471    Y=              4.0745    Z=              1.0677  Tot=              6.3463
 Quadrupole moment (field-independent basis, Debye-Ang):
   XX=           -393.0804   YY=           -419.3365   ZZ=           -404.9234
   XY=             15.9844   XZ=             20.8579   YZ=              8.6653

 Normal termination of Gaussian 16 at Tue May  3 22:48:48 2022.
