 Gaussian 16, Revision A.03,
 Gaussian 16:  ES64L-G16RevA.03 25-Dec-2016

 ---------------------------------
 #p PBE1PBE/Def2SVP td=(nstates=5)
 ---------------------------------

 ------------------------------------------------------
 step_1101_chromophore_10 TDDFT with PBE1PBE functional
 ------------------------------------------------------
 Symbolic Z-matrix:
 Charge =  0 Multiplicity = 1

                         Standard orientation:
 ---------------------------------------------------------------------
 Center     Atomic      Atomic             Coordinates (Angstroms)
 Number     Number       Type             X           Y           Z
 ---------------------------------------------------------------------
      1         12           0        5.703713    1.126918    0.170839
      2          6           0        3.694392   -2.029967    0.643844
      3          6           0        3.106713    2.057302   -1.815923
      4          6           0        7.469609    3.652283   -0.433527
      5          6           0        8.352817   -0.773582    1.516936
      6          7           0        3.690985    0.034704   -0.706514
      7          6           0        2.968553   -1.124864   -0.252089
      8          6           0        1.497388   -1.222528   -0.779100
      9          6           0        1.468173    0.053294   -1.676854
     10          6           0        2.850261    0.747495   -1.435131
     11          6           0        1.093294   -0.256399   -3.113998
     12          6           0        0.607764   -1.107457    0.416978
     13          6           0       -0.345933   -2.313723    0.817431
     14          6           0       -1.100137   -3.156306   -0.269394
     15          8           0       -0.804406   -3.531952   -1.360089
     16          8           0       -2.312710   -3.562376    0.269723
     17          7           0        5.301152    2.694529   -0.914034
     18          6           0        4.190669    2.958970   -1.595688
     19          6           0        4.196159    4.334982   -1.961118
     20          6           0        5.446447    4.871263   -1.575576
     21          6           0        6.158981    3.678018   -0.976142
     22          6           0        3.110963    4.986136   -2.819565
     23          6           0        5.933412    6.351408   -1.622230
     24          8           0        7.129565    6.575367   -1.485089
     25          6           0        4.939623    7.472649   -1.880841
     26          7           0        7.737021    1.220510    0.282268
     27          6           0        8.218688    2.524869    0.033711
     28          6           0        9.749347    2.666990    0.422729
     29          6           0        9.971922    1.368044    1.221533
     30          6           0        8.628109    0.512053    0.983652
     31          6           0       10.679242    2.759001   -0.815921
     32          6           0       10.256395    1.591781    2.755885
     33          6           0        9.091856    2.261645    3.510856
     34          7           0        6.013868   -0.950167    0.931677
     35          6           0        7.131457   -1.488709    1.481439
     36          6           0        6.876427   -2.779274    1.989941
     37          6           0        5.507958   -2.989427    1.754769
     38          6           0        5.033204   -1.862290    1.083296
     39          6           0        7.937781   -3.634366    2.747245
     40          6           0        4.495365   -4.056601    1.752388
     41          8           0        4.399815   -5.235632    2.146672
     42          6           0        3.318404   -3.427991    1.094564
     43          6           0        2.952692   -4.310003   -0.083058
     44          8           0        3.334712   -4.076081   -1.221737
     45          8           0        2.097341   -5.380779    0.285825
     46          6           0        1.550268   -6.277730   -0.726114
     47          6           0       -3.060381   -4.693000   -0.249899
     48          6           0       -4.558536   -4.540403   -0.123005
     49          6           0       -5.452518   -4.451113   -1.157644
     50          6           0       -5.091745   -4.395754   -2.661346
     51          6           0       -6.922151   -4.290920   -0.894102
     52          6           0       -7.425670   -2.850521   -1.002969
     53          6           0       -8.514637   -2.567122   -1.987602
     54          6           0       -9.953568   -2.183197   -1.494866
     55          6           0      -11.131583   -2.752230   -2.433511
     56          6           0      -10.161367   -0.604165   -1.322555
     57          6           0      -11.115712   -0.282563   -0.083247
     58          6           0      -10.440149    0.383483    1.104053
     59          6           0      -10.621185    1.950169    1.148374
     60          6           0       -9.360876    2.756563    1.452296
     61          6           0      -11.847781    2.415396    2.063364
     62          6           0      -12.176237    3.972366    1.947043
     63          6           0      -13.477305    4.138809    1.135686
     64          6           0      -14.578344    4.929194    1.957979
     65          6           0      -15.598518    3.934782    2.538098
     66          6           0      -15.185966    6.167117    1.240654
     67          1           0        2.194200    2.418424   -2.296001
     68          1           0        8.054607    4.571250   -0.511810
     69          1           0        9.120420   -1.214919    2.156418
     70          1           0        1.288547   -2.181438   -1.253049
     71          1           0        0.713963    0.785492   -1.390421
     72          1           0        0.470681    0.507445   -3.580430
     73          1           0        0.411573   -1.107108   -3.122725
     74          1           0        1.960219   -0.491140   -3.731552
     75          1           0       -0.056205   -0.258532    0.254577
     76          1           0        1.145915   -1.007763    1.359919
     77          1           0       -1.160196   -1.928268    1.429857
     78          1           0        0.268288   -2.974571    1.429295
     79          1           0        2.303061    4.264502   -2.939946
     80          1           0        3.532655    5.218467   -3.796892
     81          1           0        2.607255    5.833709   -2.355033
     82          1           0        4.210534    7.533260   -1.073946
     83          1           0        4.438770    7.161829   -2.797689
     84          1           0        5.511438    8.398371   -1.927021
     85          1           0        9.802403    3.599668    0.983752
     86          1           0       10.831153    0.821933    0.832421
     87          1           0       11.363802    3.597505   -0.686273
     88          1           0        9.964378    3.105198   -1.561381
     89          1           0       11.323423    1.939185   -1.132068
     90          1           0       11.000234    2.388552    2.735339
     91          1           0       10.569807    0.693715    3.289134
     92          1           0        8.616690    1.603925    4.239575
     93          1           0        8.229033    2.440885    2.870807
     94          1           0        9.377317    3.172576    4.037020
     95          1           0        7.503735   -4.362423    3.432826
     96          1           0        8.434390   -2.921123    3.405111
     97          1           0        8.656076   -4.050219    2.040373
     98          1           0        2.441989   -3.341518    1.737327
     99          1           0        0.543179   -6.108344   -1.105511
    100          1           0        1.582470   -7.272375   -0.281337
    101          1           0        2.172987   -6.344549   -1.618095
    102          1           0       -2.907247   -5.430594    0.537819
    103          1           0       -2.760614   -5.083270   -1.223096
    104          1           0       -4.906645   -4.452459    0.906124
    105          1           0       -5.782052   -5.115257   -3.102918
    106          1           0       -4.039354   -4.477232   -2.931790
    107          1           0       -5.254184   -3.377190   -3.012253
    108          1           0       -7.103213   -4.575386    0.142243
    109          1           0       -7.535082   -4.918854   -1.541900
    110          1           0       -6.622082   -2.182623   -1.315295
    111          1           0       -7.759552   -2.496503   -0.028056
    112          1           0       -8.689736   -3.468249   -2.574141
    113          1           0       -8.144261   -1.820834   -2.690209
    114          1           0      -10.070126   -2.659761   -0.521667
    115          1           0      -10.839563   -2.945418   -3.464843
    116          1           0      -11.941191   -2.024261   -2.484805
    117          1           0      -11.478101   -3.691349   -2.003472
    118          1           0      -10.716183   -0.174848   -2.156989
    119          1           0       -9.191370   -0.143834   -1.132057
    120          1           0      -11.588746   -1.224594    0.193616
    121          1           0      -11.867906    0.351218   -0.553602
    122          1           0       -9.394110    0.079992    1.147783
    123          1           0      -10.919606    0.034228    2.019364
    124          1           0      -10.985842    2.229900    0.160381
    125          1           0       -8.538804    2.193095    1.009585
    126          1           0       -9.193103    2.790752    2.528540
    127          1           0       -9.425706    3.801838    1.152272
    128          1           0      -11.483652    2.221641    3.072800
    129          1           0      -12.732510    1.817975    1.843837
    130          1           0      -11.375433    4.471233    1.402334
    131          1           0      -12.084394    4.529559    2.878986
    132          1           0      -13.848333    3.211028    0.699319
    133          1           0      -13.086280    4.655319    0.259701
    134          1           0      -14.035432    5.377489    2.790627
    135          1           0      -15.765515    4.095915    3.603938
    136          1           0      -15.417118    2.899403    2.251376
    137          1           0      -16.547320    4.245238    2.100128
    138          1           0      -16.142250    5.977312    0.753937
    139          1           0      -14.421410    6.540894    0.559286
    140          1           0      -15.419260    6.975324    1.933861
 ---------------------------------------------------------------------

 SCF Done:  E(RPBE1PBE) =  -3005.32551020     A.U. after   15 cycles

 Excitation energies and oscillator strengths:

 Excited State   1:      Singlet-A      1.8770 eV  660.55 nm  f=0.3544  <S**2>=0.000
     245 -> 248       -0.17982
     246 -> 247        0.68968
     246 <- 247       -0.10132
 This state for optimization and/or second-order correction.
 Total Energy, E(TD-HF/TD-DFT) =  -3005.25653270
 Copying the excited state density for this state as the 1-particle RhoCI density.

 Excited State   2:      Singlet-A      2.2282 eV  556.44 nm  f=0.1219  <S**2>=0.000
     245 -> 247        0.65321
     246 -> 248        0.25391

 Excited State   3:      Singlet-A      3.0018 eV  413.04 nm  f=0.0002  <S**2>=0.000
     243 -> 247        0.64571
     243 -> 249       -0.20390
     244 -> 247        0.16003

 Excited State   4:      Singlet-A      3.1227 eV  397.04 nm  f=0.0007  <S**2>=0.000
     243 -> 247       -0.16690
     244 -> 247        0.65529
     246 -> 248       -0.17453

 Excited State   5:      Singlet-A      3.2578 eV  380.57 nm  f=0.0023  <S**2>=0.000
     240 -> 247        0.11777
     242 -> 247        0.65387
     246 -> 248        0.12543

 The electronic state is 1-A.
 Alpha  occ. eigenvalues --  -46.93117 -19.24568 -19.24452 -19.21049 -19.19988
 Alpha  occ. eigenvalues --  -19.19410 -19.18718 -14.41514 -14.41442 -14.39440
 Alpha  occ. eigenvalues --  -14.38126 -10.37173 -10.36429 -10.32827 -10.31788
 Alpha  occ. eigenvalues --  -10.29617 -10.29356 -10.29132 -10.28855 -10.28306
 Alpha  occ. eigenvalues --  -10.27842 -10.27642 -10.27574 -10.26303 -10.26244
 Alpha  occ. eigenvalues --  -10.26010 -10.25875 -10.25827 -10.25775 -10.25764
 Alpha  occ. eigenvalues --  -10.25757 -10.25706 -10.25594 -10.25505 -10.25108
 Alpha  occ. eigenvalues --  -10.24942 -10.24912 -10.24499 -10.24420 -10.24417
 Alpha  occ. eigenvalues --  -10.24383 -10.24190 -10.23982 -10.23948 -10.23815
 Alpha  occ. eigenvalues --  -10.23728 -10.23536 -10.23476 -10.23475 -10.23426
 Alpha  occ. eigenvalues --  -10.22915 -10.22897 -10.22769 -10.22741 -10.22696
 Alpha  occ. eigenvalues --  -10.22677 -10.22606 -10.22572 -10.22565 -10.22488
 Alpha  occ. eigenvalues --  -10.22466 -10.22316 -10.22302 -10.21948 -10.21857
 Alpha  occ. eigenvalues --  -10.21688  -3.15335  -1.88100  -1.87759  -1.87547
 Alpha  occ. eigenvalues --   -1.11805  -1.08822  -1.04862  -1.03251  -1.02946
 Alpha  occ. eigenvalues --   -1.01697  -1.00684  -0.98614  -0.97165  -0.96826
 Alpha  occ. eigenvalues --   -0.87153  -0.84914  -0.84412  -0.83242  -0.82863
 Alpha  occ. eigenvalues --   -0.82689  -0.82155  -0.81170  -0.80999  -0.80756
 Alpha  occ. eigenvalues --   -0.79898  -0.79681  -0.78583  -0.77472  -0.77387
 Alpha  occ. eigenvalues --   -0.76570  -0.76093  -0.75454  -0.74536  -0.74141
 Alpha  occ. eigenvalues --   -0.73897  -0.72284  -0.72077  -0.70961  -0.70596
 Alpha  occ. eigenvalues --   -0.70085  -0.69588  -0.69571  -0.68897  -0.67914
 Alpha  occ. eigenvalues --   -0.67669  -0.67042  -0.65641  -0.64642  -0.63599
 Alpha  occ. eigenvalues --   -0.62801  -0.62553  -0.61636  -0.61410  -0.59986
 Alpha  occ. eigenvalues --   -0.59460  -0.59398  -0.58860  -0.58229  -0.57687
 Alpha  occ. eigenvalues --   -0.57557  -0.57277  -0.56441  -0.56022  -0.55015
 Alpha  occ. eigenvalues --   -0.54658  -0.53873  -0.53684  -0.52987  -0.52344
 Alpha  occ. eigenvalues --   -0.51618  -0.51209  -0.50525  -0.50142  -0.49758
 Alpha  occ. eigenvalues --   -0.49394  -0.49239  -0.48624  -0.48410  -0.48216
 Alpha  occ. eigenvalues --   -0.48077  -0.47529  -0.47450  -0.47278  -0.47093
 Alpha  occ. eigenvalues --   -0.47061  -0.46909  -0.46728  -0.46407  -0.46309
 Alpha  occ. eigenvalues --   -0.45934  -0.45723  -0.45600  -0.45417  -0.45327
 Alpha  occ. eigenvalues --   -0.45260  -0.44757  -0.44564  -0.44065  -0.43976
 Alpha  occ. eigenvalues --   -0.43939  -0.43846  -0.43752  -0.43566  -0.43282
 Alpha  occ. eigenvalues --   -0.43245  -0.43180  -0.42919  -0.42805  -0.42527
 Alpha  occ. eigenvalues --   -0.42048  -0.41725  -0.41617  -0.41415  -0.41370
 Alpha  occ. eigenvalues --   -0.41019  -0.40946  -0.40799  -0.40156  -0.40015
 Alpha  occ. eigenvalues --   -0.39899  -0.39834  -0.39554  -0.39530  -0.39365
 Alpha  occ. eigenvalues --   -0.39227  -0.39202  -0.38998  -0.38753  -0.38549
 Alpha  occ. eigenvalues --   -0.38528  -0.38178  -0.37919  -0.37890  -0.37796
 Alpha  occ. eigenvalues --   -0.37605  -0.37275  -0.37209  -0.37031  -0.36938
 Alpha  occ. eigenvalues --   -0.36818  -0.36533  -0.36145  -0.35816  -0.35439
 Alpha  occ. eigenvalues --   -0.35333  -0.35296  -0.35215  -0.35051  -0.34823
 Alpha  occ. eigenvalues --   -0.34759  -0.34479  -0.34215  -0.34080  -0.33956
 Alpha  occ. eigenvalues --   -0.33700  -0.33084  -0.32836  -0.32478  -0.31910
 Alpha  occ. eigenvalues --   -0.31773  -0.31699  -0.31375  -0.31181  -0.30714
 Alpha  occ. eigenvalues --   -0.30556  -0.30294  -0.29739  -0.29524  -0.29124
 Alpha  occ. eigenvalues --   -0.29041  -0.28703  -0.28354  -0.26716  -0.26386
 Alpha  occ. eigenvalues --   -0.25844  -0.25768  -0.25367  -0.25146  -0.20531
 Alpha  occ. eigenvalues --   -0.18615
 Alpha virt. eigenvalues --   -0.10827  -0.05050  -0.03868  -0.02012  -0.01919
 Alpha virt. eigenvalues --   -0.00074   0.00299   0.00849   0.01616   0.03150
 Alpha virt. eigenvalues --    0.04139   0.05150   0.05528   0.05745   0.06116

 Mulliken charges:
               1
     1  Mg   0.994385
     2  C   -0.058312
     3  C   -0.076843
     4  C   -0.052975
     5  C   -0.075425
     6  N   -0.323489
     7  C    0.020540
     8  C   -0.072717
     9  C   -0.117015
    10  C    0.043914
    11  C    0.011420
    12  C    0.017196
    13  C   -0.101640
    14  C    0.250179
    15  O   -0.233496
    16  O   -0.387097
    17  N   -0.511062
    18  C    0.202224
    19  C   -0.187391
    20  C   -0.084252
    21  C    0.146876
    22  C    0.044436
    23  C    0.047245
    24  O   -0.240623
    25  C   -0.011216
    26  N   -0.439587
    27  C    0.054728
    28  C   -0.123403
    29  C   -0.066402
    30  C    0.079773
    31  C    0.018017
    32  C   -0.030996
    33  C   -0.093261
    34  N   -0.392576
    35  C    0.115394
    36  C   -0.182309
    37  C   -0.088132
    38  C    0.155612
    39  C    0.068382
    40  C    0.170553
    41  O   -0.229554
    42  C   -0.109647
    43  C    0.300599
    44  O   -0.238347
    45  O   -0.387239
    46  C    0.123003
    47  C    0.261243
    48  C   -0.146541
    49  C   -0.203750
    50  C    0.021567
    51  C    0.022182
    52  C   -0.035586
    53  C   -0.013966
    54  C   -0.214836
    55  C   -0.028870
    56  C   -0.020447
    57  C   -0.069378
    58  C    0.027516
    59  C   -0.221292
    60  C   -0.002478
    61  C   -0.036775
    62  C   -0.052107
    63  C   -0.013460
    64  C   -0.230840
    65  C    0.003810
    66  C   -0.020075
    67  H   -0.007485
    68  H    0.033510
    69  H   -0.003759
    70  H    0.092944
    71  H    0.040572
    72  H    0.029392
    73  H    0.049588
    74  H    0.056741
    75  H    0.042117
    76  H    0.055075
    77  H    0.070054
    78  H    0.083851
    79  H    0.026397
    80  H    0.076148
    81  H    0.053060
    82  H    0.068022
    83  H    0.061169
    84  H    0.061053
    85  H    0.053923
    86  H    0.042433
    87  H    0.035329
    88  H    0.048444
    89  H    0.055759
    90  H    0.043567
    91  H    0.052090
    92  H    0.034971
    93  H    0.046343
    94  H    0.046386
    95  H    0.059465
    96  H    0.042585
    97  H    0.063948
    98  H    0.079060
    99  H    0.057733
   100  H    0.052804
   101  H    0.053195
   102  H    0.034124
   103  H    0.056257
   104  H    0.023994
   105  H    0.055314
   106  H    0.045252
   107  H    0.048220
   108  H    0.029682
   109  H    0.036514
   110  H    0.037007
   111  H    0.031207
   112  H    0.013737
   113  H    0.025970
   114  H    0.031997
   115  H    0.040062
   116  H    0.034598
   117  H    0.039303
   118  H    0.034900
   119  H    0.030389
   120  H    0.031188
   121  H    0.026100
   122  H    0.022806
   123  H    0.022297
   124  H    0.024697
   125  H    0.036520
   126  H    0.024196
   127  H    0.042347
   128  H    0.025178
   129  H    0.036610
   130  H    0.017680
   131  H    0.028918
   132  H    0.029765
   133  H    0.014995
   134  H    0.037534
   135  H    0.036919
   136  H    0.043162
   137  H    0.017526
   138  H    0.034565
   139  H    0.035387
   140  H    0.031216
 Sum of Mulliken charges =  -0.00000

 Dipole moment (field-independent basis, Debye):
    X=             -4.6681    Y=              3.9996    Z=              1.1524  Tot=              6.2543
 Quadrupole moment (field-independent basis, Debye-Ang):
   XX=           -386.4418   YY=           -417.0659   ZZ=           -402.0486
   XY=             15.7616   XZ=             22.2917   YZ=              8.8605

 Normal termination of Gaussian 16 at Tue May  3 23:11:41 2022.
