 Gaussian 16, Revision A.03,
 Gaussian 16:  ES64L-G16RevA.03 25-Dec-2016

 --------------------------------
 #p wB97XD/Def2SVP td=(nstates=5)
 --------------------------------

 -----------------------------------------------------
 step_1101_chromophore_10 TDDFT with wB97XD functional
 -----------------------------------------------------
 Symbolic Z-matrix:
 Charge =  0 Multiplicity = 1

                         Standard orientation:
 ---------------------------------------------------------------------
 Center     Atomic      Atomic             Coordinates (Angstroms)
 Number     Number       Type             X           Y           Z
 ---------------------------------------------------------------------
      1         12           0        5.703713    1.126918    0.170839
      2          6           0        3.694392   -2.029967    0.643844
      3          6           0        3.106713    2.057302   -1.815923
      4          6           0        7.469609    3.652283   -0.433527
      5          6           0        8.352817   -0.773582    1.516936
      6          7           0        3.690985    0.034704   -0.706514
      7          6           0        2.968553   -1.124864   -0.252089
      8          6           0        1.497388   -1.222528   -0.779100
      9          6           0        1.468173    0.053294   -1.676854
     10          6           0        2.850261    0.747495   -1.435131
     11          6           0        1.093294   -0.256399   -3.113998
     12          6           0        0.607764   -1.107457    0.416978
     13          6           0       -0.345933   -2.313723    0.817431
     14          6           0       -1.100137   -3.156306   -0.269394
     15          8           0       -0.804406   -3.531952   -1.360089
     16          8           0       -2.312710   -3.562376    0.269723
     17          7           0        5.301152    2.694529   -0.914034
     18          6           0        4.190669    2.958970   -1.595688
     19          6           0        4.196159    4.334982   -1.961118
     20          6           0        5.446447    4.871263   -1.575576
     21          6           0        6.158981    3.678018   -0.976142
     22          6           0        3.110963    4.986136   -2.819565
     23          6           0        5.933412    6.351408   -1.622230
     24          8           0        7.129565    6.575367   -1.485089
     25          6           0        4.939623    7.472649   -1.880841
     26          7           0        7.737021    1.220510    0.282268
     27          6           0        8.218688    2.524869    0.033711
     28          6           0        9.749347    2.666990    0.422729
     29          6           0        9.971922    1.368044    1.221533
     30          6           0        8.628109    0.512053    0.983652
     31          6           0       10.679242    2.759001   -0.815921
     32          6           0       10.256395    1.591781    2.755885
     33          6           0        9.091856    2.261645    3.510856
     34          7           0        6.013868   -0.950167    0.931677
     35          6           0        7.131457   -1.488709    1.481439
     36          6           0        6.876427   -2.779274    1.989941
     37          6           0        5.507958   -2.989427    1.754769
     38          6           0        5.033204   -1.862290    1.083296
     39          6           0        7.937781   -3.634366    2.747245
     40          6           0        4.495365   -4.056601    1.752388
     41          8           0        4.399815   -5.235632    2.146672
     42          6           0        3.318404   -3.427991    1.094564
     43          6           0        2.952692   -4.310003   -0.083058
     44          8           0        3.334712   -4.076081   -1.221737
     45          8           0        2.097341   -5.380779    0.285825
     46          6           0        1.550268   -6.277730   -0.726114
     47          6           0       -3.060381   -4.693000   -0.249899
     48          6           0       -4.558536   -4.540403   -0.123005
     49          6           0       -5.452518   -4.451113   -1.157644
     50          6           0       -5.091745   -4.395754   -2.661346
     51          6           0       -6.922151   -4.290920   -0.894102
     52          6           0       -7.425670   -2.850521   -1.002969
     53          6           0       -8.514637   -2.567122   -1.987602
     54          6           0       -9.953568   -2.183197   -1.494866
     55          6           0      -11.131583   -2.752230   -2.433511
     56          6           0      -10.161367   -0.604165   -1.322555
     57          6           0      -11.115712   -0.282563   -0.083247
     58          6           0      -10.440149    0.383483    1.104053
     59          6           0      -10.621185    1.950169    1.148374
     60          6           0       -9.360876    2.756563    1.452296
     61          6           0      -11.847781    2.415396    2.063364
     62          6           0      -12.176237    3.972366    1.947043
     63          6           0      -13.477305    4.138809    1.135686
     64          6           0      -14.578344    4.929194    1.957979
     65          6           0      -15.598518    3.934782    2.538098
     66          6           0      -15.185966    6.167117    1.240654
     67          1           0        2.194200    2.418424   -2.296001
     68          1           0        8.054607    4.571250   -0.511810
     69          1           0        9.120420   -1.214919    2.156418
     70          1           0        1.288547   -2.181438   -1.253049
     71          1           0        0.713963    0.785492   -1.390421
     72          1           0        0.470681    0.507445   -3.580430
     73          1           0        0.411573   -1.107108   -3.122725
     74          1           0        1.960219   -0.491140   -3.731552
     75          1           0       -0.056205   -0.258532    0.254577
     76          1           0        1.145915   -1.007763    1.359919
     77          1           0       -1.160196   -1.928268    1.429857
     78          1           0        0.268288   -2.974571    1.429295
     79          1           0        2.303061    4.264502   -2.939946
     80          1           0        3.532655    5.218467   -3.796892
     81          1           0        2.607255    5.833709   -2.355033
     82          1           0        4.210534    7.533260   -1.073946
     83          1           0        4.438770    7.161829   -2.797689
     84          1           0        5.511438    8.398371   -1.927021
     85          1           0        9.802403    3.599668    0.983752
     86          1           0       10.831153    0.821933    0.832421
     87          1           0       11.363802    3.597505   -0.686273
     88          1           0        9.964378    3.105198   -1.561381
     89          1           0       11.323423    1.939185   -1.132068
     90          1           0       11.000234    2.388552    2.735339
     91          1           0       10.569807    0.693715    3.289134
     92          1           0        8.616690    1.603925    4.239575
     93          1           0        8.229033    2.440885    2.870807
     94          1           0        9.377317    3.172576    4.037020
     95          1           0        7.503735   -4.362423    3.432826
     96          1           0        8.434390   -2.921123    3.405111
     97          1           0        8.656076   -4.050219    2.040373
     98          1           0        2.441989   -3.341518    1.737327
     99          1           0        0.543179   -6.108344   -1.105511
    100          1           0        1.582470   -7.272375   -0.281337
    101          1           0        2.172987   -6.344549   -1.618095
    102          1           0       -2.907247   -5.430594    0.537819
    103          1           0       -2.760614   -5.083270   -1.223096
    104          1           0       -4.906645   -4.452459    0.906124
    105          1           0       -5.782052   -5.115257   -3.102918
    106          1           0       -4.039354   -4.477232   -2.931790
    107          1           0       -5.254184   -3.377190   -3.012253
    108          1           0       -7.103213   -4.575386    0.142243
    109          1           0       -7.535082   -4.918854   -1.541900
    110          1           0       -6.622082   -2.182623   -1.315295
    111          1           0       -7.759552   -2.496503   -0.028056
    112          1           0       -8.689736   -3.468249   -2.574141
    113          1           0       -8.144261   -1.820834   -2.690209
    114          1           0      -10.070126   -2.659761   -0.521667
    115          1           0      -10.839563   -2.945418   -3.464843
    116          1           0      -11.941191   -2.024261   -2.484805
    117          1           0      -11.478101   -3.691349   -2.003472
    118          1           0      -10.716183   -0.174848   -2.156989
    119          1           0       -9.191370   -0.143834   -1.132057
    120          1           0      -11.588746   -1.224594    0.193616
    121          1           0      -11.867906    0.351218   -0.553602
    122          1           0       -9.394110    0.079992    1.147783
    123          1           0      -10.919606    0.034228    2.019364
    124          1           0      -10.985842    2.229900    0.160381
    125          1           0       -8.538804    2.193095    1.009585
    126          1           0       -9.193103    2.790752    2.528540
    127          1           0       -9.425706    3.801838    1.152272
    128          1           0      -11.483652    2.221641    3.072800
    129          1           0      -12.732510    1.817975    1.843837
    130          1           0      -11.375433    4.471233    1.402334
    131          1           0      -12.084394    4.529559    2.878986
    132          1           0      -13.848333    3.211028    0.699319
    133          1           0      -13.086280    4.655319    0.259701
    134          1           0      -14.035432    5.377489    2.790627
    135          1           0      -15.765515    4.095915    3.603938
    136          1           0      -15.417118    2.899403    2.251376
    137          1           0      -16.547320    4.245238    2.100128
    138          1           0      -16.142250    5.977312    0.753937
    139          1           0      -14.421410    6.540894    0.559286
    140          1           0      -15.419260    6.975324    1.933861
 ---------------------------------------------------------------------

 SCF Done:  E(RwB97XD) =  -3007.83485148     A.U. after   17 cycles

 Excitation energies and oscillator strengths:

 Excited State   1:      Singlet-A      1.6613 eV  746.32 nm  f=0.3673  <S**2>=0.000
     245 -> 248       -0.19120
     246 -> 247        0.68066
     245 <- 248       -0.11762
 This state for optimization and/or second-order correction.
 Total Energy, E(TD-HF/TD-DFT) =  -3007.77380058
 Copying the excited state density for this state as the 1-particle RhoCI density.

 Excited State   2:      Singlet-A      2.1674 eV  572.05 nm  f=0.1233  <S**2>=0.000
     245 -> 247        0.64098
     246 -> 248        0.28225

 Excited State   3:      Singlet-A      3.4314 eV  361.32 nm  f=0.0501  <S**2>=0.000
     242 -> 247        0.12269
     244 -> 247        0.59723
     246 -> 248       -0.29586

 Excited State   4:      Singlet-A      3.4967 eV  354.57 nm  f=0.0002  <S**2>=0.000
     242 -> 247        0.50591
     242 -> 249       -0.35457
     242 -> 251        0.17284
     243 -> 247        0.12012
     244 -> 247       -0.17612

 Excited State   5:      Singlet-A      3.6181 eV  342.68 nm  f=0.6554  <S**2>=0.000
     241 -> 247        0.21728
     244 -> 247        0.26989
     245 -> 247       -0.25816
     246 -> 248        0.54028
     245 <- 247        0.10361

 The electronic state is 1-A.
 Alpha  occ. eigenvalues --  -46.96038 -19.29140 -19.28988 -19.25733 -19.24713
 Alpha  occ. eigenvalues --  -19.24251 -19.23565 -14.46704 -14.46424 -14.44444
 Alpha  occ. eigenvalues --  -14.43018 -10.43962 -10.43283 -10.39671 -10.38691
 Alpha  occ. eigenvalues --  -10.35808 -10.35669 -10.35623 -10.35064 -10.34754
 Alpha  occ. eigenvalues --  -10.34186 -10.34154 -10.33962 -10.32677 -10.32545
 Alpha  occ. eigenvalues --  -10.32415 -10.32157 -10.32130 -10.32079 -10.32044
 Alpha  occ. eigenvalues --  -10.32035 -10.31982 -10.31978 -10.31942 -10.31467
 Alpha  occ. eigenvalues --  -10.31332 -10.31234 -10.31077 -10.30999 -10.30688
 Alpha  occ. eigenvalues --  -10.30666 -10.30571 -10.30458 -10.30255 -10.30208
 Alpha  occ. eigenvalues --  -10.30088 -10.29931 -10.29842 -10.29750 -10.29708
 Alpha  occ. eigenvalues --  -10.29267 -10.29245 -10.29152 -10.29132 -10.29052
 Alpha  occ. eigenvalues --  -10.28988 -10.28977 -10.28976 -10.28922 -10.28877
 Alpha  occ. eigenvalues --  -10.28830 -10.28685 -10.28644 -10.28398 -10.28288
 Alpha  occ. eigenvalues --  -10.28113  -3.22144  -1.95656  -1.95313  -1.95095
 Alpha  occ. eigenvalues --   -1.19165  -1.16257  -1.12366  -1.10582  -1.10482
 Alpha  occ. eigenvalues --   -1.09083  -1.08055  -1.05904  -1.04570  -1.04200
 Alpha  occ. eigenvalues --   -0.94795  -0.92578  -0.92046  -0.90928  -0.90517
 Alpha  occ. eigenvalues --   -0.90255  -0.89828  -0.88837  -0.88678  -0.88372
 Alpha  occ. eigenvalues --   -0.87485  -0.87316  -0.86240  -0.85076  -0.85011
 Alpha  occ. eigenvalues --   -0.84220  -0.83892  -0.83115  -0.82165  -0.81770
 Alpha  occ. eigenvalues --   -0.81553  -0.79969  -0.79761  -0.78552  -0.78276
 Alpha  occ. eigenvalues --   -0.77687  -0.77271  -0.77155  -0.76593  -0.75569
 Alpha  occ. eigenvalues --   -0.75259  -0.74584  -0.73177  -0.72251  -0.71138
 Alpha  occ. eigenvalues --   -0.70397  -0.70127  -0.69224  -0.69040  -0.67512
 Alpha  occ. eigenvalues --   -0.67067  -0.66863  -0.66316  -0.65697  -0.65334
 Alpha  occ. eigenvalues --   -0.65190  -0.64759  -0.64094  -0.63427  -0.62463
 Alpha  occ. eigenvalues --   -0.62194  -0.61338  -0.61094  -0.60329  -0.59927
 Alpha  occ. eigenvalues --   -0.59016  -0.58662  -0.57952  -0.57604  -0.57152
 Alpha  occ. eigenvalues --   -0.56748  -0.56612  -0.56035  -0.55822  -0.55615
 Alpha  occ. eigenvalues --   -0.55519  -0.54982  -0.54876  -0.54660  -0.54510
 Alpha  occ. eigenvalues --   -0.54396  -0.54275  -0.54141  -0.53801  -0.53677
 Alpha  occ. eigenvalues --   -0.53290  -0.53160  -0.53021  -0.52786  -0.52699
 Alpha  occ. eigenvalues --   -0.52594  -0.52096  -0.51870  -0.51417  -0.51380
 Alpha  occ. eigenvalues --   -0.51222  -0.51136  -0.51064  -0.50910  -0.50600
 Alpha  occ. eigenvalues --   -0.50587  -0.50544  -0.50247  -0.50033  -0.49796
 Alpha  occ. eigenvalues --   -0.49273  -0.48990  -0.48874  -0.48668  -0.48634
 Alpha  occ. eigenvalues --   -0.48210  -0.48106  -0.48029  -0.47431  -0.47125
 Alpha  occ. eigenvalues --   -0.47122  -0.46946  -0.46785  -0.46706  -0.46542
 Alpha  occ. eigenvalues --   -0.46441  -0.46407  -0.46125  -0.45916  -0.45733
 Alpha  occ. eigenvalues --   -0.45660  -0.45284  -0.45064  -0.44975  -0.44904
 Alpha  occ. eigenvalues --   -0.44719  -0.44485  -0.44324  -0.44256  -0.44033
 Alpha  occ. eigenvalues --   -0.43903  -0.43597  -0.43217  -0.42889  -0.42492
 Alpha  occ. eigenvalues --   -0.42434  -0.42329  -0.42293  -0.42165  -0.41860
 Alpha  occ. eigenvalues --   -0.41769  -0.41459  -0.41239  -0.41033  -0.40953
 Alpha  occ. eigenvalues --   -0.40629  -0.40092  -0.39863  -0.39385  -0.38969
 Alpha  occ. eigenvalues --   -0.38805  -0.38746  -0.38399  -0.38061  -0.37721
 Alpha  occ. eigenvalues --   -0.37584  -0.37283  -0.36733  -0.36567  -0.35926
 Alpha  occ. eigenvalues --   -0.35916  -0.35618  -0.35192  -0.33477  -0.33164
 Alpha  occ. eigenvalues --   -0.32647  -0.32539  -0.32519  -0.31623  -0.25466
 Alpha  occ. eigenvalues --   -0.22816
 Alpha virt. eigenvalues --   -0.06691   0.00425   0.02413   0.04008   0.04515
 Alpha virt. eigenvalues --    0.06644   0.07104   0.07633   0.08386   0.09950
 Alpha virt. eigenvalues --    0.10967   0.11471   0.12290   0.12486   0.12787

 Mulliken charges:
               1
     1  Mg   0.986659
     2  C   -0.058900
     3  C   -0.085731
     4  C   -0.075407
     5  C   -0.092986
     6  N   -0.289334
     7  C   -0.008297
     8  C   -0.044157
     9  C   -0.089910
    10  C    0.021161
    11  C    0.018959
    12  C    0.025780
    13  C   -0.080980
    14  C    0.236558
    15  O   -0.228130
    16  O   -0.386039
    17  N   -0.475680
    18  C    0.192926
    19  C   -0.176578
    20  C   -0.083081
    21  C    0.142280
    22  C    0.056568
    23  C    0.043682
    24  O   -0.235698
    25  C    0.001167
    26  N   -0.412231
    27  C    0.053316
    28  C   -0.105016
    29  C   -0.038306
    30  C    0.062183
    31  C    0.027558
    32  C   -0.016819
    33  C   -0.073623
    34  N   -0.353791
    35  C    0.112086
    36  C   -0.185332
    37  C   -0.086220
    38  C    0.138152
    39  C    0.081127
    40  C    0.155120
    41  O   -0.219495
    42  C   -0.068152
    43  C    0.279198
    44  O   -0.232694
    45  O   -0.386383
    46  C    0.139162
    47  C    0.275913
    48  C   -0.157897
    49  C   -0.188448
    50  C    0.033450
    51  C    0.041903
    52  C   -0.023254
    53  C    0.002297
    54  C   -0.186177
    55  C   -0.016759
    56  C   -0.005663
    57  C   -0.051238
    58  C    0.041649
    59  C   -0.188953
    60  C    0.011260
    61  C   -0.018567
    62  C   -0.037146
    63  C    0.000325
    64  C   -0.201447
    65  C    0.015739
    66  C   -0.005916
    67  H   -0.016966
    68  H    0.029216
    69  H   -0.011689
    70  H    0.076991
    71  H    0.029689
    72  H    0.024259
    73  H    0.044481
    74  H    0.051985
    75  H    0.033893
    76  H    0.045853
    77  H    0.065572
    78  H    0.074025
    79  H    0.021704
    80  H    0.071950
    81  H    0.048392
    82  H    0.063815
    83  H    0.053996
    84  H    0.060178
    85  H    0.045040
    86  H    0.033416
    87  H    0.029872
    88  H    0.040040
    89  H    0.051919
    90  H    0.033836
    91  H    0.046325
    92  H    0.029163
    93  H    0.031417
    94  H    0.042108
    95  H    0.055913
    96  H    0.035398
    97  H    0.059405
    98  H    0.068469
    99  H    0.053301
   100  H    0.048898
   101  H    0.049138
   102  H    0.028795
   103  H    0.050293
   104  H    0.022021
   105  H    0.049576
   106  H    0.040802
   107  H    0.041593
   108  H    0.023033
   109  H    0.027860
   110  H    0.027882
   111  H    0.022714
   112  H    0.001200
   113  H    0.018466
   114  H    0.017810
   115  H    0.034518
   116  H    0.027868
   117  H    0.034065
   118  H    0.026881
   119  H    0.018969
   120  H    0.022460
   121  H    0.016755
   122  H    0.013367
   123  H    0.014259
   124  H    0.007065
   125  H    0.029695
   126  H    0.017179
   127  H    0.036790
   128  H    0.014700
   129  H    0.025131
   130  H    0.006228
   131  H    0.022251
   132  H    0.020108
   133  H    0.007012
   134  H    0.024446
   135  H    0.032093
   136  H    0.037077
   137  H    0.009809
   138  H    0.028071
   139  H    0.028706
   140  H    0.025701
 Sum of Mulliken charges =  -0.00000

 Dipole moment (field-independent basis, Debye):
    X=             -4.8449    Y=              4.1889    Z=              1.0915  Tot=              6.4971
 Quadrupole moment (field-independent basis, Debye-Ang):
   XX=           -388.8755   YY=           -415.0932   ZZ=           -401.5983
   XY=             16.2198   XZ=             21.8167   YZ=              8.3896

 Normal termination of Gaussian 16 at Tue May  3 23:45:16 2022.
