 Gaussian 16, Revision A.03,
 Gaussian 16:  ES64L-G16RevA.03 25-Dec-2016

 --------------------
 #p ZINDO=(nstates=5)
 --------------------

 ------------------------------
 step_1101_chromophore_10 ZINDO
 ------------------------------
 Symbolic Z-matrix:
 Charge =  0 Multiplicity = 1

                         Standard orientation:
 ---------------------------------------------------------------------
 Center     Atomic      Atomic             Coordinates (Angstroms)
 Number     Number       Type             X           Y           Z
 ---------------------------------------------------------------------
      1         12           0        5.703713    1.126918    0.170839
      2          6           0        3.694392   -2.029967    0.643844
      3          6           0        3.106713    2.057302   -1.815923
      4          6           0        7.469609    3.652283   -0.433527
      5          6           0        8.352817   -0.773582    1.516936
      6          7           0        3.690985    0.034704   -0.706514
      7          6           0        2.968553   -1.124864   -0.252089
      8          6           0        1.497388   -1.222528   -0.779100
      9          6           0        1.468173    0.053294   -1.676854
     10          6           0        2.850261    0.747495   -1.435131
     11          6           0        1.093294   -0.256399   -3.113998
     12          6           0        0.607764   -1.107457    0.416978
     13          6           0       -0.345933   -2.313723    0.817431
     14          6           0       -1.100137   -3.156306   -0.269394
     15          8           0       -0.804406   -3.531952   -1.360089
     16          8           0       -2.312710   -3.562376    0.269723
     17          7           0        5.301152    2.694529   -0.914034
     18          6           0        4.190669    2.958970   -1.595688
     19          6           0        4.196159    4.334982   -1.961118
     20          6           0        5.446447    4.871263   -1.575576
     21          6           0        6.158981    3.678018   -0.976142
     22          6           0        3.110963    4.986136   -2.819565
     23          6           0        5.933412    6.351408   -1.622230
     24          8           0        7.129565    6.575367   -1.485089
     25          6           0        4.939623    7.472649   -1.880841
     26          7           0        7.737021    1.220510    0.282268
     27          6           0        8.218688    2.524869    0.033711
     28          6           0        9.749347    2.666990    0.422729
     29          6           0        9.971922    1.368044    1.221533
     30          6           0        8.628109    0.512053    0.983652
     31          6           0       10.679242    2.759001   -0.815921
     32          6           0       10.256395    1.591781    2.755885
     33          6           0        9.091856    2.261645    3.510856
     34          7           0        6.013868   -0.950167    0.931677
     35          6           0        7.131457   -1.488709    1.481439
     36          6           0        6.876427   -2.779274    1.989941
     37          6           0        5.507958   -2.989427    1.754769
     38          6           0        5.033204   -1.862290    1.083296
     39          6           0        7.937781   -3.634366    2.747245
     40          6           0        4.495365   -4.056601    1.752388
     41          8           0        4.399815   -5.235632    2.146672
     42          6           0        3.318404   -3.427991    1.094564
     43          6           0        2.952692   -4.310003   -0.083058
     44          8           0        3.334712   -4.076081   -1.221737
     45          8           0        2.097341   -5.380779    0.285825
     46          6           0        1.550268   -6.277730   -0.726114
     47          6           0       -3.060381   -4.693000   -0.249899
     48          6           0       -4.558536   -4.540403   -0.123005
     49          6           0       -5.452518   -4.451113   -1.157644
     50          6           0       -5.091745   -4.395754   -2.661346
     51          6           0       -6.922151   -4.290920   -0.894102
     52          6           0       -7.425670   -2.850521   -1.002969
     53          6           0       -8.514637   -2.567122   -1.987602
     54          6           0       -9.953568   -2.183197   -1.494866
     55          6           0      -11.131583   -2.752230   -2.433511
     56          6           0      -10.161367   -0.604165   -1.322555
     57          6           0      -11.115712   -0.282563   -0.083247
     58          6           0      -10.440149    0.383483    1.104053
     59          6           0      -10.621185    1.950169    1.148374
     60          6           0       -9.360876    2.756563    1.452296
     61          6           0      -11.847781    2.415396    2.063364
     62          6           0      -12.176237    3.972366    1.947043
     63          6           0      -13.477305    4.138809    1.135686
     64          6           0      -14.578344    4.929194    1.957979
     65          6           0      -15.598518    3.934782    2.538098
     66          6           0      -15.185966    6.167117    1.240654
     67          1           0        2.194200    2.418424   -2.296001
     68          1           0        8.054607    4.571250   -0.511810
     69          1           0        9.120420   -1.214919    2.156418
     70          1           0        1.288547   -2.181438   -1.253049
     71          1           0        0.713963    0.785492   -1.390421
     72          1           0        0.470681    0.507445   -3.580430
     73          1           0        0.411573   -1.107108   -3.122725
     74          1           0        1.960219   -0.491140   -3.731552
     75          1           0       -0.056205   -0.258532    0.254577
     76          1           0        1.145915   -1.007763    1.359919
     77          1           0       -1.160196   -1.928268    1.429857
     78          1           0        0.268288   -2.974571    1.429295
     79          1           0        2.303061    4.264502   -2.939946
     80          1           0        3.532655    5.218467   -3.796892
     81          1           0        2.607255    5.833709   -2.355033
     82          1           0        4.210534    7.533260   -1.073946
     83          1           0        4.438770    7.161829   -2.797689
     84          1           0        5.511438    8.398371   -1.927021
     85          1           0        9.802403    3.599668    0.983752
     86          1           0       10.831153    0.821933    0.832421
     87          1           0       11.363802    3.597505   -0.686273
     88          1           0        9.964378    3.105198   -1.561381
     89          1           0       11.323423    1.939185   -1.132068
     90          1           0       11.000234    2.388552    2.735339
     91          1           0       10.569807    0.693715    3.289134
     92          1           0        8.616690    1.603925    4.239575
     93          1           0        8.229033    2.440885    2.870807
     94          1           0        9.377317    3.172576    4.037020
     95          1           0        7.503735   -4.362423    3.432826
     96          1           0        8.434390   -2.921123    3.405111
     97          1           0        8.656076   -4.050219    2.040373
     98          1           0        2.441989   -3.341518    1.737327
     99          1           0        0.543179   -6.108344   -1.105511
    100          1           0        1.582470   -7.272375   -0.281337
    101          1           0        2.172987   -6.344549   -1.618095
    102          1           0       -2.907247   -5.430594    0.537819
    103          1           0       -2.760614   -5.083270   -1.223096
    104          1           0       -4.906645   -4.452459    0.906124
    105          1           0       -5.782052   -5.115257   -3.102918
    106          1           0       -4.039354   -4.477232   -2.931790
    107          1           0       -5.254184   -3.377190   -3.012253
    108          1           0       -7.103213   -4.575386    0.142243
    109          1           0       -7.535082   -4.918854   -1.541900
    110          1           0       -6.622082   -2.182623   -1.315295
    111          1           0       -7.759552   -2.496503   -0.028056
    112          1           0       -8.689736   -3.468249   -2.574141
    113          1           0       -8.144261   -1.820834   -2.690209
    114          1           0      -10.070126   -2.659761   -0.521667
    115          1           0      -10.839563   -2.945418   -3.464843
    116          1           0      -11.941191   -2.024261   -2.484805
    117          1           0      -11.478101   -3.691349   -2.003472
    118          1           0      -10.716183   -0.174848   -2.156989
    119          1           0       -9.191370   -0.143834   -1.132057
    120          1           0      -11.588746   -1.224594    0.193616
    121          1           0      -11.867906    0.351218   -0.553602
    122          1           0       -9.394110    0.079992    1.147783
    123          1           0      -10.919606    0.034228    2.019364
    124          1           0      -10.985842    2.229900    0.160381
    125          1           0       -8.538804    2.193095    1.009585
    126          1           0       -9.193103    2.790752    2.528540
    127          1           0       -9.425706    3.801838    1.152272
    128          1           0      -11.483652    2.221641    3.072800
    129          1           0      -12.732510    1.817975    1.843837
    130          1           0      -11.375433    4.471233    1.402334
    131          1           0      -12.084394    4.529559    2.878986
    132          1           0      -13.848333    3.211028    0.699319
    133          1           0      -13.086280    4.655319    0.259701
    134          1           0      -14.035432    5.377489    2.790627
    135          1           0      -15.765515    4.095915    3.603938
    136          1           0      -15.417118    2.899403    2.251376
    137          1           0      -16.547320    4.245238    2.100128
    138          1           0      -16.142250    5.977312    0.753937
    139          1           0      -14.421410    6.540894    0.559286
    140          1           0      -15.419260    6.975324    1.933861
 ---------------------------------------------------------------------

 SCF Done:  E(RZINDO/S) =  -473.993482656     A.U. after   20 cycles

 Excitation energies and oscillator strengths:

 Excited State   1:      Singlet-A      1.2147 eV 1020.74 nm  f=0.5726  <S**2>=0.000
     175 ->178        -0.19632
     176 ->177         0.66061
 This state for optimization and/or second-order correction.
 Total Energy, E(CIS/TDA) =  -473.948845049
 Copying the excited state density for this state as the 1-particle RhoCI density.

 Excited State   2:      Singlet-A      1.8457 eV  671.76 nm  f=0.0645  <S**2>=0.000
     175 ->177         0.56591
     176 ->178         0.39608

 Excited State   3:      Singlet-A      2.9043 eV  426.90 nm  f=0.0101  <S**2>=0.000
     176 ->179         0.44047
     176 ->180         0.51512

 Excited State   4:      Singlet-A      2.9171 eV  425.02 nm  f=0.4410  <S**2>=0.000
     169 ->177        -0.18196
     169 ->178        -0.10391
     169 ->179         0.21474
     169 ->181        -0.15165
     169 ->186         0.10624
     175 ->177        -0.24137
     176 ->178         0.38640
     176 ->179        -0.17062
     176 ->180         0.23281

 Excited State   5:      Singlet-A      2.9818 eV  415.80 nm  f=0.2781  <S**2>=0.000
     169 ->177         0.24876
     169 ->178         0.14545
     169 ->179        -0.30215
     169 ->181         0.22160
     169 ->186        -0.15928
     175 ->177        -0.18433
     176 ->178         0.28970
     176 ->179        -0.23523

 The electronic state is 1-A.
 Alpha  occ. eigenvalues --   -1.84839  -1.83679  -1.77835  -1.72587  -1.70569
 Alpha  occ. eigenvalues --   -1.69305  -1.63173  -1.59947  -1.58217  -1.57476
 Alpha  occ. eigenvalues --   -1.54400  -1.50407  -1.48621  -1.47895  -1.45560
 Alpha  occ. eigenvalues --   -1.43956  -1.42528  -1.39855  -1.38447  -1.38118
 Alpha  occ. eigenvalues --   -1.36109  -1.32754  -1.32220  -1.31251  -1.28303
 Alpha  occ. eigenvalues --   -1.26371  -1.24052  -1.22686  -1.21230  -1.16545
 Alpha  occ. eigenvalues --   -1.15927  -1.15665  -1.15224  -1.14474  -1.13223
 Alpha  occ. eigenvalues --   -1.12229  -1.10180  -1.09225  -1.04833  -1.03841
 Alpha  occ. eigenvalues --   -1.02584  -1.00795  -0.98549  -0.97964  -0.96387
 Alpha  occ. eigenvalues --   -0.95904  -0.94404  -0.92652  -0.92113  -0.91971
 Alpha  occ. eigenvalues --   -0.90483  -0.90133  -0.89439  -0.88023  -0.87426
 Alpha  occ. eigenvalues --   -0.85441  -0.83723  -0.83175  -0.81815  -0.80527
 Alpha  occ. eigenvalues --   -0.79524  -0.78977  -0.77060  -0.76308  -0.75515
 Alpha  occ. eigenvalues --   -0.75145  -0.74814  -0.74399  -0.74239  -0.73850
 Alpha  occ. eigenvalues --   -0.72762  -0.71942  -0.71545  -0.70938  -0.70519
 Alpha  occ. eigenvalues --   -0.69868  -0.69292  -0.68846  -0.68553  -0.68281
 Alpha  occ. eigenvalues --   -0.67969  -0.67442  -0.66283  -0.65534  -0.65143
 Alpha  occ. eigenvalues --   -0.64584  -0.64340  -0.63961  -0.63612  -0.63289
 Alpha  occ. eigenvalues --   -0.62989  -0.62936  -0.62593  -0.62297  -0.61885
 Alpha  occ. eigenvalues --   -0.61494  -0.60773  -0.60577  -0.60117  -0.59486
 Alpha  occ. eigenvalues --   -0.59182  -0.58927  -0.58695  -0.58178  -0.58022
 Alpha  occ. eigenvalues --   -0.57432  -0.57293  -0.56937  -0.56843  -0.56521
 Alpha  occ. eigenvalues --   -0.55975  -0.55737  -0.55727  -0.55047  -0.54485
 Alpha  occ. eigenvalues --   -0.54036  -0.53586  -0.53476  -0.53328  -0.52681
 Alpha  occ. eigenvalues --   -0.52372  -0.52099  -0.51568  -0.51420  -0.51020
 Alpha  occ. eigenvalues --   -0.50864  -0.50644  -0.50482  -0.50244  -0.50034
 Alpha  occ. eigenvalues --   -0.49784  -0.49414  -0.49083  -0.48821  -0.48744
 Alpha  occ. eigenvalues --   -0.48432  -0.48176  -0.48101  -0.48060  -0.47711
 Alpha  occ. eigenvalues --   -0.47256  -0.47191  -0.46868  -0.46648  -0.46440
 Alpha  occ. eigenvalues --   -0.46180  -0.45851  -0.45646  -0.45500  -0.45270
 Alpha  occ. eigenvalues --   -0.45049  -0.44654  -0.44581  -0.43959  -0.43938
 Alpha  occ. eigenvalues --   -0.43768  -0.43537  -0.42664  -0.42630  -0.41862
 Alpha  occ. eigenvalues --   -0.41515  -0.41110  -0.40858  -0.38859  -0.38397
 Alpha  occ. eigenvalues --   -0.37932  -0.36979  -0.35889  -0.34860  -0.34388
 Alpha  occ. eigenvalues --   -0.33246  -0.32443  -0.32229  -0.31955  -0.25925
 Alpha  occ. eigenvalues --   -0.21513
 Alpha virt. eigenvalues --   -0.08306  -0.01869  -0.00462   0.00906   0.01454
 Alpha virt. eigenvalues --    0.02441   0.03159   0.03474   0.04423   0.04606
 Alpha virt. eigenvalues --    0.06034   0.06948   0.07627   0.08104   0.08327

 Mulliken charges:
               1
     1  Mg   0.450756
     2  C   -0.043420
     3  C   -0.084805
     4  C   -0.080073
     5  C   -0.082727
     6  N   -0.291364
     7  C    0.097734
     8  C    0.022934
     9  C    0.012774
    10  C    0.144105
    11  C   -0.048339
    12  C   -0.021503
    13  C   -0.002973
    14  C    0.465473
    15  O   -0.495271
    16  O   -0.292608
    17  N   -0.284554
    18  C    0.115095
    19  C    0.001587
    20  C   -0.065037
    21  C    0.151382
    22  C   -0.048422
    23  C    0.326640
    24  O   -0.518769
    25  C   -0.028511
    26  N   -0.271141
    27  C    0.122786
    28  C    0.010013
    29  C    0.006461
    30  C    0.120998
    31  C   -0.057366
    32  C   -0.030541
    33  C   -0.059598
    34  N   -0.327615
    35  C    0.109028
    36  C    0.013311
    37  C   -0.051324
    38  C    0.110654
    39  C   -0.043005
    40  C    0.339092
    41  O   -0.532212
    42  C    0.067357
    43  C    0.488160
    44  O   -0.514191
    45  O   -0.274181
    46  C    0.076427
    47  C    0.105388
    48  C   -0.097892
    49  C    0.000390
    50  C   -0.049402
    51  C   -0.014454
    52  C   -0.022869
    53  C   -0.033317
    54  C   -0.020734
    55  C   -0.062286
    56  C   -0.046396
    57  C   -0.041955
    58  C   -0.027793
    59  C   -0.017399
    60  C   -0.053524
    61  C   -0.042480
    62  C   -0.044122
    63  C   -0.035913
    64  C   -0.011352
    65  C   -0.058949
    66  C   -0.056238
    67  H    0.016903
    68  H    0.046261
    69  H    0.021882
    70  H    0.066422
    71  H    0.025533
    72  H    0.014686
    73  H    0.021642
    74  H    0.030048
    75  H    0.020807
    76  H    0.024973
    77  H    0.034894
    78  H    0.048618
    79  H    0.018828
    80  H    0.035997
    81  H    0.028631
    82  H    0.038627
    83  H    0.043910
    84  H    0.043596
    85  H    0.038951
    86  H    0.026888
    87  H    0.012937
    88  H    0.026475
    89  H    0.036744
    90  H    0.016447
    91  H    0.032134
    92  H    0.012678
    93  H    0.021900
    94  H    0.021745
    95  H    0.033353
    96  H    0.019156
    97  H    0.039097
    98  H    0.052887
    99  H    0.046472
   100  H    0.029589
   101  H    0.042617
   102  H    0.030119
   103  H    0.060423
   104  H    0.031625
   105  H    0.033102
   106  H    0.032195
   107  H    0.027495
   108  H    0.014973
   109  H    0.026589
   110  H    0.016957
   111  H    0.017714
   112  H    0.009860
   113  H    0.015512
   114  H    0.022284
   115  H    0.021551
   116  H    0.019844
   117  H    0.017884
   118  H    0.026661
   119  H    0.022689
   120  H    0.018963
   121  H    0.017158
   122  H    0.023244
   123  H    0.012701
   124  H    0.011902
   125  H    0.017507
   126  H    0.014375
   127  H    0.025762
   128  H    0.012407
   129  H    0.025593
   130  H    0.012613
   131  H    0.027042
   132  H    0.025561
   133  H    0.010676
   134  H    0.016254
   135  H    0.021190
   136  H    0.028575
   137  H    0.011232
   138  H    0.022109
   139  H    0.018873
   140  H    0.014536
 Sum of Mulliken charges =  -0.00000

 Dipole moment (field-independent basis, Debye):
    X=             -6.2646    Y=              6.6755    Z=              2.0553  Tot=              9.3825
 N-N= 4.245597184118D+03 E-N= 0.000000000000D+00  KE=-9.165906936850D+03
 Leave Link  601 at Wed May  4 00:00:23 2022, MaxMem=  6710886400 cpu:               3.4 elap:               0.2
 (Enter /sw/apps/gaussian-16.0/g16/l9999.exe)
 1\1\GINC-BP1-COMPUTE130\SP\RZINDO CIS\STO-3G\C55H74Mg1N4O6\OF15641\04-
 May-2022\0\\#p ZINDO=(nstates=5)\\step_1101_chromophore_10 ZINDO\\0,1\
 Mg,0,40.728,8.281,29.34\C,0,42.537,9.856,32.251\C,0,38.887,6.767,31.76
 4\C,0,39.375,6.771,26.942\C,0,43.507,9.383,27.468\N,0,40.839,8.128,31.
 785\C,0,41.485,8.97,32.758\C,0,40.938,8.816,34.217\C,0,39.882,7.694,33
 .971\C,0,39.888,7.468,32.422\C,0,40.113,6.477,34.847\C,0,40.315,10.126
 ,34.579\C,0,40.9,10.978,35.786\C,0,41.393,10.293,37.108\O,0,41.961,9.2

 Normal termination of Gaussian 16 at Wed May  4 00:00:23 2022.
