 Gaussian 16, Revision A.03,
 Gaussian 16:  ES64L-G16RevA.03 25-Dec-2016

 ------------------------------
 #p blyp/Def2SVP td=(nstates=5)
 ------------------------------

 ---------------------------------------------------
 step_1851_chromophore_22 TDDFT with blyp functional
 ---------------------------------------------------
 Symbolic Z-matrix:
 Charge =  0 Multiplicity = 1

                         Standard orientation:
 ---------------------------------------------------------------------
 Center     Atomic      Atomic             Coordinates (Angstroms)
 Number     Number       Type             X           Y           Z
 ---------------------------------------------------------------------
      1         12           0        6.267090    0.618530    0.005584
      2          6           0        4.014283   -2.036008   -0.429681
      3          6           0        3.702376    2.744442   -0.737967
      4          6           0        8.421146    3.124831    0.279818
      5          6           0        8.869035   -1.752324    0.256311
      6          7           0        4.092796    0.358768   -0.643225
      7          6           0        3.330613   -0.766609   -0.553271
      8          6           0        1.829554   -0.576411   -0.922814
      9          6           0        1.873236    0.988872   -1.179687
     10          6           0        3.293599    1.402160   -0.890587
     11          6           0        1.367726    1.485944   -2.585284
     12          6           0        0.739244   -1.224413    0.029682
     13          6           0       -0.645841   -0.569370   -0.092552
     14          6           0       -1.834879   -1.535827   -0.151317
     15          8           0       -1.938447   -2.393063   -0.989084
     16          8           0       -2.713925   -1.372789    0.927295
     17          7           0        6.080559    2.686402   -0.092843
     18          6           0        4.931955    3.358877   -0.362531
     19          6           0        5.184170    4.803395   -0.155093
     20          6           0        6.603759    4.942723    0.057707
     21          6           0        7.125042    3.557601    0.056256
     22          6           0        4.082485    5.860348   -0.332693
     23          6           0        7.451030    6.141749    0.160642
     24          8           0        8.649200    6.029546    0.175129
     25          6           0        6.945630    7.536699    0.342870
     26          7           0        8.378790    0.668009   -0.006739
     27          6           0        8.977950    1.859717    0.346376
     28          6           0       10.524880    1.607773    0.360592
     29          6           0       10.642843    0.049675    0.421798
     30          6           0        9.233559   -0.391919    0.294169
     31          6           0       11.207116    2.297652   -0.838357
     32          6           0       11.322833   -0.546022    1.705249
     33          6           0       12.329821   -1.727119    1.459598
     34          7           0        6.499581   -1.485975   -0.080072
     35          6           0        7.588623   -2.284070    0.132405
     36          6           0        7.084741   -3.661428    0.110910
     37          6           0        5.720757   -3.581358   -0.153673
     38          6           0        5.418199   -2.242995   -0.300701
     39          6           0        7.967523   -4.926561    0.324111
     40          6           0        4.551745   -4.390701   -0.267170
     41          8           0        4.415779   -5.616046   -0.225994
     42          6           0        3.383513   -3.433534   -0.385102
     43          6           0        2.564367   -3.751759    0.847663
     44          8           0        2.581587   -3.243885    1.970195
     45          8           0        1.580253   -4.572643    0.485891
     46          6           0        0.457886   -4.643568    1.425929
     47          6           0       -3.833074   -2.357810    1.104591
     48          6           0       -4.982433   -2.075412    0.141984
     49          6           0       -5.962347   -2.943246   -0.243914
     50          6           0       -6.022286   -4.487546   -0.054749
     51          6           0       -7.116740   -2.362788   -1.174157
     52          6           0       -7.899944   -1.230803   -0.428384
     53          6           0       -8.473823   -0.083501   -1.327113
     54          6           0       -9.892434   -0.351837   -2.000878
     55          6           0       -9.760105   -0.861223   -3.454805
     56          6           0      -10.730487    0.962942   -1.899765
     57          6           0      -11.660454    0.937574   -0.655687
     58          6           0      -13.049947    0.293349   -0.942540
     59          6           0      -14.138824    1.455326   -1.131046
     60          6           0      -14.579352    1.398147   -2.575809
     61          6           0      -15.339604    1.501745   -0.134661
     62          6           0      -15.406366    2.668534    0.947624
     63          6           0      -15.477048    2.082618    2.336625
     64          6           0      -14.120603    1.985221    3.017364
     65          6           0      -13.670875    0.533502    3.358219
     66          6           0      -14.157724    2.813093    4.427385
     67          1           0        2.841805    3.381359   -0.951738
     68          1           0        9.219352    3.864297    0.374398
     69          1           0        9.743573   -2.404267    0.196267
     70          1           0        1.738912   -1.066943   -1.891588
     71          1           0        1.221433    1.548159   -0.508437
     72          1           0        0.372330    1.891856   -2.406788
     73          1           0        1.202016    0.698600   -3.320686
     74          1           0        2.206737    2.120597   -2.869874
     75          1           0        1.066075   -1.209541    1.069760
     76          1           0        0.689303   -2.289662   -0.193235
     77          1           0       -0.727696    0.161084   -0.898461
     78          1           0       -0.765236   -0.022323    0.842588
     79          1           0        3.159832    5.487289   -0.776761
     80          1           0        4.402221    6.557970   -1.105444
     81          1           0        3.948594    6.344986    0.634335
     82          1           0        7.733772    8.189708    0.715370
     83          1           0        6.123926    7.448544    1.054830
     84          1           0        6.594754    7.853750   -0.638634
     85          1           0       11.004633    1.967134    1.270945
     86          1           0       11.126539   -0.417413   -0.435594
     87          1           0       11.244339    3.373497   -0.668535
     88          1           0       10.610336    2.027584   -1.709655
     89          1           0       12.222580    1.924776   -0.971955
     90          1           0       10.478756   -0.816325    2.338866
     91          1           0       11.954004    0.223608    2.148025
     92          1           0       12.745965   -2.045968    2.415258
     93          1           0       13.099918   -1.437853    0.744199
     94          1           0       11.700095   -2.562032    1.154482
     95          1           0        7.274288   -5.578233    0.855879
     96          1           0        8.752450   -4.554996    0.983380
     97          1           0        8.557137   -5.437647   -0.436929
     98          1           0        2.882482   -3.775719   -1.291300
     99          1           0       -0.313972   -3.921464    1.159805
    100          1           0        0.745476   -4.476259    2.464525
    101          1           0       -0.011480   -5.609808    1.243724
    102          1           0       -4.172327   -2.524141    2.127030
    103          1           0       -3.430645   -3.307985    0.752637
    104          1           0       -4.935377   -1.078657   -0.297155
    105          1           0       -5.065531   -4.857814    0.314655
    106          1           0       -6.089210   -5.073648   -0.971019
    107          1           0       -6.827938   -4.821867    0.598643
    108          1           0       -7.799732   -3.130653   -1.538943
    109          1           0       -6.646374   -1.989553   -2.084910
    110          1           0       -7.224516   -0.838153    0.332197
    111          1           0       -8.740855   -1.755974    0.023989
    112          1           0       -7.635624    0.103149   -1.998581
    113          1           0       -8.567327    0.757362   -0.639515
    114          1           0      -10.408985   -1.137482   -1.450705
    115          1           0       -8.742859   -1.239461   -3.562402
    116          1           0      -10.008101   -0.086239   -4.180066
    117          1           0      -10.471956   -1.670986   -3.616572
    118          1           0      -11.465339    1.071985   -2.697246
    119          1           0      -10.086505    1.840479   -1.961125
    120          1           0      -11.591941    1.885145   -0.121024
    121          1           0      -11.251774    0.213937    0.049844
    122          1           0      -13.412429   -0.299465   -0.102319
    123          1           0      -12.955280   -0.367825   -1.803298
    124          1           0      -13.635356    2.419832   -1.063302
    125          1           0      -14.961035    2.392187   -2.808895
    126          1           0      -15.214614    0.536906   -2.781904
    127          1           0      -13.736961    1.140029   -3.216617
    128          1           0      -15.584021    0.552746    0.343318
    129          1           0      -16.109362    1.883003   -0.805604
    130          1           0      -16.231101    3.379432    0.892650
    131          1           0      -14.483616    3.234366    0.819168
    132          1           0      -16.093029    1.187889    2.419903
    133          1           0      -16.171294    2.689813    2.918363
    134          1           0      -13.335797    2.421578    2.398370
    135          1           0      -12.720510    0.393137    2.842293
    136          1           0      -14.323736   -0.212950    2.904943
    137          1           0      -13.502247    0.319346    4.413822
    138          1           0      -15.081847    3.056479    4.950993
    139          1           0      -13.743186    3.810654    4.281438
    140          1           0      -13.465960    2.413191    5.168287
 ---------------------------------------------------------------------

 SCF Done:  E(RB-LYP) =  -3007.35403080     A.U. after   20 cycles

 Excitation energies and oscillator strengths:

 Excited State   1:      Singlet-A      1.7694 eV  700.73 nm  f=0.1894  <S**2>=0.000
     244 -> 247       -0.40794
     245 -> 248       -0.15582
     246 -> 247        0.55924
     246 <- 247       -0.11747
 This state for optimization and/or second-order correction.
 Total Energy, E(TD-HF/TD-DFT) =  -3007.28900821
 Copying the excited state density for this state as the 1-particle RhoCI density.

 Excited State   2:      Singlet-A      1.8322 eV  676.70 nm  f=0.1200  <S**2>=0.000
     244 -> 247        0.55479
     245 -> 247       -0.12679
     245 -> 248       -0.12895
     246 -> 247        0.40320

 Excited State   3:      Singlet-A      1.9179 eV  646.47 nm  f=0.0026  <S**2>=0.000
     243 -> 247        0.68615
     245 -> 247        0.14947

 Excited State   4:      Singlet-A      2.0103 eV  616.75 nm  f=0.0616  <S**2>=0.000
     243 -> 247       -0.16404
     244 -> 247        0.14277
     245 -> 247        0.61076
     246 -> 248        0.25986

 Excited State   5:      Singlet-A      2.3109 eV  536.52 nm  f=0.0000  <S**2>=0.000
     242 -> 247        0.70710

 The electronic state is 1-A.
 Alpha  occ. eigenvalues --  -46.27566 -18.82394 -18.82017 -18.77716 -18.76253
 Alpha  occ. eigenvalues --  -18.75286 -18.74797 -14.03606 -14.02750 -14.01378
 Alpha  occ. eigenvalues --  -14.00566 -10.04829 -10.03937  -9.99073  -9.98978
 Alpha  occ. eigenvalues --   -9.98863  -9.97299  -9.97123  -9.96478  -9.96227
 Alpha  occ. eigenvalues --   -9.96197  -9.96014  -9.95913  -9.95355  -9.95122
 Alpha  occ. eigenvalues --   -9.94705  -9.94466  -9.94267  -9.94254  -9.94144
 Alpha  occ. eigenvalues --   -9.93918  -9.93828  -9.93800  -9.93631  -9.93554
 Alpha  occ. eigenvalues --   -9.93526  -9.93257  -9.93145  -9.93011  -9.92924
 Alpha  occ. eigenvalues --   -9.92835  -9.92731  -9.92646  -9.92582  -9.92532
 Alpha  occ. eigenvalues --   -9.92357  -9.92320  -9.92081  -9.91992  -9.91988
 Alpha  occ. eigenvalues --   -9.91823  -9.91684  -9.91507  -9.91466  -9.91459
 Alpha  occ. eigenvalues --   -9.91385  -9.91179  -9.91135  -9.91109  -9.91105
 Alpha  occ. eigenvalues --   -9.90856  -9.90790  -9.90574  -9.90515  -9.90367
 Alpha  occ. eigenvalues --   -9.90246  -2.92092  -1.72519  -1.71982  -1.71793
 Alpha  occ. eigenvalues --   -0.98890  -0.97600  -0.92553  -0.90699  -0.90508
 Alpha  occ. eigenvalues --   -0.88989  -0.87092  -0.86288  -0.85606  -0.84548
 Alpha  occ. eigenvalues --   -0.75877  -0.72997  -0.72849  -0.72366  -0.72313
 Alpha  occ. eigenvalues --   -0.71586  -0.71386  -0.70811  -0.70343  -0.70047
 Alpha  occ. eigenvalues --   -0.69315  -0.68980  -0.67923  -0.67583  -0.67041
 Alpha  occ. eigenvalues --   -0.66150  -0.65748  -0.65542  -0.65045  -0.64544
 Alpha  occ. eigenvalues --   -0.64097  -0.62732  -0.62383  -0.62182  -0.60894
 Alpha  occ. eigenvalues --   -0.60410  -0.59698  -0.59687  -0.59195  -0.59121
 Alpha  occ. eigenvalues --   -0.58314  -0.57446  -0.56816  -0.56022  -0.54306
 Alpha  occ. eigenvalues --   -0.53931  -0.53281  -0.53135  -0.52348  -0.51685
 Alpha  occ. eigenvalues --   -0.51073  -0.50947  -0.50750  -0.50400  -0.49982
 Alpha  occ. eigenvalues --   -0.49627  -0.49416  -0.48720  -0.48553  -0.46842
 Alpha  occ. eigenvalues --   -0.46351  -0.46271  -0.45945  -0.45275  -0.44996
 Alpha  occ. eigenvalues --   -0.44364  -0.44165  -0.43134  -0.42501  -0.42091
 Alpha  occ. eigenvalues --   -0.41846  -0.41477  -0.41356  -0.41149  -0.40973
 Alpha  occ. eigenvalues --   -0.40744  -0.40648  -0.40294  -0.40153  -0.39848
 Alpha  occ. eigenvalues --   -0.39784  -0.39495  -0.39338  -0.39212  -0.39029
 Alpha  occ. eigenvalues --   -0.38817  -0.38466  -0.38428  -0.38228  -0.38133
 Alpha  occ. eigenvalues --   -0.38057  -0.37906  -0.37885  -0.37607  -0.37455
 Alpha  occ. eigenvalues --   -0.37006  -0.36945  -0.36705  -0.36623  -0.36548
 Alpha  occ. eigenvalues --   -0.36298  -0.36184  -0.36106  -0.36057  -0.35756
 Alpha  occ. eigenvalues --   -0.35652  -0.35525  -0.35142  -0.35081  -0.34689
 Alpha  occ. eigenvalues --   -0.34369  -0.34287  -0.34028  -0.33978  -0.33954
 Alpha  occ. eigenvalues --   -0.33570  -0.33517  -0.33212  -0.33189  -0.33134
 Alpha  occ. eigenvalues --   -0.33103  -0.32860  -0.32672  -0.32650  -0.32343
 Alpha  occ. eigenvalues --   -0.32146  -0.31839  -0.31761  -0.31720  -0.31601
 Alpha  occ. eigenvalues --   -0.31251  -0.31011  -0.30833  -0.30749  -0.30558
 Alpha  occ. eigenvalues --   -0.30269  -0.30208  -0.30097  -0.29849  -0.29680
 Alpha  occ. eigenvalues --   -0.29372  -0.29313  -0.29190  -0.29120  -0.29046
 Alpha  occ. eigenvalues --   -0.28825  -0.28527  -0.28408  -0.28289  -0.28038
 Alpha  occ. eigenvalues --   -0.27650  -0.27587  -0.27035  -0.26472  -0.26357
 Alpha  occ. eigenvalues --   -0.26322  -0.26153  -0.25986  -0.25918  -0.25466
 Alpha  occ. eigenvalues --   -0.25131  -0.24716  -0.24035  -0.23846  -0.23211
 Alpha  occ. eigenvalues --   -0.22675  -0.22543  -0.22012  -0.21609  -0.20835
 Alpha  occ. eigenvalues --   -0.20385  -0.20040  -0.18504  -0.18134  -0.17273
 Alpha  occ. eigenvalues --   -0.15792
 Alpha virt. eigenvalues --   -0.11547  -0.07034  -0.06336  -0.04767  -0.03400
 Alpha virt. eigenvalues --   -0.02871  -0.02512  -0.02128  -0.02042   0.00277
 Alpha virt. eigenvalues --    0.01050   0.01914   0.02337   0.02407   0.02998

 Mulliken charges:
               1
     1  Mg   0.680393
     2  C   -0.015699
     3  C   -0.050016
     4  C   -0.056591
     5  C   -0.101010
     6  N   -0.174773
     7  C   -0.087588
     8  C    0.050535
     9  C   -0.047596
    10  C   -0.018785
    11  C    0.119281
    12  C    0.085876
    13  C    0.162630
    14  C    0.068944
    15  O   -0.171117
    16  O   -0.299225
    17  N   -0.286548
    18  C    0.156075
    19  C   -0.150009
    20  C    0.068101
    21  C    0.135526
    22  C    0.162272
    23  C   -0.136111
    24  O   -0.156846
    25  C    0.155669
    26  N   -0.275752
    27  C    0.032918
    28  C    0.046019
    29  C    0.019055
    30  C    0.020466
    31  C    0.120278
    32  C    0.073265
    33  C    0.063338
    34  N   -0.241587
    35  C    0.141194
    36  C   -0.178290
    37  C    0.117995
    38  C    0.104295
    39  C    0.138235
    40  C   -0.118759
    41  O   -0.140210
    42  C    0.086670
    43  C    0.111925
    44  O   -0.197437
    45  O   -0.236653
    46  C    0.202143
    47  C    0.306032
    48  C   -0.106520
    49  C   -0.122093
    50  C    0.123697
    51  C    0.095677
    52  C    0.043188
    53  C    0.106799
    54  C   -0.068067
    55  C    0.119119
    56  C    0.109288
    57  C    0.042361
    58  C    0.104331
    59  C   -0.065400
    60  C    0.102512
    61  C    0.133825
    62  C    0.059974
    63  C    0.110323
    64  C   -0.058665
    65  C    0.099124
    66  C    0.059712
    67  H   -0.076795
    68  H   -0.039093
    69  H   -0.055937
    70  H   -0.012684
    71  H   -0.018765
    72  H   -0.000046
    73  H   -0.007414
    74  H    0.003083
    75  H   -0.003853
    76  H    0.017418
    77  H    0.002449
    78  H   -0.014763
    79  H   -0.012905
    80  H   -0.000958
    81  H    0.019185
    82  H    0.000124
    83  H   -0.006412
    84  H    0.007096
    85  H   -0.037210
    86  H   -0.024745
    87  H    0.013058
    88  H   -0.001534
    89  H   -0.013254
    90  H   -0.013472
    91  H   -0.018308
    92  H   -0.007366
    93  H    0.008349
    94  H   -0.012298
    95  H    0.016752
    96  H   -0.023448
    97  H    0.014929
    98  H    0.004828
    99  H    0.007594
   100  H    0.034598
   101  H    0.012461
   102  H    0.023694
   103  H    0.002428
   104  H   -0.019027
   105  H   -0.029060
   106  H    0.003444
   107  H    0.005333
   108  H   -0.035283
   109  H   -0.013847
   110  H   -0.022162
   111  H   -0.033319
   112  H   -0.030704
   113  H   -0.034138
   114  H   -0.035470
   115  H   -0.014909
   116  H   -0.013029
   117  H   -0.021299
   118  H   -0.044017
   119  H   -0.032458
   120  H   -0.025115
   121  H   -0.035909
   122  H   -0.039975
   123  H   -0.031178
   124  H   -0.040630
   125  H   -0.011367
   126  H   -0.021143
   127  H   -0.032215
   128  H   -0.020210
   129  H   -0.041816
   130  H   -0.027966
   131  H   -0.035615
   132  H   -0.042969
   133  H   -0.056558
   134  H   -0.019468
   135  H   -0.021547
   136  H   -0.018801
   137  H   -0.009252
   138  H   -0.005807
   139  H   -0.031538
   140  H   -0.025475
 Sum of Mulliken charges =  -0.00000

 Dipole moment (field-independent basis, Debye):
    X=             -2.6100    Y=              3.3067    Z=              0.2027  Tot=              4.2175
 Quadrupole moment (field-independent basis, Debye-Ang):
   XX=           -382.2538   YY=           -423.9045   ZZ=           -410.1722
   XY=              4.3274   XZ=             -1.0069   YZ=             -5.4409

 Normal termination of Gaussian 16 at Fri Apr 29 04:26:04 2022.
