 Gaussian 16, Revision A.03,
 Gaussian 16:  ES64L-G16RevA.03 25-Dec-2016

 -----------------------------------
 #p cam-b3lyp/Def2SVP td=(nstates=5)
 -----------------------------------

 --------------------------------------------------------
 step_1851_chromophore_22 TDDFT with cam-b3lyp functional
 --------------------------------------------------------
 Symbolic Z-matrix:
 Charge =  0 Multiplicity = 1

                         Standard orientation:
 ---------------------------------------------------------------------
 Center     Atomic      Atomic             Coordinates (Angstroms)
 Number     Number       Type             X           Y           Z
 ---------------------------------------------------------------------
      1         12           0        6.267090    0.618530    0.005584
      2          6           0        4.014283   -2.036008   -0.429681
      3          6           0        3.702376    2.744442   -0.737967
      4          6           0        8.421146    3.124831    0.279818
      5          6           0        8.869035   -1.752324    0.256311
      6          7           0        4.092796    0.358768   -0.643225
      7          6           0        3.330613   -0.766609   -0.553271
      8          6           0        1.829554   -0.576411   -0.922814
      9          6           0        1.873236    0.988872   -1.179687
     10          6           0        3.293599    1.402160   -0.890587
     11          6           0        1.367726    1.485944   -2.585284
     12          6           0        0.739244   -1.224413    0.029682
     13          6           0       -0.645841   -0.569370   -0.092552
     14          6           0       -1.834879   -1.535827   -0.151317
     15          8           0       -1.938447   -2.393063   -0.989084
     16          8           0       -2.713925   -1.372789    0.927295
     17          7           0        6.080559    2.686402   -0.092843
     18          6           0        4.931955    3.358877   -0.362531
     19          6           0        5.184170    4.803395   -0.155093
     20          6           0        6.603759    4.942723    0.057707
     21          6           0        7.125042    3.557601    0.056256
     22          6           0        4.082485    5.860348   -0.332693
     23          6           0        7.451030    6.141749    0.160642
     24          8           0        8.649200    6.029546    0.175129
     25          6           0        6.945630    7.536699    0.342870
     26          7           0        8.378790    0.668009   -0.006739
     27          6           0        8.977950    1.859717    0.346376
     28          6           0       10.524880    1.607773    0.360592
     29          6           0       10.642843    0.049675    0.421798
     30          6           0        9.233559   -0.391919    0.294169
     31          6           0       11.207116    2.297652   -0.838357
     32          6           0       11.322833   -0.546022    1.705249
     33          6           0       12.329821   -1.727119    1.459598
     34          7           0        6.499581   -1.485975   -0.080072
     35          6           0        7.588623   -2.284070    0.132405
     36          6           0        7.084741   -3.661428    0.110910
     37          6           0        5.720757   -3.581358   -0.153673
     38          6           0        5.418199   -2.242995   -0.300701
     39          6           0        7.967523   -4.926561    0.324111
     40          6           0        4.551745   -4.390701   -0.267170
     41          8           0        4.415779   -5.616046   -0.225994
     42          6           0        3.383513   -3.433534   -0.385102
     43          6           0        2.564367   -3.751759    0.847663
     44          8           0        2.581587   -3.243885    1.970195
     45          8           0        1.580253   -4.572643    0.485891
     46          6           0        0.457886   -4.643568    1.425929
     47          6           0       -3.833074   -2.357810    1.104591
     48          6           0       -4.982433   -2.075412    0.141984
     49          6           0       -5.962347   -2.943246   -0.243914
     50          6           0       -6.022286   -4.487546   -0.054749
     51          6           0       -7.116740   -2.362788   -1.174157
     52          6           0       -7.899944   -1.230803   -0.428384
     53          6           0       -8.473823   -0.083501   -1.327113
     54          6           0       -9.892434   -0.351837   -2.000878
     55          6           0       -9.760105   -0.861223   -3.454805
     56          6           0      -10.730487    0.962942   -1.899765
     57          6           0      -11.660454    0.937574   -0.655687
     58          6           0      -13.049947    0.293349   -0.942540
     59          6           0      -14.138824    1.455326   -1.131046
     60          6           0      -14.579352    1.398147   -2.575809
     61          6           0      -15.339604    1.501745   -0.134661
     62          6           0      -15.406366    2.668534    0.947624
     63          6           0      -15.477048    2.082618    2.336625
     64          6           0      -14.120603    1.985221    3.017364
     65          6           0      -13.670875    0.533502    3.358219
     66          6           0      -14.157724    2.813093    4.427385
     67          1           0        2.841805    3.381359   -0.951738
     68          1           0        9.219352    3.864297    0.374398
     69          1           0        9.743573   -2.404267    0.196267
     70          1           0        1.738912   -1.066943   -1.891588
     71          1           0        1.221433    1.548159   -0.508437
     72          1           0        0.372330    1.891856   -2.406788
     73          1           0        1.202016    0.698600   -3.320686
     74          1           0        2.206737    2.120597   -2.869874
     75          1           0        1.066075   -1.209541    1.069760
     76          1           0        0.689303   -2.289662   -0.193235
     77          1           0       -0.727696    0.161084   -0.898461
     78          1           0       -0.765236   -0.022323    0.842588
     79          1           0        3.159832    5.487289   -0.776761
     80          1           0        4.402221    6.557970   -1.105444
     81          1           0        3.948594    6.344986    0.634335
     82          1           0        7.733772    8.189708    0.715370
     83          1           0        6.123926    7.448544    1.054830
     84          1           0        6.594754    7.853750   -0.638634
     85          1           0       11.004633    1.967134    1.270945
     86          1           0       11.126539   -0.417413   -0.435594
     87          1           0       11.244339    3.373497   -0.668535
     88          1           0       10.610336    2.027584   -1.709655
     89          1           0       12.222580    1.924776   -0.971955
     90          1           0       10.478756   -0.816325    2.338866
     91          1           0       11.954004    0.223608    2.148025
     92          1           0       12.745965   -2.045968    2.415258
     93          1           0       13.099918   -1.437853    0.744199
     94          1           0       11.700095   -2.562032    1.154482
     95          1           0        7.274288   -5.578233    0.855879
     96          1           0        8.752450   -4.554996    0.983380
     97          1           0        8.557137   -5.437647   -0.436929
     98          1           0        2.882482   -3.775719   -1.291300
     99          1           0       -0.313972   -3.921464    1.159805
    100          1           0        0.745476   -4.476259    2.464525
    101          1           0       -0.011480   -5.609808    1.243724
    102          1           0       -4.172327   -2.524141    2.127030
    103          1           0       -3.430645   -3.307985    0.752637
    104          1           0       -4.935377   -1.078657   -0.297155
    105          1           0       -5.065531   -4.857814    0.314655
    106          1           0       -6.089210   -5.073648   -0.971019
    107          1           0       -6.827938   -4.821867    0.598643
    108          1           0       -7.799732   -3.130653   -1.538943
    109          1           0       -6.646374   -1.989553   -2.084910
    110          1           0       -7.224516   -0.838153    0.332197
    111          1           0       -8.740855   -1.755974    0.023989
    112          1           0       -7.635624    0.103149   -1.998581
    113          1           0       -8.567327    0.757362   -0.639515
    114          1           0      -10.408985   -1.137482   -1.450705
    115          1           0       -8.742859   -1.239461   -3.562402
    116          1           0      -10.008101   -0.086239   -4.180066
    117          1           0      -10.471956   -1.670986   -3.616572
    118          1           0      -11.465339    1.071985   -2.697246
    119          1           0      -10.086505    1.840479   -1.961125
    120          1           0      -11.591941    1.885145   -0.121024
    121          1           0      -11.251774    0.213937    0.049844
    122          1           0      -13.412429   -0.299465   -0.102319
    123          1           0      -12.955280   -0.367825   -1.803298
    124          1           0      -13.635356    2.419832   -1.063302
    125          1           0      -14.961035    2.392187   -2.808895
    126          1           0      -15.214614    0.536906   -2.781904
    127          1           0      -13.736961    1.140029   -3.216617
    128          1           0      -15.584021    0.552746    0.343318
    129          1           0      -16.109362    1.883003   -0.805604
    130          1           0      -16.231101    3.379432    0.892650
    131          1           0      -14.483616    3.234366    0.819168
    132          1           0      -16.093029    1.187889    2.419903
    133          1           0      -16.171294    2.689813    2.918363
    134          1           0      -13.335797    2.421578    2.398370
    135          1           0      -12.720510    0.393137    2.842293
    136          1           0      -14.323736   -0.212950    2.904943
    137          1           0      -13.502247    0.319346    4.413822
    138          1           0      -15.081847    3.056479    4.950993
    139          1           0      -13.743186    3.810654    4.281438
    140          1           0      -13.465960    2.413191    5.168287
 ---------------------------------------------------------------------

 SCF Done:  E(RCAM-B3LYP) =  -3007.14306790     A.U. after   17 cycles

 Excitation energies and oscillator strengths:

 Excited State   1:      Singlet-A      1.6807 eV  737.68 nm  f=0.3739  <S**2>=0.000
     245 -> 248        0.18807
     246 -> 247        0.68408
     245 <- 248        0.11155
 This state for optimization and/or second-order correction.
 Total Energy, E(TD-HF/TD-DFT) =  -3007.08130197
 Copying the excited state density for this state as the 1-particle RhoCI density.

 Excited State   2:      Singlet-A      2.2108 eV  560.82 nm  f=0.0934  <S**2>=0.000
     245 -> 247        0.63217
     246 -> 248       -0.30707

 Excited State   3:      Singlet-A      3.4068 eV  363.93 nm  f=0.0375  <S**2>=0.000
     240 -> 247        0.17988
     240 -> 249        0.12766
     244 -> 247        0.60978
     246 -> 248        0.20822

 Excited State   4:      Singlet-A      3.4704 eV  357.26 nm  f=0.4224  <S**2>=0.000
     242 -> 247        0.35116
     244 -> 247       -0.23885
     245 -> 247        0.22685
     246 -> 248        0.49875

 Excited State   5:      Singlet-A      3.5090 eV  353.34 nm  f=0.0866  <S**2>=0.000
     240 -> 247        0.50448
     240 -> 249        0.29386
     240 -> 250       -0.17781
     242 -> 247        0.11502
     244 -> 247       -0.17571
     246 -> 248       -0.20213

 The electronic state is 1-A.
 Alpha  occ. eigenvalues --  -46.89126 -19.25256 -19.24957 -19.20746 -19.19311
 Alpha  occ. eigenvalues --  -19.18573 -19.18021 -14.42606 -14.41525 -14.39861
 Alpha  occ. eigenvalues --  -14.38914 -10.40163 -10.39371 -10.34315 -10.34171
 Alpha  occ. eigenvalues --  -10.32988 -10.31673 -10.31312 -10.30907 -10.30593
 Alpha  occ. eigenvalues --  -10.30587 -10.30494 -10.30376 -10.29559 -10.29517
 Alpha  occ. eigenvalues --  -10.29255 -10.28570 -10.28502 -10.28497 -10.28257
 Alpha  occ. eigenvalues --  -10.28189 -10.28162 -10.27939 -10.27840 -10.27645
 Alpha  occ. eigenvalues --  -10.27521 -10.27459 -10.27323 -10.26962 -10.26788
 Alpha  occ. eigenvalues --  -10.26608 -10.26532 -10.26471 -10.26441 -10.26411
 Alpha  occ. eigenvalues --  -10.26148 -10.25939 -10.25898 -10.25871 -10.25712
 Alpha  occ. eigenvalues --  -10.25579 -10.25443 -10.25373 -10.25233 -10.25190
 Alpha  occ. eigenvalues --  -10.25097 -10.24871 -10.24833 -10.24784 -10.24771
 Alpha  occ. eigenvalues --  -10.24467 -10.24436 -10.24316 -10.24174 -10.24102
 Alpha  occ. eigenvalues --  -10.23971  -3.17552  -1.92458  -1.92012  -1.91845
 Alpha  occ. eigenvalues --   -1.17468  -1.16094  -1.11044  -1.09166  -1.08335
 Alpha  occ. eigenvalues --   -1.06915  -1.04885  -1.03897  -1.03226  -1.02062
 Alpha  occ. eigenvalues --   -0.93086  -0.89826  -0.89653  -0.89101  -0.89041
 Alpha  occ. eigenvalues --   -0.88257  -0.88001  -0.87368  -0.86882  -0.86775
 Alpha  occ. eigenvalues --   -0.85724  -0.85423  -0.84136  -0.83766  -0.83174
 Alpha  occ. eigenvalues --   -0.82161  -0.81926  -0.81455  -0.80908  -0.80445
 Alpha  occ. eigenvalues --   -0.79879  -0.78465  -0.78063  -0.77708  -0.76346
 Alpha  occ. eigenvalues --   -0.75764  -0.75018  -0.74935  -0.74452  -0.74363
 Alpha  occ. eigenvalues --   -0.73385  -0.72438  -0.71703  -0.70823  -0.68937
 Alpha  occ. eigenvalues --   -0.68552  -0.67820  -0.67674  -0.66748  -0.65859
 Alpha  occ. eigenvalues --   -0.65254  -0.65056  -0.64785  -0.64291  -0.63997
 Alpha  occ. eigenvalues --   -0.63594  -0.63125  -0.62605  -0.62317  -0.60356
 Alpha  occ. eigenvalues --   -0.59989  -0.59891  -0.59506  -0.58765  -0.58591
 Alpha  occ. eigenvalues --   -0.57820  -0.57531  -0.56269  -0.55849  -0.55186
 Alpha  occ. eigenvalues --   -0.55059  -0.54691  -0.54283  -0.54185  -0.53826
 Alpha  occ. eigenvalues --   -0.53736  -0.53340  -0.53078  -0.52864  -0.52795
 Alpha  occ. eigenvalues --   -0.52410  -0.52158  -0.51829  -0.51773  -0.51520
 Alpha  occ. eigenvalues --   -0.51358  -0.51052  -0.50971  -0.50851  -0.50620
 Alpha  occ. eigenvalues --   -0.50452  -0.50254  -0.50221  -0.49975  -0.49862
 Alpha  occ. eigenvalues --   -0.49584  -0.49117  -0.49023  -0.48862  -0.48689
 Alpha  occ. eigenvalues --   -0.48487  -0.48357  -0.48317  -0.48239  -0.48041
 Alpha  occ. eigenvalues --   -0.47800  -0.47617  -0.47414  -0.47002  -0.46740
 Alpha  occ. eigenvalues --   -0.46257  -0.46083  -0.45891  -0.45849  -0.45665
 Alpha  occ. eigenvalues --   -0.45315  -0.45185  -0.44948  -0.44902  -0.44772
 Alpha  occ. eigenvalues --   -0.44759  -0.44485  -0.44473  -0.44345  -0.44176
 Alpha  occ. eigenvalues --   -0.44085  -0.43545  -0.43236  -0.43217  -0.43053
 Alpha  occ. eigenvalues --   -0.42916  -0.42611  -0.42424  -0.42139  -0.41966
 Alpha  occ. eigenvalues --   -0.41831  -0.41580  -0.41355  -0.41257  -0.41160
 Alpha  occ. eigenvalues --   -0.40968  -0.40892  -0.40411  -0.40330  -0.40163
 Alpha  occ. eigenvalues --   -0.39685  -0.39513  -0.39467  -0.39211  -0.38943
 Alpha  occ. eigenvalues --   -0.38555  -0.38467  -0.37820  -0.37496  -0.37410
 Alpha  occ. eigenvalues --   -0.37291  -0.37131  -0.36735  -0.36690  -0.36223
 Alpha  occ. eigenvalues --   -0.36158  -0.35818  -0.34778  -0.34280  -0.34194
 Alpha  occ. eigenvalues --   -0.34106  -0.33408  -0.32883  -0.31074  -0.30769
 Alpha  occ. eigenvalues --   -0.30483  -0.30217  -0.29703  -0.29656  -0.24016
 Alpha  occ. eigenvalues --   -0.21049
 Alpha virt. eigenvalues --   -0.08620  -0.01957   0.00106   0.02128   0.02874
 Alpha virt. eigenvalues --    0.04512   0.04543   0.04763   0.05472   0.06778
 Alpha virt. eigenvalues --    0.08071   0.08404   0.08704   0.09128   0.09277

 Mulliken charges:
               1
     1  Mg   0.812316
     2  C   -0.035578
     3  C   -0.062801
     4  C   -0.081477
     5  C   -0.108178
     6  N   -0.242079
     7  C   -0.045951
     8  C    0.009334
     9  C   -0.105800
    10  C   -0.000942
    11  C    0.064512
    12  C    0.034063
    13  C    0.090481
    14  C    0.150170
    15  O   -0.209101
    16  O   -0.366825
    17  N   -0.375898
    18  C    0.161905
    19  C   -0.150864
    20  C   -0.005503
    21  C    0.160330
    22  C    0.109895
    23  C   -0.056605
    24  O   -0.198867
    25  C    0.078849
    26  N   -0.343686
    27  C    0.054880
    28  C   -0.009970
    29  C   -0.043932
    30  C    0.045681
    31  C    0.065810
    32  C    0.017675
    33  C    0.005936
    34  N   -0.331302
    35  C    0.141526
    36  C   -0.170200
    37  C    0.031360
    38  C    0.139111
    39  C    0.097508
    40  C   -0.017519
    41  O   -0.177586
    42  C    0.007041
    43  C    0.193871
    44  O   -0.236587
    45  O   -0.298025
    46  C    0.168855
    47  C    0.275624
    48  C   -0.128193
    49  C   -0.147005
    50  C    0.064955
    51  C    0.041541
    52  C   -0.008190
    53  C    0.053046
    54  C   -0.123685
    55  C    0.064928
    56  C    0.056449
    57  C   -0.012820
    58  C    0.054559
    59  C   -0.118732
    60  C    0.045504
    61  C    0.073076
    62  C    0.009674
    63  C    0.049210
    64  C   -0.117549
    65  C    0.043187
    66  C    0.003997
    67  H   -0.042566
    68  H    0.000884
    69  H   -0.023013
    70  H    0.022065
    71  H    0.015315
    72  H    0.021391
    73  H    0.018472
    74  H    0.028856
    75  H    0.028715
    76  H    0.042903
    77  H    0.031364
    78  H    0.022783
    79  H    0.015320
    80  H    0.024434
    81  H    0.043832
    82  H    0.034712
    83  H    0.019339
    84  H    0.033814
    85  H   -0.001531
    86  H    0.011432
    87  H    0.035806
    88  H    0.022075
    89  H    0.011058
    90  H    0.016625
    91  H    0.009103
    92  H    0.018065
    93  H    0.029739
    94  H    0.006900
    95  H    0.041608
    96  H   -0.000825
    97  H    0.039923
    98  H    0.049720
    99  H    0.021554
   100  H    0.061539
   101  H    0.036624
   102  H    0.051258
   103  H    0.029620
   104  H    0.013189
   105  H   -0.004797
   106  H    0.028132
   107  H    0.029096
   108  H   -0.005636
   109  H    0.013856
   110  H    0.008082
   111  H   -0.006236
   112  H   -0.003751
   113  H   -0.004260
   114  H   -0.005378
   115  H    0.006330
   116  H    0.011185
   117  H    0.002659
   118  H   -0.018800
   119  H   -0.001998
   120  H    0.002077
   121  H   -0.009593
   122  H   -0.011878
   123  H   -0.003288
   124  H   -0.009383
   125  H    0.012512
   126  H    0.003947
   127  H   -0.009009
   128  H    0.005573
   129  H   -0.009362
   130  H    0.001614
   131  H   -0.008662
   132  H   -0.012675
   133  H   -0.024030
   134  H    0.009683
   135  H    0.000166
   136  H    0.003161
   137  H    0.015125
   138  H    0.016735
   139  H   -0.007138
   140  H   -0.001569
 Sum of Mulliken charges =  -0.00000

 Dipole moment (field-independent basis, Debye):
    X=             -2.8633    Y=              3.8404    Z=              0.2286  Tot=              4.7958
 Quadrupole moment (field-independent basis, Debye-Ang):
   XX=           -382.1035   YY=           -419.0543   ZZ=           -410.3703
   XY=              6.5624   XZ=             -0.8413   YZ=             -5.5548

 Normal termination of Gaussian 16 at Fri Apr 29 03:25:33 2022.
