 Gaussian 16, Revision A.03,
 Gaussian 16:  ES64L-G16RevA.03 25-Dec-2016

 ---------------------------------
 #p PBE1PBE/Def2SVP td=(nstates=5)
 ---------------------------------

 ------------------------------------------------------
 step_1851_chromophore_22 TDDFT with PBE1PBE functional
 ------------------------------------------------------
 Symbolic Z-matrix:
 Charge =  0 Multiplicity = 1

                         Standard orientation:
 ---------------------------------------------------------------------
 Center     Atomic      Atomic             Coordinates (Angstroms)
 Number     Number       Type             X           Y           Z
 ---------------------------------------------------------------------
      1         12           0        6.267090    0.618530    0.005584
      2          6           0        4.014283   -2.036008   -0.429681
      3          6           0        3.702376    2.744442   -0.737967
      4          6           0        8.421146    3.124831    0.279818
      5          6           0        8.869035   -1.752324    0.256311
      6          7           0        4.092796    0.358768   -0.643225
      7          6           0        3.330613   -0.766609   -0.553271
      8          6           0        1.829554   -0.576411   -0.922814
      9          6           0        1.873236    0.988872   -1.179687
     10          6           0        3.293599    1.402160   -0.890587
     11          6           0        1.367726    1.485944   -2.585284
     12          6           0        0.739244   -1.224413    0.029682
     13          6           0       -0.645841   -0.569370   -0.092552
     14          6           0       -1.834879   -1.535827   -0.151317
     15          8           0       -1.938447   -2.393063   -0.989084
     16          8           0       -2.713925   -1.372789    0.927295
     17          7           0        6.080559    2.686402   -0.092843
     18          6           0        4.931955    3.358877   -0.362531
     19          6           0        5.184170    4.803395   -0.155093
     20          6           0        6.603759    4.942723    0.057707
     21          6           0        7.125042    3.557601    0.056256
     22          6           0        4.082485    5.860348   -0.332693
     23          6           0        7.451030    6.141749    0.160642
     24          8           0        8.649200    6.029546    0.175129
     25          6           0        6.945630    7.536699    0.342870
     26          7           0        8.378790    0.668009   -0.006739
     27          6           0        8.977950    1.859717    0.346376
     28          6           0       10.524880    1.607773    0.360592
     29          6           0       10.642843    0.049675    0.421798
     30          6           0        9.233559   -0.391919    0.294169
     31          6           0       11.207116    2.297652   -0.838357
     32          6           0       11.322833   -0.546022    1.705249
     33          6           0       12.329821   -1.727119    1.459598
     34          7           0        6.499581   -1.485975   -0.080072
     35          6           0        7.588623   -2.284070    0.132405
     36          6           0        7.084741   -3.661428    0.110910
     37          6           0        5.720757   -3.581358   -0.153673
     38          6           0        5.418199   -2.242995   -0.300701
     39          6           0        7.967523   -4.926561    0.324111
     40          6           0        4.551745   -4.390701   -0.267170
     41          8           0        4.415779   -5.616046   -0.225994
     42          6           0        3.383513   -3.433534   -0.385102
     43          6           0        2.564367   -3.751759    0.847663
     44          8           0        2.581587   -3.243885    1.970195
     45          8           0        1.580253   -4.572643    0.485891
     46          6           0        0.457886   -4.643568    1.425929
     47          6           0       -3.833074   -2.357810    1.104591
     48          6           0       -4.982433   -2.075412    0.141984
     49          6           0       -5.962347   -2.943246   -0.243914
     50          6           0       -6.022286   -4.487546   -0.054749
     51          6           0       -7.116740   -2.362788   -1.174157
     52          6           0       -7.899944   -1.230803   -0.428384
     53          6           0       -8.473823   -0.083501   -1.327113
     54          6           0       -9.892434   -0.351837   -2.000878
     55          6           0       -9.760105   -0.861223   -3.454805
     56          6           0      -10.730487    0.962942   -1.899765
     57          6           0      -11.660454    0.937574   -0.655687
     58          6           0      -13.049947    0.293349   -0.942540
     59          6           0      -14.138824    1.455326   -1.131046
     60          6           0      -14.579352    1.398147   -2.575809
     61          6           0      -15.339604    1.501745   -0.134661
     62          6           0      -15.406366    2.668534    0.947624
     63          6           0      -15.477048    2.082618    2.336625
     64          6           0      -14.120603    1.985221    3.017364
     65          6           0      -13.670875    0.533502    3.358219
     66          6           0      -14.157724    2.813093    4.427385
     67          1           0        2.841805    3.381359   -0.951738
     68          1           0        9.219352    3.864297    0.374398
     69          1           0        9.743573   -2.404267    0.196267
     70          1           0        1.738912   -1.066943   -1.891588
     71          1           0        1.221433    1.548159   -0.508437
     72          1           0        0.372330    1.891856   -2.406788
     73          1           0        1.202016    0.698600   -3.320686
     74          1           0        2.206737    2.120597   -2.869874
     75          1           0        1.066075   -1.209541    1.069760
     76          1           0        0.689303   -2.289662   -0.193235
     77          1           0       -0.727696    0.161084   -0.898461
     78          1           0       -0.765236   -0.022323    0.842588
     79          1           0        3.159832    5.487289   -0.776761
     80          1           0        4.402221    6.557970   -1.105444
     81          1           0        3.948594    6.344986    0.634335
     82          1           0        7.733772    8.189708    0.715370
     83          1           0        6.123926    7.448544    1.054830
     84          1           0        6.594754    7.853750   -0.638634
     85          1           0       11.004633    1.967134    1.270945
     86          1           0       11.126539   -0.417413   -0.435594
     87          1           0       11.244339    3.373497   -0.668535
     88          1           0       10.610336    2.027584   -1.709655
     89          1           0       12.222580    1.924776   -0.971955
     90          1           0       10.478756   -0.816325    2.338866
     91          1           0       11.954004    0.223608    2.148025
     92          1           0       12.745965   -2.045968    2.415258
     93          1           0       13.099918   -1.437853    0.744199
     94          1           0       11.700095   -2.562032    1.154482
     95          1           0        7.274288   -5.578233    0.855879
     96          1           0        8.752450   -4.554996    0.983380
     97          1           0        8.557137   -5.437647   -0.436929
     98          1           0        2.882482   -3.775719   -1.291300
     99          1           0       -0.313972   -3.921464    1.159805
    100          1           0        0.745476   -4.476259    2.464525
    101          1           0       -0.011480   -5.609808    1.243724
    102          1           0       -4.172327   -2.524141    2.127030
    103          1           0       -3.430645   -3.307985    0.752637
    104          1           0       -4.935377   -1.078657   -0.297155
    105          1           0       -5.065531   -4.857814    0.314655
    106          1           0       -6.089210   -5.073648   -0.971019
    107          1           0       -6.827938   -4.821867    0.598643
    108          1           0       -7.799732   -3.130653   -1.538943
    109          1           0       -6.646374   -1.989553   -2.084910
    110          1           0       -7.224516   -0.838153    0.332197
    111          1           0       -8.740855   -1.755974    0.023989
    112          1           0       -7.635624    0.103149   -1.998581
    113          1           0       -8.567327    0.757362   -0.639515
    114          1           0      -10.408985   -1.137482   -1.450705
    115          1           0       -8.742859   -1.239461   -3.562402
    116          1           0      -10.008101   -0.086239   -4.180066
    117          1           0      -10.471956   -1.670986   -3.616572
    118          1           0      -11.465339    1.071985   -2.697246
    119          1           0      -10.086505    1.840479   -1.961125
    120          1           0      -11.591941    1.885145   -0.121024
    121          1           0      -11.251774    0.213937    0.049844
    122          1           0      -13.412429   -0.299465   -0.102319
    123          1           0      -12.955280   -0.367825   -1.803298
    124          1           0      -13.635356    2.419832   -1.063302
    125          1           0      -14.961035    2.392187   -2.808895
    126          1           0      -15.214614    0.536906   -2.781904
    127          1           0      -13.736961    1.140029   -3.216617
    128          1           0      -15.584021    0.552746    0.343318
    129          1           0      -16.109362    1.883003   -0.805604
    130          1           0      -16.231101    3.379432    0.892650
    131          1           0      -14.483616    3.234366    0.819168
    132          1           0      -16.093029    1.187889    2.419903
    133          1           0      -16.171294    2.689813    2.918363
    134          1           0      -13.335797    2.421578    2.398370
    135          1           0      -12.720510    0.393137    2.842293
    136          1           0      -14.323736   -0.212950    2.904943
    137          1           0      -13.502247    0.319346    4.413822
    138          1           0      -15.081847    3.056479    4.950993
    139          1           0      -13.743186    3.810654    4.281438
    140          1           0      -13.465960    2.413191    5.168287
 ---------------------------------------------------------------------

 SCF Done:  E(RPBE1PBE) =  -3005.33090790     A.U. after   15 cycles

 Excitation energies and oscillator strengths:

 Excited State   1:      Singlet-A      1.8389 eV  674.24 nm  f=0.3634  <S**2>=0.000
     245 -> 248       -0.18043
     246 -> 247        0.69174
     246 <- 247       -0.10604
 This state for optimization and/or second-order correction.
 Total Energy, E(TD-HF/TD-DFT) =  -3005.26333007
 Copying the excited state density for this state as the 1-particle RhoCI density.

 Excited State   2:      Singlet-A      2.2186 eV  558.84 nm  f=0.0923  <S**2>=0.000
     245 -> 247        0.64438
     246 -> 248        0.28149

 Excited State   3:      Singlet-A      2.9761 eV  416.60 nm  f=0.0001  <S**2>=0.000
     240 -> 247        0.11114
     241 -> 247       -0.37927
     241 -> 249       -0.12762
     242 -> 247       -0.32389
     243 -> 247        0.44019

 Excited State   4:      Singlet-A      2.9810 eV  415.91 nm  f=0.0002  <S**2>=0.000
     241 -> 247        0.23864
     242 -> 247        0.38639
     243 -> 247        0.50069
     243 -> 249       -0.13100

 Excited State   5:      Singlet-A      3.1053 eV  399.26 nm  f=0.0001  <S**2>=0.000
     241 -> 247        0.50444
     242 -> 247       -0.46873
     243 -> 247        0.11112

 The electronic state is 1-A.
 Alpha  occ. eigenvalues --  -46.92523 -19.26001 -19.25595 -19.21001 -19.19566
 Alpha  occ. eigenvalues --  -19.18788 -19.18221 -14.42030 -14.41133 -14.39504
 Alpha  occ. eigenvalues --  -14.38596 -10.37216 -10.36397 -10.31440 -10.31254
 Alpha  occ. eigenvalues --  -10.30419 -10.29459 -10.28610 -10.28552 -10.28365
 Alpha  occ. eigenvalues --  -10.28283 -10.28233 -10.28015 -10.27297 -10.27143
 Alpha  occ. eigenvalues --  -10.27079 -10.26355 -10.26308 -10.26204 -10.25886
 Alpha  occ. eigenvalues --  -10.25795 -10.25770 -10.25710 -10.25456 -10.25299
 Alpha  occ. eigenvalues --  -10.25116 -10.25016 -10.25013 -10.24831 -10.24281
 Alpha  occ. eigenvalues --  -10.24189 -10.24185 -10.24130 -10.24093 -10.23926
 Alpha  occ. eigenvalues --  -10.23862 -10.23448 -10.23431 -10.23186 -10.23137
 Alpha  occ. eigenvalues --  -10.23125 -10.23088 -10.23083 -10.22826 -10.22770
 Alpha  occ. eigenvalues --  -10.22660 -10.22450 -10.22408 -10.22348 -10.22318
 Alpha  occ. eigenvalues --  -10.22003 -10.21867 -10.21845 -10.21549 -10.21518
 Alpha  occ. eigenvalues --  -10.21487  -3.14533  -1.87379  -1.86911  -1.86747
 Alpha  occ. eigenvalues --   -1.12252  -1.10896  -1.05770  -1.03872  -1.03237
 Alpha  occ. eigenvalues --   -1.01720  -0.99502  -0.98610  -0.97876  -0.96709
 Alpha  occ. eigenvalues --   -0.87457  -0.83966  -0.83767  -0.83385  -0.83204
 Alpha  occ. eigenvalues --   -0.82396  -0.82295  -0.81687  -0.80996  -0.80986
 Alpha  occ. eigenvalues --   -0.80028  -0.79759  -0.78427  -0.77982  -0.77438
 Alpha  occ. eigenvalues --   -0.76345  -0.76071  -0.75746  -0.75130  -0.74708
 Alpha  occ. eigenvalues --   -0.74054  -0.72726  -0.72342  -0.72052  -0.70669
 Alpha  occ. eigenvalues --   -0.69921  -0.69322  -0.69092  -0.68597  -0.68524
 Alpha  occ. eigenvalues --   -0.67688  -0.66899  -0.66085  -0.65215  -0.63380
 Alpha  occ. eigenvalues --   -0.62932  -0.62157  -0.62020  -0.60984  -0.60329
 Alpha  occ. eigenvalues --   -0.59629  -0.59405  -0.59284  -0.58862  -0.58121
 Alpha  occ. eigenvalues --   -0.57817  -0.57599  -0.56902  -0.56785  -0.54738
 Alpha  occ. eigenvalues --   -0.54515  -0.54382  -0.54077  -0.53319  -0.53058
 Alpha  occ. eigenvalues --   -0.52314  -0.52107  -0.50839  -0.50320  -0.49776
 Alpha  occ. eigenvalues --   -0.49624  -0.49285  -0.48894  -0.48628  -0.48337
 Alpha  occ. eigenvalues --   -0.48281  -0.47762  -0.47546  -0.47362  -0.47270
 Alpha  occ. eigenvalues --   -0.46918  -0.46725  -0.46432  -0.46293  -0.46050
 Alpha  occ. eigenvalues --   -0.45892  -0.45678  -0.45520  -0.45388  -0.45240
 Alpha  occ. eigenvalues --   -0.44968  -0.44874  -0.44760  -0.44592  -0.44451
 Alpha  occ. eigenvalues --   -0.44194  -0.43697  -0.43623  -0.43451  -0.43241
 Alpha  occ. eigenvalues --   -0.43093  -0.42954  -0.42927  -0.42851  -0.42587
 Alpha  occ. eigenvalues --   -0.42503  -0.42220  -0.42022  -0.41623  -0.41419
 Alpha  occ. eigenvalues --   -0.40985  -0.40727  -0.40679  -0.40621  -0.40251
 Alpha  occ. eigenvalues --   -0.40124  -0.39865  -0.39700  -0.39602  -0.39579
 Alpha  occ. eigenvalues --   -0.39439  -0.39250  -0.39069  -0.39033  -0.38870
 Alpha  occ. eigenvalues --   -0.38770  -0.38334  -0.38108  -0.37930  -0.37813
 Alpha  occ. eigenvalues --   -0.37792  -0.37454  -0.37196  -0.36869  -0.36816
 Alpha  occ. eigenvalues --   -0.36668  -0.36441  -0.36206  -0.36058  -0.35994
 Alpha  occ. eigenvalues --   -0.35832  -0.35720  -0.35270  -0.35215  -0.34965
 Alpha  occ. eigenvalues --   -0.34654  -0.34453  -0.34279  -0.33974  -0.33972
 Alpha  occ. eigenvalues --   -0.33358  -0.33256  -0.32625  -0.32428  -0.32420
 Alpha  occ. eigenvalues --   -0.32345  -0.31961  -0.31793  -0.31612  -0.31155
 Alpha  occ. eigenvalues --   -0.30992  -0.30816  -0.29618  -0.29345  -0.29214
 Alpha  occ. eigenvalues --   -0.29164  -0.28787  -0.27786  -0.26758  -0.25862
 Alpha  occ. eigenvalues --   -0.25584  -0.25269  -0.25178  -0.24968  -0.20967
 Alpha  occ. eigenvalues --   -0.18708
 Alpha virt. eigenvalues --   -0.11117  -0.05428  -0.04084  -0.02242  -0.00188
 Alpha virt. eigenvalues --    0.00079   0.00147   0.00476   0.00895   0.03234
 Alpha virt. eigenvalues --    0.03798   0.04988   0.05202   0.05298   0.05935

 Mulliken charges:
               1
     1  Mg   0.958364
     2  C   -0.038141
     3  C   -0.060607
     4  C   -0.080155
     5  C   -0.100390
     6  N   -0.347985
     7  C    0.029485
     8  C   -0.049834
     9  C   -0.183338
    10  C    0.040365
    11  C    0.008463
    12  C   -0.022894
    13  C    0.008688
    14  C    0.219972
    15  O   -0.240598
    16  O   -0.398472
    17  N   -0.492512
    18  C    0.185846
    19  C   -0.173142
    20  C   -0.062708
    21  C    0.189385
    22  C    0.053548
    23  C   -0.001720
    24  O   -0.236105
    25  C    0.004738
    26  N   -0.434708
    27  C    0.086687
    28  C   -0.087652
    29  C   -0.117351
    30  C    0.080620
    31  C    0.004723
    32  C   -0.043699
    33  C   -0.070246
    34  N   -0.459462
    35  C    0.160462
    36  C   -0.175821
    37  C   -0.027564
    38  C    0.190595
    39  C    0.048319
    40  C    0.074826
    41  O   -0.224086
    42  C   -0.101603
    43  C    0.278942
    44  O   -0.272519
    45  O   -0.329185
    46  C    0.108648
    47  C    0.232146
    48  C   -0.141735
    49  C   -0.187800
    50  C    0.001410
    51  C   -0.014936
    52  C   -0.071972
    53  C   -0.004329
    54  C   -0.205741
    55  C    0.004688
    56  C   -0.004679
    57  C   -0.076904
    58  C   -0.001620
    59  C   -0.197170
    60  C   -0.020279
    61  C    0.017735
    62  C   -0.054730
    63  C   -0.001547
    64  C   -0.210093
    65  C   -0.016341
    66  C   -0.055776
    67  H   -0.009263
    68  H    0.034342
    69  H    0.011089
    70  H    0.060400
    71  H    0.053473
    72  H    0.046973
    73  H    0.045629
    74  H    0.056875
    75  H    0.061342
    76  H    0.080256
    77  H    0.065270
    78  H    0.056008
    79  H    0.041767
    80  H    0.052010
    81  H    0.070243
    82  H    0.061345
    83  H    0.046724
    84  H    0.060731
    85  H    0.036018
    86  H    0.049258
    87  H    0.063050
    88  H    0.050996
    89  H    0.040125
    90  H    0.050278
    91  H    0.042573
    92  H    0.047164
    93  H    0.056810
    94  H    0.035995
    95  H    0.069478
    96  H    0.026963
    97  H    0.065929
    98  H    0.084828
    99  H    0.048816
   100  H    0.082283
   101  H    0.058780
   102  H    0.077318
   103  H    0.056916
   104  H    0.042445
   105  H    0.022837
   106  H    0.054713
   107  H    0.056526
   108  H    0.025930
   109  H    0.045321
   110  H    0.041059
   111  H    0.027720
   112  H    0.028642
   113  H    0.029252
   114  H    0.031154
   115  H    0.035090
   116  H    0.038012
   117  H    0.030235
   118  H    0.019068
   119  H    0.030006
   120  H    0.033144
   121  H    0.024797
   122  H    0.022512
   123  H    0.028884
   124  H    0.028611
   125  H    0.040423
   126  H    0.032738
   127  H    0.020158
   128  H    0.035311
   129  H    0.025870
   130  H    0.032901
   131  H    0.023712
   132  H    0.018088
   133  H    0.009072
   134  H    0.046866
   135  H    0.028901
   136  H    0.029854
   137  H    0.041168
   138  H    0.042421
   139  H    0.021395
   140  H    0.025866
 Sum of Mulliken charges =  -0.00000

 Dipole moment (field-independent basis, Debye):
    X=             -2.7303    Y=              3.7253    Z=              0.2306  Tot=              4.6245
 Quadrupole moment (field-independent basis, Debye-Ang):
   XX=           -375.0112   YY=           -416.4638   ZZ=           -408.0357
   XY=              5.4949   XZ=             -0.4703   YZ=             -5.7043

 Normal termination of Gaussian 16 at Fri Apr 29 03:43:59 2022.
