 Gaussian 16, Revision A.03,
 Gaussian 16:  ES64L-G16RevA.03 25-Dec-2016

 --------------------------------
 #p wB97XD/Def2SVP td=(nstates=5)
 --------------------------------

 -----------------------------------------------------
 step_1851_chromophore_22 TDDFT with wB97XD functional
 -----------------------------------------------------
 Symbolic Z-matrix:
 Charge =  0 Multiplicity = 1

                         Standard orientation:
 ---------------------------------------------------------------------
 Center     Atomic      Atomic             Coordinates (Angstroms)
 Number     Number       Type             X           Y           Z
 ---------------------------------------------------------------------
      1         12           0        6.267090    0.618530    0.005584
      2          6           0        4.014283   -2.036008   -0.429681
      3          6           0        3.702376    2.744442   -0.737967
      4          6           0        8.421146    3.124831    0.279818
      5          6           0        8.869035   -1.752324    0.256311
      6          7           0        4.092796    0.358768   -0.643225
      7          6           0        3.330613   -0.766609   -0.553271
      8          6           0        1.829554   -0.576411   -0.922814
      9          6           0        1.873236    0.988872   -1.179687
     10          6           0        3.293599    1.402160   -0.890587
     11          6           0        1.367726    1.485944   -2.585284
     12          6           0        0.739244   -1.224413    0.029682
     13          6           0       -0.645841   -0.569370   -0.092552
     14          6           0       -1.834879   -1.535827   -0.151317
     15          8           0       -1.938447   -2.393063   -0.989084
     16          8           0       -2.713925   -1.372789    0.927295
     17          7           0        6.080559    2.686402   -0.092843
     18          6           0        4.931955    3.358877   -0.362531
     19          6           0        5.184170    4.803395   -0.155093
     20          6           0        6.603759    4.942723    0.057707
     21          6           0        7.125042    3.557601    0.056256
     22          6           0        4.082485    5.860348   -0.332693
     23          6           0        7.451030    6.141749    0.160642
     24          8           0        8.649200    6.029546    0.175129
     25          6           0        6.945630    7.536699    0.342870
     26          7           0        8.378790    0.668009   -0.006739
     27          6           0        8.977950    1.859717    0.346376
     28          6           0       10.524880    1.607773    0.360592
     29          6           0       10.642843    0.049675    0.421798
     30          6           0        9.233559   -0.391919    0.294169
     31          6           0       11.207116    2.297652   -0.838357
     32          6           0       11.322833   -0.546022    1.705249
     33          6           0       12.329821   -1.727119    1.459598
     34          7           0        6.499581   -1.485975   -0.080072
     35          6           0        7.588623   -2.284070    0.132405
     36          6           0        7.084741   -3.661428    0.110910
     37          6           0        5.720757   -3.581358   -0.153673
     38          6           0        5.418199   -2.242995   -0.300701
     39          6           0        7.967523   -4.926561    0.324111
     40          6           0        4.551745   -4.390701   -0.267170
     41          8           0        4.415779   -5.616046   -0.225994
     42          6           0        3.383513   -3.433534   -0.385102
     43          6           0        2.564367   -3.751759    0.847663
     44          8           0        2.581587   -3.243885    1.970195
     45          8           0        1.580253   -4.572643    0.485891
     46          6           0        0.457886   -4.643568    1.425929
     47          6           0       -3.833074   -2.357810    1.104591
     48          6           0       -4.982433   -2.075412    0.141984
     49          6           0       -5.962347   -2.943246   -0.243914
     50          6           0       -6.022286   -4.487546   -0.054749
     51          6           0       -7.116740   -2.362788   -1.174157
     52          6           0       -7.899944   -1.230803   -0.428384
     53          6           0       -8.473823   -0.083501   -1.327113
     54          6           0       -9.892434   -0.351837   -2.000878
     55          6           0       -9.760105   -0.861223   -3.454805
     56          6           0      -10.730487    0.962942   -1.899765
     57          6           0      -11.660454    0.937574   -0.655687
     58          6           0      -13.049947    0.293349   -0.942540
     59          6           0      -14.138824    1.455326   -1.131046
     60          6           0      -14.579352    1.398147   -2.575809
     61          6           0      -15.339604    1.501745   -0.134661
     62          6           0      -15.406366    2.668534    0.947624
     63          6           0      -15.477048    2.082618    2.336625
     64          6           0      -14.120603    1.985221    3.017364
     65          6           0      -13.670875    0.533502    3.358219
     66          6           0      -14.157724    2.813093    4.427385
     67          1           0        2.841805    3.381359   -0.951738
     68          1           0        9.219352    3.864297    0.374398
     69          1           0        9.743573   -2.404267    0.196267
     70          1           0        1.738912   -1.066943   -1.891588
     71          1           0        1.221433    1.548159   -0.508437
     72          1           0        0.372330    1.891856   -2.406788
     73          1           0        1.202016    0.698600   -3.320686
     74          1           0        2.206737    2.120597   -2.869874
     75          1           0        1.066075   -1.209541    1.069760
     76          1           0        0.689303   -2.289662   -0.193235
     77          1           0       -0.727696    0.161084   -0.898461
     78          1           0       -0.765236   -0.022323    0.842588
     79          1           0        3.159832    5.487289   -0.776761
     80          1           0        4.402221    6.557970   -1.105444
     81          1           0        3.948594    6.344986    0.634335
     82          1           0        7.733772    8.189708    0.715370
     83          1           0        6.123926    7.448544    1.054830
     84          1           0        6.594754    7.853750   -0.638634
     85          1           0       11.004633    1.967134    1.270945
     86          1           0       11.126539   -0.417413   -0.435594
     87          1           0       11.244339    3.373497   -0.668535
     88          1           0       10.610336    2.027584   -1.709655
     89          1           0       12.222580    1.924776   -0.971955
     90          1           0       10.478756   -0.816325    2.338866
     91          1           0       11.954004    0.223608    2.148025
     92          1           0       12.745965   -2.045968    2.415258
     93          1           0       13.099918   -1.437853    0.744199
     94          1           0       11.700095   -2.562032    1.154482
     95          1           0        7.274288   -5.578233    0.855879
     96          1           0        8.752450   -4.554996    0.983380
     97          1           0        8.557137   -5.437647   -0.436929
     98          1           0        2.882482   -3.775719   -1.291300
     99          1           0       -0.313972   -3.921464    1.159805
    100          1           0        0.745476   -4.476259    2.464525
    101          1           0       -0.011480   -5.609808    1.243724
    102          1           0       -4.172327   -2.524141    2.127030
    103          1           0       -3.430645   -3.307985    0.752637
    104          1           0       -4.935377   -1.078657   -0.297155
    105          1           0       -5.065531   -4.857814    0.314655
    106          1           0       -6.089210   -5.073648   -0.971019
    107          1           0       -6.827938   -4.821867    0.598643
    108          1           0       -7.799732   -3.130653   -1.538943
    109          1           0       -6.646374   -1.989553   -2.084910
    110          1           0       -7.224516   -0.838153    0.332197
    111          1           0       -8.740855   -1.755974    0.023989
    112          1           0       -7.635624    0.103149   -1.998581
    113          1           0       -8.567327    0.757362   -0.639515
    114          1           0      -10.408985   -1.137482   -1.450705
    115          1           0       -8.742859   -1.239461   -3.562402
    116          1           0      -10.008101   -0.086239   -4.180066
    117          1           0      -10.471956   -1.670986   -3.616572
    118          1           0      -11.465339    1.071985   -2.697246
    119          1           0      -10.086505    1.840479   -1.961125
    120          1           0      -11.591941    1.885145   -0.121024
    121          1           0      -11.251774    0.213937    0.049844
    122          1           0      -13.412429   -0.299465   -0.102319
    123          1           0      -12.955280   -0.367825   -1.803298
    124          1           0      -13.635356    2.419832   -1.063302
    125          1           0      -14.961035    2.392187   -2.808895
    126          1           0      -15.214614    0.536906   -2.781904
    127          1           0      -13.736961    1.140029   -3.216617
    128          1           0      -15.584021    0.552746    0.343318
    129          1           0      -16.109362    1.883003   -0.805604
    130          1           0      -16.231101    3.379432    0.892650
    131          1           0      -14.483616    3.234366    0.819168
    132          1           0      -16.093029    1.187889    2.419903
    133          1           0      -16.171294    2.689813    2.918363
    134          1           0      -13.335797    2.421578    2.398370
    135          1           0      -12.720510    0.393137    2.842293
    136          1           0      -14.323736   -0.212950    2.904943
    137          1           0      -13.502247    0.319346    4.413822
    138          1           0      -15.081847    3.056479    4.950993
    139          1           0      -13.743186    3.810654    4.281438
    140          1           0      -13.465960    2.413191    5.168287
 ---------------------------------------------------------------------

 SCF Done:  E(RwB97XD) =  -3007.84202581     A.U. after   20 cycles

 Excitation energies and oscillator strengths:

 Excited State   1:      Singlet-A      1.6206 eV  765.04 nm  f=0.3718  <S**2>=0.000
     245 -> 248       -0.19397
     246 -> 247        0.68185
     245 <- 248       -0.12141
 This state for optimization and/or second-order correction.
 Total Energy, E(TD-HF/TD-DFT) =  -3007.78246937
 Copying the excited state density for this state as the 1-particle RhoCI density.

 Excited State   2:      Singlet-A      2.1546 eV  575.45 nm  f=0.0907  <S**2>=0.000
     245 -> 247        0.63054
     246 -> 248        0.30880

 Excited State   3:      Singlet-A      3.4228 eV  362.23 nm  f=0.0696  <S**2>=0.000
     240 -> 247        0.15542
     240 -> 249       -0.12628
     243 -> 247        0.58441
     246 -> 248       -0.26161

 Excited State   4:      Singlet-A      3.4862 eV  355.64 nm  f=0.4334  <S**2>=0.000
     241 -> 247       -0.23207
     242 -> 247        0.26006
     243 -> 247        0.27252
     245 -> 247       -0.22556
     246 -> 248        0.48915

 Excited State   5:      Singlet-A      3.5289 eV  351.34 nm  f=0.0622  <S**2>=0.000
     240 -> 247        0.48238
     240 -> 249       -0.31312
     240 -> 250        0.18061
     241 -> 247        0.19609
     243 -> 247       -0.17367
     246 -> 248        0.16547

 The electronic state is 1-A.
 Alpha  occ. eigenvalues --  -46.95465 -19.30544 -19.30180 -19.25689 -19.24279
 Alpha  occ. eigenvalues --  -19.23632 -19.23026 -14.47204 -14.46111 -14.44458
 Alpha  occ. eigenvalues --  -14.43503 -10.44000 -10.43240 -10.38323 -10.38095
 Alpha  occ. eigenvalues --  -10.36901 -10.35716 -10.35079 -10.34916 -10.34641
 Alpha  occ. eigenvalues --  -10.34587 -10.34532 -10.34423 -10.33702 -10.33576
 Alpha  occ. eigenvalues --  -10.33345 -10.32742 -10.32557 -10.32492 -10.32247
 Alpha  occ. eigenvalues --  -10.32213 -10.32205 -10.32077 -10.31864 -10.31617
 Alpha  occ. eigenvalues --  -10.31582 -10.31489 -10.31424 -10.30984 -10.30672
 Alpha  occ. eigenvalues --  -10.30571 -10.30482 -10.30381 -10.30379 -10.30372
 Alpha  occ. eigenvalues --  -10.30153 -10.29827 -10.29784 -10.29738 -10.29598
 Alpha  occ. eigenvalues --  -10.29432 -10.29425 -10.29396 -10.29192 -10.29123
 Alpha  occ. eigenvalues --  -10.29040 -10.28813 -10.28774 -10.28703 -10.28677
 Alpha  occ. eigenvalues --  -10.28340 -10.28290 -10.28277 -10.27974 -10.27940
 Alpha  occ. eigenvalues --  -10.27871  -3.21342  -1.94935  -1.94469  -1.94302
 Alpha  occ. eigenvalues --   -1.19655  -1.18274  -1.13240  -1.11395  -1.10577
 Alpha  occ. eigenvalues --   -1.09112  -1.06897  -1.05935  -1.05257  -1.04067
 Alpha  occ. eigenvalues --   -0.95093  -0.91641  -0.91445  -0.90956  -0.90880
 Alpha  occ. eigenvalues --   -0.90051  -0.89905  -0.89267  -0.88720  -0.88665
 Alpha  occ. eigenvalues --   -0.87647  -0.87362  -0.86056  -0.85634  -0.85055
 Alpha  occ. eigenvalues --   -0.84009  -0.83816  -0.83378  -0.82790  -0.82357
 Alpha  occ. eigenvalues --   -0.81729  -0.80414  -0.79990  -0.79642  -0.78286
 Alpha  occ. eigenvalues --   -0.77610  -0.76884  -0.76796  -0.76281  -0.76192
 Alpha  occ. eigenvalues --   -0.75310  -0.74429  -0.73654  -0.72787  -0.70921
 Alpha  occ. eigenvalues --   -0.70496  -0.69715  -0.69647  -0.68621  -0.67827
 Alpha  occ. eigenvalues --   -0.67146  -0.66995  -0.66755  -0.66271  -0.65791
 Alpha  occ. eigenvalues --   -0.65433  -0.65116  -0.64436  -0.64314  -0.62267
 Alpha  occ. eigenvalues --   -0.61979  -0.61852  -0.61492  -0.60735  -0.60557
 Alpha  occ. eigenvalues --   -0.59761  -0.59508  -0.58244  -0.57766  -0.57171
 Alpha  occ. eigenvalues --   -0.57022  -0.56664  -0.56247  -0.56066  -0.55721
 Alpha  occ. eigenvalues --   -0.55684  -0.55203  -0.55004  -0.54779  -0.54749
 Alpha  occ. eigenvalues --   -0.54305  -0.54071  -0.53738  -0.53672  -0.53411
 Alpha  occ. eigenvalues --   -0.53254  -0.53013  -0.52859  -0.52793  -0.52551
 Alpha  occ. eigenvalues --   -0.52301  -0.52165  -0.52097  -0.51933  -0.51752
 Alpha  occ. eigenvalues --   -0.51524  -0.51018  -0.50945  -0.50785  -0.50560
 Alpha  occ. eigenvalues --   -0.50446  -0.50306  -0.50211  -0.50142  -0.49894
 Alpha  occ. eigenvalues --   -0.49736  -0.49507  -0.49341  -0.48882  -0.48659
 Alpha  occ. eigenvalues --   -0.48183  -0.47948  -0.47818  -0.47792  -0.47516
 Alpha  occ. eigenvalues --   -0.47261  -0.47071  -0.46857  -0.46807  -0.46686
 Alpha  occ. eigenvalues --   -0.46654  -0.46377  -0.46304  -0.46275  -0.46057
 Alpha  occ. eigenvalues --   -0.45974  -0.45515  -0.45194  -0.45086  -0.44943
 Alpha  occ. eigenvalues --   -0.44869  -0.44569  -0.44416  -0.44008  -0.43960
 Alpha  occ. eigenvalues --   -0.43769  -0.43496  -0.43310  -0.43135  -0.43078
 Alpha  occ. eigenvalues --   -0.42869  -0.42778  -0.42338  -0.42209  -0.42025
 Alpha  occ. eigenvalues --   -0.41608  -0.41382  -0.41363  -0.41042  -0.40832
 Alpha  occ. eigenvalues --   -0.40425  -0.40305  -0.39662  -0.39456  -0.39350
 Alpha  occ. eigenvalues --   -0.39208  -0.38977  -0.38841  -0.38584  -0.38245
 Alpha  occ. eigenvalues --   -0.38002  -0.37703  -0.36713  -0.36159  -0.36130
 Alpha  occ. eigenvalues --   -0.36091  -0.35651  -0.34717  -0.33299  -0.32743
 Alpha  occ. eigenvalues --   -0.32429  -0.32372  -0.31827  -0.31742  -0.25942
 Alpha  occ. eigenvalues --   -0.22850
 Alpha virt. eigenvalues --   -0.06972  -0.00050   0.02190   0.04263   0.05983
 Alpha virt. eigenvalues --    0.06689   0.06766   0.07200   0.07688   0.09627
 Alpha virt. eigenvalues --    0.10435   0.11783   0.11895   0.12031   0.12610

 Mulliken charges:
               1
     1  Mg   0.950017
     2  C   -0.042036
     3  C   -0.075791
     4  C   -0.093214
     5  C   -0.117305
     6  N   -0.311157
     7  C   -0.006989
     8  C   -0.027555
     9  C   -0.160655
    10  C    0.029274
    11  C    0.019504
    12  C   -0.003632
    13  C    0.028647
    14  C    0.206089
    15  O   -0.236854
    16  O   -0.398076
    17  N   -0.460249
    18  C    0.177234
    19  C   -0.165401
    20  C   -0.054167
    21  C    0.182161
    22  C    0.065133
    23  C   -0.006511
    24  O   -0.231139
    25  C    0.016485
    26  N   -0.410074
    27  C    0.075956
    28  C   -0.061282
    29  C   -0.095577
    30  C    0.074821
    31  C    0.016554
    32  C   -0.028727
    33  C   -0.050518
    34  N   -0.420310
    35  C    0.153412
    36  C   -0.180205
    37  C   -0.018637
    38  C    0.171944
    39  C    0.061017
    40  C    0.057705
    41  O   -0.213282
    42  C   -0.062715
    43  C    0.255607
    44  O   -0.265579
    45  O   -0.328347
    46  C    0.128944
    47  C    0.253326
    48  C   -0.153176
    49  C   -0.174885
    50  C    0.016746
    51  C   -0.002717
    52  C   -0.050746
    53  C    0.011291
    54  C   -0.178815
    55  C    0.018680
    56  C    0.017077
    57  C   -0.057860
    58  C    0.016369
    59  C   -0.170990
    60  C   -0.004011
    61  C    0.029049
    62  C   -0.033134
    63  C    0.010221
    64  C   -0.182887
    65  C   -0.002693
    66  C   -0.041449
    67  H   -0.018715
    68  H    0.026767
    69  H   -0.000109
    70  H    0.049015
    71  H    0.041623
    72  H    0.041851
    73  H    0.041048
    74  H    0.049532
    75  H    0.054032
    76  H    0.060501
    77  H    0.056771
    78  H    0.050791
    79  H    0.038539
    80  H    0.046297
    81  H    0.065970
    82  H    0.060748
    83  H    0.040114
    84  H    0.056132
    85  H    0.026013
    86  H    0.037591
    87  H    0.057815
    88  H    0.043417
    89  H    0.034441
    90  H    0.041300
    91  H    0.033606
    92  H    0.041924
    93  H    0.051095
    94  H    0.026856
    95  H    0.064702
    96  H    0.019111
    97  H    0.062453
    98  H    0.080485
    99  H    0.040240
   100  H    0.078705
   101  H    0.055745
   102  H    0.074345
   103  H    0.046795
   104  H    0.038813
   105  H    0.016307
   106  H    0.049747
   107  H    0.051407
   108  H    0.019323
   109  H    0.036118
   110  H    0.031203
   111  H    0.017857
   112  H    0.018835
   113  H    0.020537
   114  H    0.016892
   115  H    0.026500
   116  H    0.032812
   117  H    0.024954
   118  H    0.001163
   119  H    0.023035
   120  H    0.025811
   121  H    0.012053
   122  H    0.013131
   123  H    0.017984
   124  H    0.013848
   125  H    0.034999
   126  H    0.026331
   127  H    0.011939
   128  H    0.026282
   129  H    0.016401
   130  H    0.027441
   131  H    0.011467
   132  H    0.009499
   133  H    0.000497
   134  H    0.034591
   135  H    0.022176
   136  H    0.022346
   137  H    0.035853
   138  H    0.036713
   139  H    0.014677
   140  H    0.018995
 Sum of Mulliken charges =  -0.00000

 Dipole moment (field-independent basis, Debye):
    X=             -2.9119    Y=              3.8963    Z=              0.2467  Tot=              4.8704
 Quadrupole moment (field-independent basis, Debye-Ang):
   XX=           -376.9666   YY=           -414.3835   ZZ=           -407.6173
   XY=              6.6102   XZ=             -0.4997   YZ=             -5.7524

 Normal termination of Gaussian 16 at Fri Apr 29 04:13:59 2022.
