 Gaussian 16, Revision A.03,
 Gaussian 16:  ES64L-G16RevA.03 25-Dec-2016

 --------------------
 #p ZINDO=(nstates=5)
 --------------------

 ------------------------------
 step_1851_chromophore_22 ZINDO
 ------------------------------
 Symbolic Z-matrix:
 Charge =  0 Multiplicity = 1

                         Standard orientation:
 ---------------------------------------------------------------------
 Center     Atomic      Atomic             Coordinates (Angstroms)
 Number     Number       Type             X           Y           Z
 ---------------------------------------------------------------------
      1         12           0        6.267090    0.618530    0.005584
      2          6           0        4.014283   -2.036008   -0.429681
      3          6           0        3.702376    2.744442   -0.737967
      4          6           0        8.421146    3.124831    0.279818
      5          6           0        8.869035   -1.752324    0.256311
      6          7           0        4.092796    0.358768   -0.643225
      7          6           0        3.330613   -0.766609   -0.553271
      8          6           0        1.829554   -0.576411   -0.922814
      9          6           0        1.873236    0.988872   -1.179687
     10          6           0        3.293599    1.402160   -0.890587
     11          6           0        1.367726    1.485944   -2.585284
     12          6           0        0.739244   -1.224413    0.029682
     13          6           0       -0.645841   -0.569370   -0.092552
     14          6           0       -1.834879   -1.535827   -0.151317
     15          8           0       -1.938447   -2.393063   -0.989084
     16          8           0       -2.713925   -1.372789    0.927295
     17          7           0        6.080559    2.686402   -0.092843
     18          6           0        4.931955    3.358877   -0.362531
     19          6           0        5.184170    4.803395   -0.155093
     20          6           0        6.603759    4.942723    0.057707
     21          6           0        7.125042    3.557601    0.056256
     22          6           0        4.082485    5.860348   -0.332693
     23          6           0        7.451030    6.141749    0.160642
     24          8           0        8.649200    6.029546    0.175129
     25          6           0        6.945630    7.536699    0.342870
     26          7           0        8.378790    0.668009   -0.006739
     27          6           0        8.977950    1.859717    0.346376
     28          6           0       10.524880    1.607773    0.360592
     29          6           0       10.642843    0.049675    0.421798
     30          6           0        9.233559   -0.391919    0.294169
     31          6           0       11.207116    2.297652   -0.838357
     32          6           0       11.322833   -0.546022    1.705249
     33          6           0       12.329821   -1.727119    1.459598
     34          7           0        6.499581   -1.485975   -0.080072
     35          6           0        7.588623   -2.284070    0.132405
     36          6           0        7.084741   -3.661428    0.110910
     37          6           0        5.720757   -3.581358   -0.153673
     38          6           0        5.418199   -2.242995   -0.300701
     39          6           0        7.967523   -4.926561    0.324111
     40          6           0        4.551745   -4.390701   -0.267170
     41          8           0        4.415779   -5.616046   -0.225994
     42          6           0        3.383513   -3.433534   -0.385102
     43          6           0        2.564367   -3.751759    0.847663
     44          8           0        2.581587   -3.243885    1.970195
     45          8           0        1.580253   -4.572643    0.485891
     46          6           0        0.457886   -4.643568    1.425929
     47          6           0       -3.833074   -2.357810    1.104591
     48          6           0       -4.982433   -2.075412    0.141984
     49          6           0       -5.962347   -2.943246   -0.243914
     50          6           0       -6.022286   -4.487546   -0.054749
     51          6           0       -7.116740   -2.362788   -1.174157
     52          6           0       -7.899944   -1.230803   -0.428384
     53          6           0       -8.473823   -0.083501   -1.327113
     54          6           0       -9.892434   -0.351837   -2.000878
     55          6           0       -9.760105   -0.861223   -3.454805
     56          6           0      -10.730487    0.962942   -1.899765
     57          6           0      -11.660454    0.937574   -0.655687
     58          6           0      -13.049947    0.293349   -0.942540
     59          6           0      -14.138824    1.455326   -1.131046
     60          6           0      -14.579352    1.398147   -2.575809
     61          6           0      -15.339604    1.501745   -0.134661
     62          6           0      -15.406366    2.668534    0.947624
     63          6           0      -15.477048    2.082618    2.336625
     64          6           0      -14.120603    1.985221    3.017364
     65          6           0      -13.670875    0.533502    3.358219
     66          6           0      -14.157724    2.813093    4.427385
     67          1           0        2.841805    3.381359   -0.951738
     68          1           0        9.219352    3.864297    0.374398
     69          1           0        9.743573   -2.404267    0.196267
     70          1           0        1.738912   -1.066943   -1.891588
     71          1           0        1.221433    1.548159   -0.508437
     72          1           0        0.372330    1.891856   -2.406788
     73          1           0        1.202016    0.698600   -3.320686
     74          1           0        2.206737    2.120597   -2.869874
     75          1           0        1.066075   -1.209541    1.069760
     76          1           0        0.689303   -2.289662   -0.193235
     77          1           0       -0.727696    0.161084   -0.898461
     78          1           0       -0.765236   -0.022323    0.842588
     79          1           0        3.159832    5.487289   -0.776761
     80          1           0        4.402221    6.557970   -1.105444
     81          1           0        3.948594    6.344986    0.634335
     82          1           0        7.733772    8.189708    0.715370
     83          1           0        6.123926    7.448544    1.054830
     84          1           0        6.594754    7.853750   -0.638634
     85          1           0       11.004633    1.967134    1.270945
     86          1           0       11.126539   -0.417413   -0.435594
     87          1           0       11.244339    3.373497   -0.668535
     88          1           0       10.610336    2.027584   -1.709655
     89          1           0       12.222580    1.924776   -0.971955
     90          1           0       10.478756   -0.816325    2.338866
     91          1           0       11.954004    0.223608    2.148025
     92          1           0       12.745965   -2.045968    2.415258
     93          1           0       13.099918   -1.437853    0.744199
     94          1           0       11.700095   -2.562032    1.154482
     95          1           0        7.274288   -5.578233    0.855879
     96          1           0        8.752450   -4.554996    0.983380
     97          1           0        8.557137   -5.437647   -0.436929
     98          1           0        2.882482   -3.775719   -1.291300
     99          1           0       -0.313972   -3.921464    1.159805
    100          1           0        0.745476   -4.476259    2.464525
    101          1           0       -0.011480   -5.609808    1.243724
    102          1           0       -4.172327   -2.524141    2.127030
    103          1           0       -3.430645   -3.307985    0.752637
    104          1           0       -4.935377   -1.078657   -0.297155
    105          1           0       -5.065531   -4.857814    0.314655
    106          1           0       -6.089210   -5.073648   -0.971019
    107          1           0       -6.827938   -4.821867    0.598643
    108          1           0       -7.799732   -3.130653   -1.538943
    109          1           0       -6.646374   -1.989553   -2.084910
    110          1           0       -7.224516   -0.838153    0.332197
    111          1           0       -8.740855   -1.755974    0.023989
    112          1           0       -7.635624    0.103149   -1.998581
    113          1           0       -8.567327    0.757362   -0.639515
    114          1           0      -10.408985   -1.137482   -1.450705
    115          1           0       -8.742859   -1.239461   -3.562402
    116          1           0      -10.008101   -0.086239   -4.180066
    117          1           0      -10.471956   -1.670986   -3.616572
    118          1           0      -11.465339    1.071985   -2.697246
    119          1           0      -10.086505    1.840479   -1.961125
    120          1           0      -11.591941    1.885145   -0.121024
    121          1           0      -11.251774    0.213937    0.049844
    122          1           0      -13.412429   -0.299465   -0.102319
    123          1           0      -12.955280   -0.367825   -1.803298
    124          1           0      -13.635356    2.419832   -1.063302
    125          1           0      -14.961035    2.392187   -2.808895
    126          1           0      -15.214614    0.536906   -2.781904
    127          1           0      -13.736961    1.140029   -3.216617
    128          1           0      -15.584021    0.552746    0.343318
    129          1           0      -16.109362    1.883003   -0.805604
    130          1           0      -16.231101    3.379432    0.892650
    131          1           0      -14.483616    3.234366    0.819168
    132          1           0      -16.093029    1.187889    2.419903
    133          1           0      -16.171294    2.689813    2.918363
    134          1           0      -13.335797    2.421578    2.398370
    135          1           0      -12.720510    0.393137    2.842293
    136          1           0      -14.323736   -0.212950    2.904943
    137          1           0      -13.502247    0.319346    4.413822
    138          1           0      -15.081847    3.056479    4.950993
    139          1           0      -13.743186    3.810654    4.281438
    140          1           0      -13.465960    2.413191    5.168287
 ---------------------------------------------------------------------

 SCF Done:  E(RZINDO/S) =  -474.102103313     A.U. after   21 cycles

 Excitation energies and oscillator strengths:

 Excited State   1:      Singlet-A      1.2125 eV 1022.55 nm  f=0.5750  <S**2>=0.000
     175 ->178         0.20125
     176 ->177         0.65985
 This state for optimization and/or second-order correction.
 Total Energy, E(CIS/TDA) =  -474.057544854
 Copying the excited state density for this state as the 1-particle RhoCI density.

 Excited State   2:      Singlet-A      1.8577 eV  667.41 nm  f=0.0252  <S**2>=0.000
     175 ->177         0.53673
     176 ->178        -0.43497

 Excited State   3:      Singlet-A      2.8561 eV  434.10 nm  f=0.0117  <S**2>=0.000
     169 ->179        -0.11020
     170 ->177         0.29423
     170 ->179        -0.33362
     170 ->180        -0.32698
     170 ->184         0.11327
     170 ->186        -0.20984
     170 ->187        -0.18120
     170 ->197        -0.11047

 Excited State   4:      Singlet-A      2.9013 eV  427.34 nm  f=0.1046  <S**2>=0.000
     168 ->177        -0.10226
     168 ->179        -0.12220
     169 ->177         0.29032
     169 ->178         0.15680
     169 ->179         0.32388
     169 ->180        -0.23462
     169 ->186         0.16094
     175 ->177         0.12616
     176 ->178         0.18493
     176 ->179         0.16151

 Excited State   5:      Singlet-A      2.9191 eV  424.73 nm  f=0.4617  <S**2>=0.000
     169 ->177        -0.13584
     169 ->179        -0.15306
     169 ->180         0.12361
     175 ->177         0.25766
     176 ->178         0.37461
     176 ->179         0.41365

 The electronic state is 1-A.
 Alpha  occ. eigenvalues --   -1.85126  -1.80552  -1.79810  -1.75306  -1.71663
 Alpha  occ. eigenvalues --   -1.70134  -1.64395  -1.61991  -1.59983  -1.59153
 Alpha  occ. eigenvalues --   -1.53315  -1.50328  -1.47346  -1.47124  -1.46462
 Alpha  occ. eigenvalues --   -1.44108  -1.41787  -1.39542  -1.38612  -1.37211
 Alpha  occ. eigenvalues --   -1.36209  -1.32114  -1.31486  -1.31048  -1.27709
 Alpha  occ. eigenvalues --   -1.27212  -1.25504  -1.21981  -1.20994  -1.18015
 Alpha  occ. eigenvalues --   -1.17310  -1.15258  -1.15183  -1.14824  -1.13003
 Alpha  occ. eigenvalues --   -1.11536  -1.11299  -1.10484  -1.04295  -1.03402
 Alpha  occ. eigenvalues --   -1.01928  -1.00425  -0.97917  -0.96752  -0.95969
 Alpha  occ. eigenvalues --   -0.95250  -0.93933  -0.93785  -0.92739  -0.92276
 Alpha  occ. eigenvalues --   -0.91851  -0.90912  -0.90015  -0.88015  -0.86936
 Alpha  occ. eigenvalues --   -0.85733  -0.84046  -0.83231  -0.81127  -0.80233
 Alpha  occ. eigenvalues --   -0.80093  -0.79341  -0.77097  -0.76747  -0.76510
 Alpha  occ. eigenvalues --   -0.75517  -0.75311  -0.75083  -0.73586  -0.73251
 Alpha  occ. eigenvalues --   -0.72350  -0.71754  -0.71241  -0.71005  -0.70373
 Alpha  occ. eigenvalues --   -0.70189  -0.68475  -0.68064  -0.67516  -0.66962
 Alpha  occ. eigenvalues --   -0.66739  -0.66594  -0.66490  -0.66258  -0.66049
 Alpha  occ. eigenvalues --   -0.65812  -0.64984  -0.63991  -0.63803  -0.63454
 Alpha  occ. eigenvalues --   -0.63156  -0.62778  -0.62428  -0.61956  -0.61784
 Alpha  occ. eigenvalues --   -0.61110  -0.60991  -0.60671  -0.60228  -0.60068
 Alpha  occ. eigenvalues --   -0.59727  -0.59420  -0.58859  -0.58458  -0.58131
 Alpha  occ. eigenvalues --   -0.57730  -0.57651  -0.57238  -0.57118  -0.56930
 Alpha  occ. eigenvalues --   -0.56681  -0.56553  -0.56140  -0.55109  -0.54723
 Alpha  occ. eigenvalues --   -0.54363  -0.53876  -0.53751  -0.53600  -0.52960
 Alpha  occ. eigenvalues --   -0.52274  -0.52168  -0.52083  -0.51606  -0.51215
 Alpha  occ. eigenvalues --   -0.51126  -0.50536  -0.50323  -0.50172  -0.49789
 Alpha  occ. eigenvalues --   -0.49709  -0.49471  -0.49246  -0.48755  -0.48655
 Alpha  occ. eigenvalues --   -0.48364  -0.48321  -0.48202  -0.47831  -0.47600
 Alpha  occ. eigenvalues --   -0.47204  -0.47040  -0.46895  -0.46716  -0.46543
 Alpha  occ. eigenvalues --   -0.46443  -0.46239  -0.45992  -0.45640  -0.45341
 Alpha  occ. eigenvalues --   -0.45287  -0.45137  -0.44856  -0.44170  -0.44153
 Alpha  occ. eigenvalues --   -0.44060  -0.44023  -0.43070  -0.42266  -0.41779
 Alpha  occ. eigenvalues --   -0.41666  -0.40817  -0.40244  -0.39133  -0.38558
 Alpha  occ. eigenvalues --   -0.37800  -0.36682  -0.35018  -0.34665  -0.34340
 Alpha  occ. eigenvalues --   -0.33109  -0.32496  -0.32046  -0.31599  -0.26408
 Alpha  occ. eigenvalues --   -0.21501
 Alpha virt. eigenvalues --   -0.08357  -0.02302  -0.00623   0.01097   0.01903
 Alpha virt. eigenvalues --    0.02445   0.02759   0.03058   0.04458   0.05149
 Alpha virt. eigenvalues --    0.06277   0.06899   0.07390   0.07703   0.08336

 Mulliken charges:
               1
     1  Mg   0.430974
     2  C   -0.048529
     3  C   -0.082499
     4  C   -0.057928
     5  C   -0.075369
     6  N   -0.267690
     7  C    0.103167
     8  C    0.000826
     9  C    0.001286
    10  C    0.135530
    11  C   -0.061628
    12  C   -0.015168
    13  C    0.007562
    14  C    0.470936
    15  O   -0.504457
    16  O   -0.288396
    17  N   -0.317166
    18  C    0.108166
    19  C    0.003812
    20  C   -0.049166
    21  C    0.146029
    22  C   -0.043405
    23  C    0.330133
    24  O   -0.531569
    25  C   -0.026628
    26  N   -0.283783
    27  C    0.128611
    28  C    0.006248
    29  C    0.000451
    30  C    0.131462
    31  C   -0.046239
    32  C   -0.037566
    33  C   -0.060776
    34  N   -0.319378
    35  C    0.106344
    36  C    0.021172
    37  C   -0.036412
    38  C    0.112129
    39  C   -0.053316
    40  C    0.337024
    41  O   -0.533131
    42  C    0.058006
    43  C    0.501185
    44  O   -0.547335
    45  O   -0.254217
    46  C    0.073954
    47  C    0.100244
    48  C   -0.068873
    49  C   -0.020470
    50  C   -0.042445
    51  C   -0.031962
    52  C   -0.041014
    53  C   -0.040785
    54  C   -0.008726
    55  C   -0.059397
    56  C   -0.036221
    57  C   -0.040939
    58  C   -0.033799
    59  C   -0.016871
    60  C   -0.057265
    61  C   -0.044791
    62  C   -0.037578
    63  C   -0.029287
    64  C   -0.002125
    65  C   -0.060590
    66  C   -0.074032
    67  H    0.015674
    68  H    0.042841
    69  H    0.027159
    70  H    0.033146
    71  H    0.025765
    72  H    0.024891
    73  H    0.023851
    74  H    0.037924
    75  H    0.037602
    76  H    0.037592
    77  H    0.047888
    78  H    0.025847
    79  H    0.028505
    80  H    0.024804
    81  H    0.037441
    82  H    0.044571
    83  H    0.027656
    84  H    0.040728
    85  H    0.025177
    86  H    0.034526
    87  H    0.031086
    88  H    0.025609
    89  H    0.015845
    90  H    0.030802
    91  H    0.016711
    92  H    0.018823
    93  H    0.030948
    94  H    0.020206
    95  H    0.037919
    96  H    0.013553
    97  H    0.045944
    98  H    0.063546
    99  H    0.034370
   100  H    0.058609
   101  H    0.031183
   102  H    0.055904
   103  H    0.045590
   104  H    0.039031
   105  H    0.016107
   106  H    0.029987
   107  H    0.030591
   108  H    0.018951
   109  H    0.023627
   110  H    0.025732
   111  H    0.015617
   112  H    0.026167
   113  H    0.013057
   114  H    0.026371
   115  H    0.022141
   116  H    0.022567
   117  H    0.015194
   118  H    0.014168
   119  H    0.021411
   120  H    0.026131
   121  H    0.003690
   122  H    0.014896
   123  H    0.029313
   124  H    0.018794
   125  H    0.020516
   126  H    0.020659
   127  H    0.010188
   128  H    0.034841
   129  H    0.014158
   130  H    0.023821
   131  H    0.018882
   132  H    0.020346
   133  H    0.004022
   134  H    0.030162
   135  H    0.009775
   136  H    0.017585
   137  H    0.027413
   138  H    0.029617
   139  H    0.004461
   140  H    0.013447
 Sum of Mulliken charges =  -0.00000

 Dipole moment (field-independent basis, Debye):
    X=             -3.5935    Y=              5.8045    Z=             -0.4521  Tot=              6.8418
 N-N= 4.196758757294D+03 E-N= 0.000000000000D+00  KE=-9.068099952634D+03
 Leave Link  601 at Fri Apr 29 04:26:13 2022, MaxMem=  6710886400 cpu:               3.1 elap:               0.2
 (Enter /sw/apps/gaussian-16.0/g16/l9999.exe)
 1\1\GINC-BP1-COMPUTE150\SP\RZINDO CIS\STO-3G\C55H74Mg1N4O6\OF15641\29-
 Apr-2022\0\\#p ZINDO=(nstates=5)\\step_1851_chromophore_22 ZINDO\\0,1\
 Mg,0,8.42,47.011,25.727\C,0,6.361,46.933,28.567\C,0,11.048,47.644,27.8
 11\C,0,10.349,47.223,23.038\C,0,5.515,46.847,23.73\N,0,8.649,47.375,27
 .97\C,0,7.747,47.093,28.951\C,0,8.268,47.301,30.404\C,0,9.758,47.705,3
 0.037\C,0,9.836,47.623,28.534\C,0,10.273,49.082,30.6\C,0,7.961,46.172,
 31.475\C,0,8.92,46.192,32.676\C,0,8.265,46.022,34.052\O,0,7.407,46.759

 Normal termination of Gaussian 16 at Fri Apr 29 04:26:13 2022.
