 Gaussian 16, Revision A.03,
 Gaussian 16:  ES64L-G16RevA.03 25-Dec-2016

 ------------------------------
 #p blyp/Def2SVP td=(nstates=5)
 ------------------------------

 --------------------------------------------------
 step_1051_chromophore_8 TDDFT with blyp functional
 --------------------------------------------------
 Symbolic Z-matrix:
 Charge =  0 Multiplicity = 1

                         Standard orientation:
 ---------------------------------------------------------------------
 Center     Atomic      Atomic             Coordinates (Angstroms)
 Number     Number       Type             X           Y           Z
 ---------------------------------------------------------------------
      1         12           0       -4.293713   -1.056222    0.288633
      2          6           0       -3.312720    2.217839    0.999270
      3          6           0       -4.604613    0.074860   -3.140468
      4          6           0       -4.813192   -4.195365   -0.877234
      5          6           0       -3.551434   -2.075867    3.414667
      6          7           0       -3.852978    0.861431   -0.961088
      7          6           0       -3.515950    2.080056   -0.385621
      8          6           0       -3.481862    3.246073   -1.402236
      9          6           0       -4.142376    2.561382   -2.616010
     10          6           0       -4.158096    1.046359   -2.278147
     11          6           0       -5.554652    3.075981   -2.900689
     12          6           0       -2.086757    3.714010   -1.715516
     13          6           0       -1.799942    5.257110   -1.423022
     14          6           0       -0.421160    5.596468   -0.878557
     15          8           0       -0.123611    6.095812    0.163650
     16          8           0        0.539746    5.044721   -1.754020
     17          7           0       -4.673786   -1.898027   -1.751219
     18          6           0       -4.753775   -1.341496   -2.974227
     19          6           0       -4.944241   -2.341632   -3.994368
     20          6           0       -5.177745   -3.539099   -3.323692
     21          6           0       -4.874044   -3.284670   -1.897117
     22          6           0       -4.918909   -2.064798   -5.496136
     23          6           0       -5.611968   -4.762569   -4.047498
     24          8           0       -5.790210   -4.798412   -5.263006
     25          6           0       -5.823715   -5.986246   -3.345459
     26          7           0       -4.257270   -2.839480    1.154210
     27          6           0       -4.613868   -4.026377    0.509662
     28          6           0       -4.595047   -5.194746    1.466433
     29          6           0       -4.379990   -4.526845    2.856854
     30          6           0       -3.985033   -3.083073    2.450920
     31          6           0       -5.826117   -6.251462    1.473572
     32          6           0       -3.321525   -5.202948    3.787430
     33          6           0       -3.647629   -5.195765    5.320456
     34          7           0       -3.472619   -0.192015    1.872258
     35          6           0       -3.351631   -0.682754    3.170655
     36          6           0       -2.918312    0.421457    4.030095
     37          6           0       -2.969579    1.550786    3.182328
     38          6           0       -3.277649    1.131619    1.906671
     39          6           0       -2.438933    0.426011    5.425431
     40          6           0       -2.699089    2.992435    3.199464
     41          8           0       -2.355150    3.734909    4.094210
     42          6           0       -3.025371    3.464158    1.723282
     43          6           0       -4.242662    4.388794    1.829930
     44          8           0       -5.450510    4.161827    1.651850
     45          8           0       -3.785319    5.644500    2.027179
     46          6           0       -4.739256    6.738890    1.932037
     47          6           0        2.002875    5.254352   -1.332998
     48          6           0        2.795662    3.978416   -0.908296
     49          6           0        4.128830    3.745746   -1.002454
     50          6           0        5.116685    4.729600   -1.551961
     51          6           0        4.689073    2.478927   -0.518747
     52          6           0        4.996791    1.523433   -1.672719
     53          6           0        4.668173    0.106401   -1.438535
     54          6           0        5.914100   -0.802104   -1.074563
     55          6           0        5.664861   -2.274497   -1.543455
     56          6           0        6.285321   -0.637495    0.395653
     57          6           0        7.757172   -0.701372    0.724764
     58          6           0        8.044366   -2.046206    1.506281
     59          6           0        9.167363   -2.909575    0.833399
     60          6           0        9.224192   -4.466733    1.167344
     61          6           0       10.567739   -2.284300    1.151104
     62          6           0       11.676629   -2.426646    0.019631
     63          6           0       12.352428   -1.066817   -0.365726
     64          6           0       13.879939   -1.094754   -0.559947
     65          6           0       14.195480   -0.369415   -1.849699
     66          6           0       14.682545   -0.681208    0.661273
     67          1           0       -4.902235    0.383933   -4.144580
     68          1           0       -4.923282   -5.224050   -1.227055
     69          1           0       -3.352547   -2.439775    4.424996
     70          1           0       -4.080881    4.075963   -1.026588
     71          1           0       -3.493143    2.627984   -3.488776
     72          1           0       -5.519918    4.164917   -2.935187
     73          1           0       -6.381407    2.767237   -2.260566
     74          1           0       -5.959772    2.700166   -3.840026
     75          1           0       -1.843881    3.650338   -2.776315
     76          1           0       -1.438010    3.047049   -1.147343
     77          1           0       -2.647943    5.842126   -1.067433
     78          1           0       -1.831220    5.734344   -2.403265
     79          1           0       -5.907174   -2.291070   -5.896245
     80          1           0       -4.127529   -2.652592   -5.962203
     81          1           0       -4.715698   -1.022944   -5.740558
     82          1           0       -6.465397   -5.910959   -2.467250
     83          1           0       -4.784070   -6.292082   -3.228260
     84          1           0       -6.263984   -6.681093   -4.059344
     85          1           0       -3.705287   -5.701321    1.092077
     86          1           0       -5.319982   -4.362970    3.382681
     87          1           0       -5.746413   -6.975135    2.284283
     88          1           0       -5.723862   -6.754785    0.512001
     89          1           0       -6.660572   -5.570400    1.640999
     90          1           0       -2.335348   -4.764518    3.640078
     91          1           0       -3.217689   -6.251484    3.508431
     92          1           0       -2.765062   -4.787930    5.814137
     93          1           0       -3.938901   -6.184900    5.674111
     94          1           0       -4.444552   -4.463220    5.450028
     95          1           0       -2.988450    1.188681    5.977629
     96          1           0       -1.416208    0.803459    5.424063
     97          1           0       -2.484475   -0.526522    5.953462
     98          1           0       -2.137710    3.985053    1.365390
     99          1           0       -5.802359    6.496414    1.917215
    100          1           0       -4.542862    7.160808    0.946965
    101          1           0       -4.602578    7.563257    2.632283
    102          1           0        2.164551    6.004193   -0.559329
    103          1           0        2.517780    5.588658   -2.233332
    104          1           0        2.246809    3.260393   -0.298718
    105          1           0        5.442753    5.253997   -0.653615
    106          1           0        4.649952    5.379777   -2.292444
    107          1           0        5.915530    4.152991   -2.018451
    108          1           0        4.188118    1.996480    0.320802
    109          1           0        5.590988    2.834192   -0.021586
    110          1           0        6.085951    1.561150   -1.685247
    111          1           0        4.603019    1.869358   -2.628685
    112          1           0        4.039061   -0.155353   -2.289130
    113          1           0        4.075240    0.112374   -0.523257
    114          1           0        6.737252   -0.448109   -1.695286
    115          1           0        5.928538   -2.992734   -0.767703
    116          1           0        6.222621   -2.418035   -2.468566
    117          1           0        4.590999   -2.362588   -1.706205
    118          1           0        5.682313   -1.258351    1.058323
    119          1           0        6.119840    0.428588    0.554289
    120          1           0        7.960515    0.155929    1.365982
    121          1           0        8.342746   -0.570526   -0.185086
    122          1           0        7.210727   -2.748099    1.486031
    123          1           0        8.271201   -1.846634    2.554015
    124          1           0        8.948345   -2.797563   -0.227958
    125          1           0       10.192884   -4.959869    1.247890
    126          1           0        8.669549   -5.061092    0.441800
    127          1           0        8.713078   -4.634813    2.115965
    128          1           0       11.025559   -2.920546    1.908776
    129          1           0       10.480889   -1.295706    1.601112
    130          1           0       11.249127   -2.792676   -0.914112
    131          1           0       12.466995   -3.101064    0.348768
    132          1           0       12.314481   -0.431661    0.519202
    133          1           0       11.689384   -0.499961   -1.019757
    134          1           0       14.128071   -2.151198   -0.664687
    135          1           0       14.029474    0.697062   -1.701719
    136          1           0       13.615607   -0.755496   -2.688369
    137          1           0       15.266698   -0.382885   -2.054664
    138          1           0       14.101213   -0.241951    1.471721
    139          1           0       15.436967    0.053764    0.382906
    140          1           0       15.208843   -1.477501    1.187814
 ---------------------------------------------------------------------

 SCF Done:  E(RB-LYP) =  -3007.36143501     A.U. after   21 cycles

 Excitation energies and oscillator strengths:

 Excited State   1:      Singlet-A      1.7913 eV  692.16 nm  f=0.0501  <S**2>=0.000
     244 -> 247        0.64524
     246 -> 247       -0.27408
 This state for optimization and/or second-order correction.
 Total Energy, E(TD-HF/TD-DFT) =  -3007.29560738
 Copying the excited state density for this state as the 1-particle RhoCI density.

 Excited State   2:      Singlet-A      1.8128 eV  683.94 nm  f=0.2406  <S**2>=0.000
     244 -> 247        0.27791
     245 -> 248        0.18912
     246 -> 247        0.62689
     246 <- 247       -0.13441

 Excited State   3:      Singlet-A      2.0016 eV  619.43 nm  f=0.0447  <S**2>=0.000
     243 -> 247        0.41361
     245 -> 247        0.52656
     246 -> 248       -0.19433

 Excited State   4:      Singlet-A      2.0811 eV  595.78 nm  f=0.0276  <S**2>=0.000
     243 -> 247        0.57027
     245 -> 247       -0.36397
     246 -> 248        0.17710

 Excited State   5:      Singlet-A      2.1921 eV  565.59 nm  f=0.0000  <S**2>=0.000
     242 -> 247        0.70709

 The electronic state is 1-A.
 Alpha  occ. eigenvalues --  -46.26826 -18.81832 -18.81217 -18.77027 -18.76224
 Alpha  occ. eigenvalues --  -18.76068 -18.74571 -14.03737 -14.02916 -14.00777
 Alpha  occ. eigenvalues --  -14.00729 -10.04021 -10.03962  -9.99731  -9.98694
 Alpha  occ. eigenvalues --   -9.97813  -9.97218  -9.97151  -9.97091  -9.96316
 Alpha  occ. eigenvalues --   -9.96027  -9.95960  -9.95678  -9.95058  -9.94559
 Alpha  occ. eigenvalues --   -9.94463  -9.94268  -9.93925  -9.93798  -9.93760
 Alpha  occ. eigenvalues --   -9.93753  -9.93714  -9.93636  -9.93612  -9.93493
 Alpha  occ. eigenvalues --   -9.93120  -9.93112  -9.93103  -9.92834  -9.92459
 Alpha  occ. eigenvalues --   -9.92386  -9.92280  -9.92247  -9.92246  -9.92198
 Alpha  occ. eigenvalues --   -9.92155  -9.91968  -9.91966  -9.91624  -9.91605
 Alpha  occ. eigenvalues --   -9.91534  -9.91434  -9.91414  -9.91335  -9.91296
 Alpha  occ. eigenvalues --   -9.91188  -9.91045  -9.90974  -9.90932  -9.90794
 Alpha  occ. eigenvalues --   -9.90778  -9.90730  -9.90703  -9.90651  -9.90573
 Alpha  occ. eigenvalues --   -9.90303  -2.91637  -1.72034  -1.71520  -1.71372
 Alpha  occ. eigenvalues --   -0.97774  -0.96742  -0.91933  -0.91016  -0.88962
 Alpha  occ. eigenvalues --   -0.88516  -0.86653  -0.85933  -0.85181  -0.84375
 Alpha  occ. eigenvalues --   -0.75874  -0.74576  -0.73096  -0.72800  -0.72162
 Alpha  occ. eigenvalues --   -0.72096  -0.72043  -0.70651  -0.70587  -0.69920
 Alpha  occ. eigenvalues --   -0.69592  -0.69008  -0.68313  -0.67693  -0.67434
 Alpha  occ. eigenvalues --   -0.66655  -0.65918  -0.65380  -0.64944  -0.64395
 Alpha  occ. eigenvalues --   -0.63927  -0.62583  -0.62230  -0.61586  -0.60754
 Alpha  occ. eigenvalues --   -0.60665  -0.60503  -0.60065  -0.59720  -0.58530
 Alpha  occ. eigenvalues --   -0.57950  -0.57365  -0.56798  -0.55799  -0.54806
 Alpha  occ. eigenvalues --   -0.54167  -0.53617  -0.52859  -0.52018  -0.52006
 Alpha  occ. eigenvalues --   -0.51207  -0.51049  -0.50967  -0.50469  -0.49581
 Alpha  occ. eigenvalues --   -0.49336  -0.48992  -0.48720  -0.48586  -0.46036
 Alpha  occ. eigenvalues --   -0.45912  -0.45623  -0.45408  -0.45069  -0.44636
 Alpha  occ. eigenvalues --   -0.43908  -0.43354  -0.43168  -0.42539  -0.42348
 Alpha  occ. eigenvalues --   -0.42124  -0.41671  -0.41548  -0.41322  -0.40919
 Alpha  occ. eigenvalues --   -0.40712  -0.40376  -0.40216  -0.40076  -0.40043
 Alpha  occ. eigenvalues --   -0.39745  -0.39670  -0.39631  -0.39505  -0.39026
 Alpha  occ. eigenvalues --   -0.38883  -0.38739  -0.38514  -0.38335  -0.38208
 Alpha  occ. eigenvalues --   -0.37958  -0.37929  -0.37590  -0.37422  -0.37397
 Alpha  occ. eigenvalues --   -0.37177  -0.36855  -0.36662  -0.36565  -0.36402
 Alpha  occ. eigenvalues --   -0.36279  -0.35839  -0.35804  -0.35735  -0.35457
 Alpha  occ. eigenvalues --   -0.35276  -0.35247  -0.35018  -0.34841  -0.34653
 Alpha  occ. eigenvalues --   -0.34582  -0.34379  -0.34350  -0.33798  -0.33608
 Alpha  occ. eigenvalues --   -0.33445  -0.33389  -0.33304  -0.33091  -0.32856
 Alpha  occ. eigenvalues --   -0.32831  -0.32652  -0.32547  -0.32310  -0.32186
 Alpha  occ. eigenvalues --   -0.32055  -0.31975  -0.31693  -0.31565  -0.31394
 Alpha  occ. eigenvalues --   -0.31272  -0.31223  -0.31040  -0.31003  -0.30838
 Alpha  occ. eigenvalues --   -0.30778  -0.30434  -0.30236  -0.30219  -0.30042
 Alpha  occ. eigenvalues --   -0.29801  -0.29520  -0.29420  -0.29270  -0.29048
 Alpha  occ. eigenvalues --   -0.28990  -0.28474  -0.28289  -0.28049  -0.27821
 Alpha  occ. eigenvalues --   -0.27587  -0.27307  -0.27195  -0.26787  -0.26445
 Alpha  occ. eigenvalues --   -0.26154  -0.26109  -0.25627  -0.25471  -0.24990
 Alpha  occ. eigenvalues --   -0.24401  -0.24243  -0.23975  -0.23843  -0.23266
 Alpha  occ. eigenvalues --   -0.23251  -0.22113  -0.21855  -0.21616  -0.20628
 Alpha  occ. eigenvalues --   -0.20276  -0.19520  -0.18896  -0.17999  -0.17185
 Alpha  occ. eigenvalues --   -0.15773
 Alpha virt. eigenvalues --   -0.11464  -0.07278  -0.05757  -0.04423  -0.02787
 Alpha virt. eigenvalues --   -0.02378  -0.02119  -0.01145  -0.00882   0.00191
 Alpha virt. eigenvalues --    0.01268   0.01980   0.02448   0.02597   0.02744

 Mulliken charges:
               1
     1  Mg   0.722322
     2  C   -0.002129
     3  C   -0.075326
     4  C   -0.073294
     5  C   -0.070925
     6  N   -0.185036
     7  C   -0.102200
     8  C    0.026876
     9  C    0.037608
    10  C    0.032271
    11  C    0.127561
    12  C    0.133640
    13  C    0.108384
    14  C    0.090485
    15  O   -0.143374
    16  O   -0.322052
    17  N   -0.235856
    18  C    0.077742
    19  C   -0.149137
    20  C    0.046868
    21  C    0.128347
    22  C    0.213259
    23  C   -0.140008
    24  O   -0.174376
    25  C    0.183362
    26  N   -0.283005
    27  C    0.028533
    28  C    0.018792
    29  C    0.038209
    30  C    0.009730
    31  C    0.112190
    32  C    0.072306
    33  C    0.059739
    34  N   -0.310643
    35  C    0.128430
    36  C   -0.164770
    37  C    0.057678
    38  C    0.138602
    39  C    0.181621
    40  C   -0.066154
    41  O   -0.107864
    42  C    0.022332
    43  C    0.137845
    44  O   -0.205359
    45  O   -0.237226
    46  C    0.212258
    47  C    0.305255
    48  C   -0.092461
    49  C   -0.195946
    50  C    0.167634
    51  C    0.119889
    52  C    0.086820
    53  C    0.116509
    54  C   -0.107703
    55  C    0.127052
    56  C    0.106530
    57  C    0.097122
    58  C    0.089672
    59  C   -0.080561
    60  C    0.096191
    61  C    0.091838
    62  C    0.075479
    63  C    0.061658
    64  C   -0.053648
    65  C    0.111286
    66  C    0.107948
    67  H   -0.063499
    68  H   -0.084403
    69  H   -0.072641
    70  H   -0.015624
    71  H   -0.036101
    72  H   -0.010322
    73  H   -0.002771
    74  H   -0.017721
    75  H   -0.006966
    76  H    0.002667
    77  H   -0.017515
    78  H   -0.017449
    79  H    0.011683
    80  H    0.006603
    81  H   -0.036464
    82  H    0.018031
    83  H    0.012463
    84  H   -0.019320
    85  H   -0.021645
    86  H   -0.012161
    87  H    0.000983
    88  H    0.008515
    89  H    0.006374
    90  H   -0.016779
    91  H   -0.024160
    92  H   -0.002033
    93  H    0.005116
    94  H   -0.003231
    95  H    0.006410
    96  H    0.007556
    97  H   -0.016479
    98  H    0.019301
    99  H    0.020438
   100  H   -0.005281
   101  H    0.020510
   102  H    0.022080
   103  H   -0.010586
   104  H   -0.043377
   105  H    0.015698
   106  H   -0.011349
   107  H   -0.009591
   108  H   -0.025629
   109  H   -0.039559
   110  H   -0.035039
   111  H   -0.017963
   112  H   -0.033373
   113  H   -0.040699
   114  H   -0.044597
   115  H   -0.018712
   116  H   -0.009053
   117  H   -0.018386
   118  H   -0.019771
   119  H   -0.050884
   120  H   -0.031850
   121  H   -0.024978
   122  H   -0.033322
   123  H   -0.030031
   124  H   -0.034188
   125  H   -0.009351
   126  H   -0.021940
   127  H   -0.022648
   128  H   -0.040670
   129  H   -0.024681
   130  H   -0.023939
   131  H   -0.031092
   132  H   -0.053632
   133  H   -0.034078
   134  H   -0.038966
   135  H   -0.023846
   136  H   -0.005340
   137  H   -0.029952
   138  H   -0.023374
   139  H   -0.025705
   140  H   -0.018540
 Sum of Mulliken charges =  -0.00000

 Dipole moment (field-independent basis, Debye):
    X=              1.3231    Y=             -2.3074    Z=              0.4151  Tot=              2.6920
 Quadrupole moment (field-independent basis, Debye-Ang):
   XX=           -397.1846   YY=           -389.8425   ZZ=           -423.0158
   XY=              4.0001   XZ=            -12.7221   YZ=            -48.3232

 Normal termination of Gaussian 16 at Wed Apr 27 04:39:29 2022.
