 Gaussian 16, Revision A.03,
 Gaussian 16:  ES64L-G16RevA.03 25-Dec-2016

 -----------------------------------
 #p cam-b3lyp/Def2SVP td=(nstates=5)
 -----------------------------------

 -------------------------------------------------------
 step_1051_chromophore_8 TDDFT with cam-b3lyp functional
 -------------------------------------------------------
 Symbolic Z-matrix:
 Charge =  0 Multiplicity = 1

                         Standard orientation:
 ---------------------------------------------------------------------
 Center     Atomic      Atomic             Coordinates (Angstroms)
 Number     Number       Type             X           Y           Z
 ---------------------------------------------------------------------
      1         12           0       -4.293713   -1.056222    0.288633
      2          6           0       -3.312720    2.217839    0.999270
      3          6           0       -4.604613    0.074860   -3.140468
      4          6           0       -4.813192   -4.195365   -0.877234
      5          6           0       -3.551434   -2.075867    3.414667
      6          7           0       -3.852978    0.861431   -0.961088
      7          6           0       -3.515950    2.080056   -0.385621
      8          6           0       -3.481862    3.246073   -1.402236
      9          6           0       -4.142376    2.561382   -2.616010
     10          6           0       -4.158096    1.046359   -2.278147
     11          6           0       -5.554652    3.075981   -2.900689
     12          6           0       -2.086757    3.714010   -1.715516
     13          6           0       -1.799942    5.257110   -1.423022
     14          6           0       -0.421160    5.596468   -0.878557
     15          8           0       -0.123611    6.095812    0.163650
     16          8           0        0.539746    5.044721   -1.754020
     17          7           0       -4.673786   -1.898027   -1.751219
     18          6           0       -4.753775   -1.341496   -2.974227
     19          6           0       -4.944241   -2.341632   -3.994368
     20          6           0       -5.177745   -3.539099   -3.323692
     21          6           0       -4.874044   -3.284670   -1.897117
     22          6           0       -4.918909   -2.064798   -5.496136
     23          6           0       -5.611968   -4.762569   -4.047498
     24          8           0       -5.790210   -4.798412   -5.263006
     25          6           0       -5.823715   -5.986246   -3.345459
     26          7           0       -4.257270   -2.839480    1.154210
     27          6           0       -4.613868   -4.026377    0.509662
     28          6           0       -4.595047   -5.194746    1.466433
     29          6           0       -4.379990   -4.526845    2.856854
     30          6           0       -3.985033   -3.083073    2.450920
     31          6           0       -5.826117   -6.251462    1.473572
     32          6           0       -3.321525   -5.202948    3.787430
     33          6           0       -3.647629   -5.195765    5.320456
     34          7           0       -3.472619   -0.192015    1.872258
     35          6           0       -3.351631   -0.682754    3.170655
     36          6           0       -2.918312    0.421457    4.030095
     37          6           0       -2.969579    1.550786    3.182328
     38          6           0       -3.277649    1.131619    1.906671
     39          6           0       -2.438933    0.426011    5.425431
     40          6           0       -2.699089    2.992435    3.199464
     41          8           0       -2.355150    3.734909    4.094210
     42          6           0       -3.025371    3.464158    1.723282
     43          6           0       -4.242662    4.388794    1.829930
     44          8           0       -5.450510    4.161827    1.651850
     45          8           0       -3.785319    5.644500    2.027179
     46          6           0       -4.739256    6.738890    1.932037
     47          6           0        2.002875    5.254352   -1.332998
     48          6           0        2.795662    3.978416   -0.908296
     49          6           0        4.128830    3.745746   -1.002454
     50          6           0        5.116685    4.729600   -1.551961
     51          6           0        4.689073    2.478927   -0.518747
     52          6           0        4.996791    1.523433   -1.672719
     53          6           0        4.668173    0.106401   -1.438535
     54          6           0        5.914100   -0.802104   -1.074563
     55          6           0        5.664861   -2.274497   -1.543455
     56          6           0        6.285321   -0.637495    0.395653
     57          6           0        7.757172   -0.701372    0.724764
     58          6           0        8.044366   -2.046206    1.506281
     59          6           0        9.167363   -2.909575    0.833399
     60          6           0        9.224192   -4.466733    1.167344
     61          6           0       10.567739   -2.284300    1.151104
     62          6           0       11.676629   -2.426646    0.019631
     63          6           0       12.352428   -1.066817   -0.365726
     64          6           0       13.879939   -1.094754   -0.559947
     65          6           0       14.195480   -0.369415   -1.849699
     66          6           0       14.682545   -0.681208    0.661273
     67          1           0       -4.902235    0.383933   -4.144580
     68          1           0       -4.923282   -5.224050   -1.227055
     69          1           0       -3.352547   -2.439775    4.424996
     70          1           0       -4.080881    4.075963   -1.026588
     71          1           0       -3.493143    2.627984   -3.488776
     72          1           0       -5.519918    4.164917   -2.935187
     73          1           0       -6.381407    2.767237   -2.260566
     74          1           0       -5.959772    2.700166   -3.840026
     75          1           0       -1.843881    3.650338   -2.776315
     76          1           0       -1.438010    3.047049   -1.147343
     77          1           0       -2.647943    5.842126   -1.067433
     78          1           0       -1.831220    5.734344   -2.403265
     79          1           0       -5.907174   -2.291070   -5.896245
     80          1           0       -4.127529   -2.652592   -5.962203
     81          1           0       -4.715698   -1.022944   -5.740558
     82          1           0       -6.465397   -5.910959   -2.467250
     83          1           0       -4.784070   -6.292082   -3.228260
     84          1           0       -6.263984   -6.681093   -4.059344
     85          1           0       -3.705287   -5.701321    1.092077
     86          1           0       -5.319982   -4.362970    3.382681
     87          1           0       -5.746413   -6.975135    2.284283
     88          1           0       -5.723862   -6.754785    0.512001
     89          1           0       -6.660572   -5.570400    1.640999
     90          1           0       -2.335348   -4.764518    3.640078
     91          1           0       -3.217689   -6.251484    3.508431
     92          1           0       -2.765062   -4.787930    5.814137
     93          1           0       -3.938901   -6.184900    5.674111
     94          1           0       -4.444552   -4.463220    5.450028
     95          1           0       -2.988450    1.188681    5.977629
     96          1           0       -1.416208    0.803459    5.424063
     97          1           0       -2.484475   -0.526522    5.953462
     98          1           0       -2.137710    3.985053    1.365390
     99          1           0       -5.802359    6.496414    1.917215
    100          1           0       -4.542862    7.160808    0.946965
    101          1           0       -4.602578    7.563257    2.632283
    102          1           0        2.164551    6.004193   -0.559329
    103          1           0        2.517780    5.588658   -2.233332
    104          1           0        2.246809    3.260393   -0.298718
    105          1           0        5.442753    5.253997   -0.653615
    106          1           0        4.649952    5.379777   -2.292444
    107          1           0        5.915530    4.152991   -2.018451
    108          1           0        4.188118    1.996480    0.320802
    109          1           0        5.590988    2.834192   -0.021586
    110          1           0        6.085951    1.561150   -1.685247
    111          1           0        4.603019    1.869358   -2.628685
    112          1           0        4.039061   -0.155353   -2.289130
    113          1           0        4.075240    0.112374   -0.523257
    114          1           0        6.737252   -0.448109   -1.695286
    115          1           0        5.928538   -2.992734   -0.767703
    116          1           0        6.222621   -2.418035   -2.468566
    117          1           0        4.590999   -2.362588   -1.706205
    118          1           0        5.682313   -1.258351    1.058323
    119          1           0        6.119840    0.428588    0.554289
    120          1           0        7.960515    0.155929    1.365982
    121          1           0        8.342746   -0.570526   -0.185086
    122          1           0        7.210727   -2.748099    1.486031
    123          1           0        8.271201   -1.846634    2.554015
    124          1           0        8.948345   -2.797563   -0.227958
    125          1           0       10.192884   -4.959869    1.247890
    126          1           0        8.669549   -5.061092    0.441800
    127          1           0        8.713078   -4.634813    2.115965
    128          1           0       11.025559   -2.920546    1.908776
    129          1           0       10.480889   -1.295706    1.601112
    130          1           0       11.249127   -2.792676   -0.914112
    131          1           0       12.466995   -3.101064    0.348768
    132          1           0       12.314481   -0.431661    0.519202
    133          1           0       11.689384   -0.499961   -1.019757
    134          1           0       14.128071   -2.151198   -0.664687
    135          1           0       14.029474    0.697062   -1.701719
    136          1           0       13.615607   -0.755496   -2.688369
    137          1           0       15.266698   -0.382885   -2.054664
    138          1           0       14.101213   -0.241951    1.471721
    139          1           0       15.436967    0.053764    0.382906
    140          1           0       15.208843   -1.477501    1.187814
 ---------------------------------------------------------------------

 SCF Done:  E(RCAM-B3LYP) =  -3007.15464511     A.U. after   17 cycles

 Excitation energies and oscillator strengths:

 Excited State   1:      Singlet-A      1.7093 eV  725.34 nm  f=0.3696  <S**2>=0.000
     245 -> 248       -0.17762
     246 -> 247        0.68455
     245 <- 248       -0.10509
 This state for optimization and/or second-order correction.
 Total Energy, E(TD-HF/TD-DFT) =  -3007.09182821
 Copying the excited state density for this state as the 1-particle RhoCI density.

 Excited State   2:      Singlet-A      2.2098 eV  561.07 nm  f=0.0864  <S**2>=0.000
     245 -> 247        0.62807
     246 -> 248        0.31038

 Excited State   3:      Singlet-A      3.3688 eV  368.04 nm  f=0.1165  <S**2>=0.000
     242 -> 247       -0.22353
     243 -> 247        0.56158
     245 -> 247       -0.12338
     246 -> 248        0.31584

 Excited State   4:      Singlet-A      3.4502 eV  359.35 nm  f=0.3679  <S**2>=0.000
     240 -> 247       -0.12359
     242 -> 247       -0.19859
     243 -> 247       -0.38083
     245 -> 247       -0.22415
     246 -> 248        0.47529

 Excited State   5:      Singlet-A      3.5559 eV  348.67 nm  f=0.2144  <S**2>=0.000
     240 -> 249       -0.13404
     241 -> 247       -0.27017
     241 -> 248       -0.12537
     241 -> 250       -0.12242
     241 -> 251        0.11434
     242 -> 247        0.49273
     245 -> 247       -0.16485
     246 -> 248        0.23015

 The electronic state is 1-A.
 Alpha  occ. eigenvalues --  -46.88382 -19.24725 -19.24087 -19.20072 -19.19300
 Alpha  occ. eigenvalues --  -19.19177 -19.17844 -14.42736 -14.41694 -14.39386
 Alpha  occ. eigenvalues --  -14.39046 -10.39466 -10.39340 -10.35003 -10.33892
 Alpha  occ. eigenvalues --  -10.31996 -10.31741 -10.31606 -10.31084 -10.30803
 Alpha  occ. eigenvalues --  -10.30442 -10.30270 -10.30162 -10.29520 -10.28575
 Alpha  occ. eigenvalues --  -10.28489 -10.28429 -10.28134 -10.28077 -10.27919
 Alpha  occ. eigenvalues --  -10.27855 -10.27813 -10.27714 -10.27620 -10.27603
 Alpha  occ. eigenvalues --  -10.27387 -10.27211 -10.27100 -10.26876 -10.26440
 Alpha  occ. eigenvalues --  -10.26387 -10.26261 -10.26127 -10.26026 -10.25926
 Alpha  occ. eigenvalues --  -10.25876 -10.25848 -10.25678 -10.25513 -10.25455
 Alpha  occ. eigenvalues --  -10.25268 -10.25236 -10.25168 -10.25121 -10.24980
 Alpha  occ. eigenvalues --  -10.24869 -10.24661 -10.24528 -10.24524 -10.24522
 Alpha  occ. eigenvalues --  -10.24476 -10.24330 -10.24302 -10.24270 -10.24210
 Alpha  occ. eigenvalues --  -10.23941  -3.17103  -1.91971  -1.91567  -1.91419
 Alpha  occ. eigenvalues --   -1.16275  -1.15259  -1.10280  -1.09505  -1.06740
 Alpha  occ. eigenvalues --   -1.06423  -1.04358  -1.03539  -1.02857  -1.01951
 Alpha  occ. eigenvalues --   -0.92987  -0.91489  -0.89865  -0.89556  -0.88854
 Alpha  occ. eigenvalues --   -0.88811  -0.88792  -0.87208  -0.87160  -0.86509
 Alpha  occ. eigenvalues --   -0.86214  -0.85406  -0.84593  -0.83997  -0.83575
 Alpha  occ. eigenvalues --   -0.82911  -0.81919  -0.81218  -0.80760  -0.80245
 Alpha  occ. eigenvalues --   -0.79661  -0.78204  -0.77765  -0.77233  -0.76115
 Alpha  occ. eigenvalues --   -0.76045  -0.75872  -0.75437  -0.75002  -0.73729
 Alpha  occ. eigenvalues --   -0.72956  -0.72317  -0.71745  -0.70642  -0.69414
 Alpha  occ. eigenvalues --   -0.68741  -0.68305  -0.67344  -0.66358  -0.66115
 Alpha  occ. eigenvalues --   -0.65390  -0.65206  -0.64936  -0.64517  -0.63532
 Alpha  occ. eigenvalues --   -0.63300  -0.62688  -0.62606  -0.62246  -0.59654
 Alpha  occ. eigenvalues --   -0.59505  -0.59131  -0.58776  -0.58486  -0.58203
 Alpha  occ. eigenvalues --   -0.57337  -0.56807  -0.56423  -0.55636  -0.55345
 Alpha  occ. eigenvalues --   -0.55311  -0.54665  -0.54384  -0.54253  -0.53857
 Alpha  occ. eigenvalues --   -0.53782  -0.53310  -0.52872  -0.52690  -0.52617
 Alpha  occ. eigenvalues --   -0.52506  -0.52278  -0.52185  -0.52114  -0.51996
 Alpha  occ. eigenvalues --   -0.51558  -0.51227  -0.51119  -0.50900  -0.50674
 Alpha  occ. eigenvalues --   -0.50464  -0.50401  -0.50017  -0.49634  -0.49599
 Alpha  occ. eigenvalues --   -0.49508  -0.49285  -0.49018  -0.48838  -0.48605
 Alpha  occ. eigenvalues --   -0.48461  -0.48289  -0.47944  -0.47758  -0.47651
 Alpha  occ. eigenvalues --   -0.47578  -0.47093  -0.46988  -0.46821  -0.46460
 Alpha  occ. eigenvalues --   -0.46410  -0.46170  -0.46148  -0.45702  -0.45663
 Alpha  occ. eigenvalues --   -0.45457  -0.45262  -0.45040  -0.44736  -0.44704
 Alpha  occ. eigenvalues --   -0.44606  -0.44165  -0.44088  -0.44010  -0.43919
 Alpha  occ. eigenvalues --   -0.43784  -0.43507  -0.43394  -0.43122  -0.42926
 Alpha  occ. eigenvalues --   -0.42811  -0.42607  -0.42591  -0.42560  -0.42278
 Alpha  occ. eigenvalues --   -0.42074  -0.41842  -0.41393  -0.41360  -0.41345
 Alpha  occ. eigenvalues --   -0.41125  -0.41113  -0.40920  -0.40780  -0.40407
 Alpha  occ. eigenvalues --   -0.40124  -0.39501  -0.39241  -0.39135  -0.38963
 Alpha  occ. eigenvalues --   -0.38415  -0.38117  -0.38059  -0.37563  -0.37445
 Alpha  occ. eigenvalues --   -0.37007  -0.36867  -0.36461  -0.36291  -0.35716
 Alpha  occ. eigenvalues --   -0.35709  -0.35362  -0.34367  -0.34331  -0.34086
 Alpha  occ. eigenvalues --   -0.33852  -0.33598  -0.33282  -0.31309  -0.30641
 Alpha  occ. eigenvalues --   -0.30593  -0.29907  -0.29591  -0.29112  -0.23923
 Alpha  occ. eigenvalues --   -0.21043
 Alpha virt. eigenvalues --   -0.08548  -0.02204   0.00808   0.02261   0.02683
 Alpha virt. eigenvalues --    0.05395   0.05519   0.06106   0.06368   0.06947
 Alpha virt. eigenvalues --    0.08080   0.08561   0.08819   0.08853   0.09151

 Mulliken charges:
               1
     1  Mg   0.854510
     2  C   -0.031917
     3  C   -0.090934
     4  C   -0.094241
     5  C   -0.074041
     6  N   -0.253856
     7  C   -0.052856
     8  C   -0.030191
     9  C   -0.018697
    10  C    0.055760
    11  C    0.069693
    12  C    0.088782
    13  C    0.033585
    14  C    0.170754
    15  O   -0.183480
    16  O   -0.386581
    17  N   -0.316949
    18  C    0.089437
    19  C   -0.153670
    20  C   -0.028319
    21  C    0.155813
    22  C    0.159642
    23  C   -0.051185
    24  O   -0.215112
    25  C    0.083705
    26  N   -0.359673
    27  C    0.055757
    28  C   -0.044287
    29  C   -0.021395
    30  C    0.035350
    31  C    0.064456
    32  C    0.014569
    33  C   -0.000333
    34  N   -0.401793
    35  C    0.127745
    36  C   -0.162347
    37  C   -0.019611
    38  C    0.176063
    39  C    0.127801
    40  C    0.032867
    41  O   -0.146161
    42  C   -0.053396
    43  C    0.225853
    44  O   -0.244366
    45  O   -0.299345
    46  C    0.174314
    47  C    0.276985
    48  C   -0.112129
    49  C   -0.216398
    50  C    0.104632
    51  C    0.057489
    52  C    0.029568
    53  C    0.055491
    54  C   -0.156303
    55  C    0.071264
    56  C    0.048276
    57  C    0.043525
    58  C    0.037513
    59  C   -0.127245
    60  C    0.037008
    61  C    0.033950
    62  C    0.025599
    63  C    0.008846
    64  C   -0.116355
    65  C    0.051366
    66  C    0.045529
    67  H   -0.030305
    68  H   -0.046322
    69  H   -0.037659
    70  H    0.017641
    71  H    0.000757
    72  H    0.013348
    73  H    0.023841
    74  H    0.007143
    75  H    0.024851
    76  H    0.033165
    77  H    0.013805
    78  H    0.016986
    79  H    0.039684
    80  H    0.034395
    81  H   -0.008533
    82  H    0.046093
    83  H    0.040780
    84  H    0.020475
    85  H    0.013185
    86  H    0.021392
    87  H    0.025097
    88  H    0.028037
    89  H    0.028883
    90  H    0.013964
    91  H    0.004698
    92  H    0.020951
    93  H    0.028882
    94  H    0.017128
    95  H    0.033067
    96  H    0.034100
    97  H    0.008201
    98  H    0.059732
    99  H    0.047309
   100  H    0.014020
   101  H    0.042612
   102  H    0.053126
   103  H    0.015842
   104  H   -0.010578
   105  H    0.040390
   106  H    0.012783
   107  H    0.015037
   108  H    0.005146
   109  H   -0.010281
   110  H   -0.007223
   111  H    0.012461
   112  H   -0.001798
   113  H   -0.010823
   114  H   -0.012763
   115  H    0.001973
   116  H    0.014197
   117  H    0.006301
   118  H    0.009214
   119  H   -0.023181
   120  H   -0.001519
   121  H    0.001181
   122  H   -0.006902
   123  H   -0.001373
   124  H   -0.006314
   125  H    0.014295
   126  H    0.002451
   127  H    0.001447
   128  H   -0.010836
   129  H    0.002587
   130  H    0.002840
   131  H   -0.003808
   132  H   -0.025720
   133  H   -0.004969
   134  H   -0.006682
   135  H   -0.000487
   136  H    0.018605
   137  H   -0.004205
   138  H    0.001707
   139  H   -0.000440
   140  H    0.006587
 Sum of Mulliken charges =  -0.00000

 Dipole moment (field-independent basis, Debye):
    X=              1.1176    Y=             -2.6035    Z=              0.0785  Tot=              2.8343
 Quadrupole moment (field-independent basis, Debye-Ang):
   XX=           -394.9620   YY=           -384.9791   ZZ=           -421.9274
   XY=              5.9817   XZ=            -10.8611   YZ=            -49.5630

 Normal termination of Gaussian 16 at Wed Apr 27 03:40:26 2022.
