 Gaussian 16, Revision A.03,
 Gaussian 16:  ES64L-G16RevA.03 25-Dec-2016

 ---------------------------------
 #p PBE1PBE/Def2SVP td=(nstates=5)
 ---------------------------------

 -----------------------------------------------------
 step_1051_chromophore_8 TDDFT with PBE1PBE functional
 -----------------------------------------------------
 Symbolic Z-matrix:
 Charge =  0 Multiplicity = 1

                         Standard orientation:
 ---------------------------------------------------------------------
 Center     Atomic      Atomic             Coordinates (Angstroms)
 Number     Number       Type             X           Y           Z
 ---------------------------------------------------------------------
      1         12           0       -4.293713   -1.056222    0.288633
      2          6           0       -3.312720    2.217839    0.999270
      3          6           0       -4.604613    0.074860   -3.140468
      4          6           0       -4.813192   -4.195365   -0.877234
      5          6           0       -3.551434   -2.075867    3.414667
      6          7           0       -3.852978    0.861431   -0.961088
      7          6           0       -3.515950    2.080056   -0.385621
      8          6           0       -3.481862    3.246073   -1.402236
      9          6           0       -4.142376    2.561382   -2.616010
     10          6           0       -4.158096    1.046359   -2.278147
     11          6           0       -5.554652    3.075981   -2.900689
     12          6           0       -2.086757    3.714010   -1.715516
     13          6           0       -1.799942    5.257110   -1.423022
     14          6           0       -0.421160    5.596468   -0.878557
     15          8           0       -0.123611    6.095812    0.163650
     16          8           0        0.539746    5.044721   -1.754020
     17          7           0       -4.673786   -1.898027   -1.751219
     18          6           0       -4.753775   -1.341496   -2.974227
     19          6           0       -4.944241   -2.341632   -3.994368
     20          6           0       -5.177745   -3.539099   -3.323692
     21          6           0       -4.874044   -3.284670   -1.897117
     22          6           0       -4.918909   -2.064798   -5.496136
     23          6           0       -5.611968   -4.762569   -4.047498
     24          8           0       -5.790210   -4.798412   -5.263006
     25          6           0       -5.823715   -5.986246   -3.345459
     26          7           0       -4.257270   -2.839480    1.154210
     27          6           0       -4.613868   -4.026377    0.509662
     28          6           0       -4.595047   -5.194746    1.466433
     29          6           0       -4.379990   -4.526845    2.856854
     30          6           0       -3.985033   -3.083073    2.450920
     31          6           0       -5.826117   -6.251462    1.473572
     32          6           0       -3.321525   -5.202948    3.787430
     33          6           0       -3.647629   -5.195765    5.320456
     34          7           0       -3.472619   -0.192015    1.872258
     35          6           0       -3.351631   -0.682754    3.170655
     36          6           0       -2.918312    0.421457    4.030095
     37          6           0       -2.969579    1.550786    3.182328
     38          6           0       -3.277649    1.131619    1.906671
     39          6           0       -2.438933    0.426011    5.425431
     40          6           0       -2.699089    2.992435    3.199464
     41          8           0       -2.355150    3.734909    4.094210
     42          6           0       -3.025371    3.464158    1.723282
     43          6           0       -4.242662    4.388794    1.829930
     44          8           0       -5.450510    4.161827    1.651850
     45          8           0       -3.785319    5.644500    2.027179
     46          6           0       -4.739256    6.738890    1.932037
     47          6           0        2.002875    5.254352   -1.332998
     48          6           0        2.795662    3.978416   -0.908296
     49          6           0        4.128830    3.745746   -1.002454
     50          6           0        5.116685    4.729600   -1.551961
     51          6           0        4.689073    2.478927   -0.518747
     52          6           0        4.996791    1.523433   -1.672719
     53          6           0        4.668173    0.106401   -1.438535
     54          6           0        5.914100   -0.802104   -1.074563
     55          6           0        5.664861   -2.274497   -1.543455
     56          6           0        6.285321   -0.637495    0.395653
     57          6           0        7.757172   -0.701372    0.724764
     58          6           0        8.044366   -2.046206    1.506281
     59          6           0        9.167363   -2.909575    0.833399
     60          6           0        9.224192   -4.466733    1.167344
     61          6           0       10.567739   -2.284300    1.151104
     62          6           0       11.676629   -2.426646    0.019631
     63          6           0       12.352428   -1.066817   -0.365726
     64          6           0       13.879939   -1.094754   -0.559947
     65          6           0       14.195480   -0.369415   -1.849699
     66          6           0       14.682545   -0.681208    0.661273
     67          1           0       -4.902235    0.383933   -4.144580
     68          1           0       -4.923282   -5.224050   -1.227055
     69          1           0       -3.352547   -2.439775    4.424996
     70          1           0       -4.080881    4.075963   -1.026588
     71          1           0       -3.493143    2.627984   -3.488776
     72          1           0       -5.519918    4.164917   -2.935187
     73          1           0       -6.381407    2.767237   -2.260566
     74          1           0       -5.959772    2.700166   -3.840026
     75          1           0       -1.843881    3.650338   -2.776315
     76          1           0       -1.438010    3.047049   -1.147343
     77          1           0       -2.647943    5.842126   -1.067433
     78          1           0       -1.831220    5.734344   -2.403265
     79          1           0       -5.907174   -2.291070   -5.896245
     80          1           0       -4.127529   -2.652592   -5.962203
     81          1           0       -4.715698   -1.022944   -5.740558
     82          1           0       -6.465397   -5.910959   -2.467250
     83          1           0       -4.784070   -6.292082   -3.228260
     84          1           0       -6.263984   -6.681093   -4.059344
     85          1           0       -3.705287   -5.701321    1.092077
     86          1           0       -5.319982   -4.362970    3.382681
     87          1           0       -5.746413   -6.975135    2.284283
     88          1           0       -5.723862   -6.754785    0.512001
     89          1           0       -6.660572   -5.570400    1.640999
     90          1           0       -2.335348   -4.764518    3.640078
     91          1           0       -3.217689   -6.251484    3.508431
     92          1           0       -2.765062   -4.787930    5.814137
     93          1           0       -3.938901   -6.184900    5.674111
     94          1           0       -4.444552   -4.463220    5.450028
     95          1           0       -2.988450    1.188681    5.977629
     96          1           0       -1.416208    0.803459    5.424063
     97          1           0       -2.484475   -0.526522    5.953462
     98          1           0       -2.137710    3.985053    1.365390
     99          1           0       -5.802359    6.496414    1.917215
    100          1           0       -4.542862    7.160808    0.946965
    101          1           0       -4.602578    7.563257    2.632283
    102          1           0        2.164551    6.004193   -0.559329
    103          1           0        2.517780    5.588658   -2.233332
    104          1           0        2.246809    3.260393   -0.298718
    105          1           0        5.442753    5.253997   -0.653615
    106          1           0        4.649952    5.379777   -2.292444
    107          1           0        5.915530    4.152991   -2.018451
    108          1           0        4.188118    1.996480    0.320802
    109          1           0        5.590988    2.834192   -0.021586
    110          1           0        6.085951    1.561150   -1.685247
    111          1           0        4.603019    1.869358   -2.628685
    112          1           0        4.039061   -0.155353   -2.289130
    113          1           0        4.075240    0.112374   -0.523257
    114          1           0        6.737252   -0.448109   -1.695286
    115          1           0        5.928538   -2.992734   -0.767703
    116          1           0        6.222621   -2.418035   -2.468566
    117          1           0        4.590999   -2.362588   -1.706205
    118          1           0        5.682313   -1.258351    1.058323
    119          1           0        6.119840    0.428588    0.554289
    120          1           0        7.960515    0.155929    1.365982
    121          1           0        8.342746   -0.570526   -0.185086
    122          1           0        7.210727   -2.748099    1.486031
    123          1           0        8.271201   -1.846634    2.554015
    124          1           0        8.948345   -2.797563   -0.227958
    125          1           0       10.192884   -4.959869    1.247890
    126          1           0        8.669549   -5.061092    0.441800
    127          1           0        8.713078   -4.634813    2.115965
    128          1           0       11.025559   -2.920546    1.908776
    129          1           0       10.480889   -1.295706    1.601112
    130          1           0       11.249127   -2.792676   -0.914112
    131          1           0       12.466995   -3.101064    0.348768
    132          1           0       12.314481   -0.431661    0.519202
    133          1           0       11.689384   -0.499961   -1.019757
    134          1           0       14.128071   -2.151198   -0.664687
    135          1           0       14.029474    0.697062   -1.701719
    136          1           0       13.615607   -0.755496   -2.688369
    137          1           0       15.266698   -0.382885   -2.054664
    138          1           0       14.101213   -0.241951    1.471721
    139          1           0       15.436967    0.053764    0.382906
    140          1           0       15.208843   -1.477501    1.187814
 ---------------------------------------------------------------------

 SCF Done:  E(RPBE1PBE) =  -3005.34403574     A.U. after   15 cycles

 Excitation energies and oscillator strengths:

 Excited State   1:      Singlet-A      1.8612 eV  666.15 nm  f=0.3553  <S**2>=0.000
     245 -> 248        0.17475
     246 -> 247        0.69071
     246 <- 247       -0.10581
 This state for optimization and/or second-order correction.
 Total Energy, E(TD-HF/TD-DFT) =  -3005.27563751
 Copying the excited state density for this state as the 1-particle RhoCI density.

 Excited State   2:      Singlet-A      2.2309 eV  555.75 nm  f=0.0889  <S**2>=0.000
     245 -> 247        0.64152
     246 -> 248       -0.28130

 Excited State   3:      Singlet-A      2.9768 eV  416.50 nm  f=0.0004  <S**2>=0.000
     243 -> 247        0.67544

 Excited State   4:      Singlet-A      3.0447 eV  407.22 nm  f=0.0004  <S**2>=0.000
     240 -> 247       -0.32176
     241 -> 247        0.23662
     242 -> 247        0.55215

 Excited State   5:      Singlet-A      3.1049 eV  399.32 nm  f=0.0122  <S**2>=0.000
     240 -> 247       -0.22787
     241 -> 247        0.49917
     242 -> 247       -0.36797
     246 -> 248       -0.17585

 The electronic state is 1-A.
 Alpha  occ. eigenvalues --  -46.91787 -19.25394 -19.24802 -19.20306 -19.19570
 Alpha  occ. eigenvalues --  -19.19459 -19.18001 -14.42211 -14.41275 -14.38955
 Alpha  occ. eigenvalues --  -14.38765 -10.36507 -10.36359 -10.32217 -10.30910
 Alpha  occ. eigenvalues --  -10.29463 -10.29425 -10.29418 -10.28600 -10.28343
 Alpha  occ. eigenvalues --  -10.28094 -10.28018 -10.27849 -10.27063 -10.26398
 Alpha  occ. eigenvalues --  -10.26288 -10.26198 -10.25828 -10.25784 -10.25505
 Alpha  occ. eigenvalues --  -10.25489 -10.25468 -10.25424 -10.25364 -10.25090
 Alpha  occ. eigenvalues --  -10.25086 -10.25032 -10.24634 -10.24534 -10.24034
 Alpha  occ. eigenvalues --  -10.24006 -10.23926 -10.23630 -10.23589 -10.23395
 Alpha  occ. eigenvalues --  -10.23394 -10.23339 -10.23310 -10.22886 -10.22877
 Alpha  occ. eigenvalues --  -10.22822 -10.22718 -10.22704 -10.22702 -10.22538
 Alpha  occ. eigenvalues --  -10.22406 -10.22342 -10.22080 -10.22073 -10.22057
 Alpha  occ. eigenvalues --  -10.22044 -10.21875 -10.21705 -10.21643 -10.21567
 Alpha  occ. eigenvalues --  -10.21510  -3.14083  -1.86891  -1.86467  -1.86321
 Alpha  occ. eigenvalues --   -1.11077  -1.10040  -1.05090  -1.04148  -1.01623
 Alpha  occ. eigenvalues --   -1.01245  -0.98999  -0.98214  -0.97446  -0.96563
 Alpha  occ. eigenvalues --   -0.87399  -0.85609  -0.84118  -0.83667  -0.83135
 Alpha  occ. eigenvalues --   -0.83078  -0.82884  -0.81512  -0.81295  -0.80801
 Alpha  occ. eigenvalues --   -0.80504  -0.79627  -0.78763  -0.78193  -0.77890
 Alpha  occ. eigenvalues --   -0.77113  -0.76078  -0.75522  -0.75074  -0.74450
 Alpha  occ. eigenvalues --   -0.73855  -0.72488  -0.72108  -0.71484  -0.70394
 Alpha  occ. eigenvalues --   -0.70272  -0.69957  -0.69771  -0.69119  -0.67881
 Alpha  occ. eigenvalues --   -0.67404  -0.66652  -0.66158  -0.64947  -0.63775
 Alpha  occ. eigenvalues --   -0.62969  -0.62711  -0.61828  -0.60565  -0.60520
 Alpha  occ. eigenvalues --   -0.59804  -0.59533  -0.59433  -0.59077  -0.57645
 Alpha  occ. eigenvalues --   -0.57445  -0.57222  -0.56855  -0.56775  -0.54213
 Alpha  occ. eigenvalues --   -0.54043  -0.53747  -0.53131  -0.53072  -0.52672
 Alpha  occ. eigenvalues --   -0.51893  -0.51278  -0.50956  -0.50149  -0.49876
 Alpha  occ. eigenvalues --   -0.49745  -0.49118  -0.48897  -0.48697  -0.48485
 Alpha  occ. eigenvalues --   -0.48183  -0.47891  -0.47342  -0.47241  -0.47212
 Alpha  occ. eigenvalues --   -0.47014  -0.46832  -0.46695  -0.46588  -0.46504
 Alpha  occ. eigenvalues --   -0.46117  -0.45733  -0.45665  -0.45535  -0.45202
 Alpha  occ. eigenvalues --   -0.45095  -0.44996  -0.44526  -0.44237  -0.44190
 Alpha  occ. eigenvalues --   -0.44052  -0.43921  -0.43638  -0.43428  -0.43163
 Alpha  occ. eigenvalues --   -0.43047  -0.42916  -0.42581  -0.42426  -0.42324
 Alpha  occ. eigenvalues --   -0.42242  -0.41764  -0.41648  -0.41442  -0.41152
 Alpha  occ. eigenvalues --   -0.40992  -0.40881  -0.40707  -0.40490  -0.40319
 Alpha  occ. eigenvalues --   -0.40169  -0.40012  -0.39819  -0.39472  -0.39392
 Alpha  occ. eigenvalues --   -0.39266  -0.38851  -0.38806  -0.38748  -0.38698
 Alpha  occ. eigenvalues --   -0.38612  -0.38216  -0.38204  -0.37863  -0.37746
 Alpha  occ. eigenvalues --   -0.37526  -0.37419  -0.37378  -0.37249  -0.37158
 Alpha  occ. eigenvalues --   -0.36808  -0.36710  -0.36233  -0.36173  -0.36125
 Alpha  occ. eigenvalues --   -0.35967  -0.35876  -0.35754  -0.35601  -0.35329
 Alpha  occ. eigenvalues --   -0.35117  -0.34267  -0.34130  -0.34055  -0.33855
 Alpha  occ. eigenvalues --   -0.33232  -0.32898  -0.32834  -0.32449  -0.32339
 Alpha  occ. eigenvalues --   -0.32089  -0.31669  -0.31516  -0.31154  -0.30656
 Alpha  occ. eigenvalues --   -0.30585  -0.30218  -0.29507  -0.29267  -0.29109
 Alpha  occ. eigenvalues --   -0.28726  -0.28662  -0.28568  -0.26953  -0.25682
 Alpha  occ. eigenvalues --   -0.25583  -0.25303  -0.24996  -0.24401  -0.20865
 Alpha  occ. eigenvalues --   -0.18685
 Alpha virt. eigenvalues --   -0.11036  -0.05662  -0.03422  -0.01907  -0.00405
 Alpha virt. eigenvalues --    0.00879   0.00914   0.01859   0.01996   0.03112
 Alpha virt. eigenvalues --    0.04144   0.04926   0.05282   0.05571   0.05661

 Mulliken charges:
               1
     1  Mg   1.002363
     2  C   -0.035368
     3  C   -0.085633
     4  C   -0.092344
     5  C   -0.072565
     6  N   -0.353324
     7  C    0.028020
     8  C   -0.108206
     9  C   -0.100197
    10  C    0.097898
    11  C    0.013293
    12  C    0.051458
    13  C   -0.044473
    14  C    0.233880
    15  O   -0.218865
    16  O   -0.411830
    17  N   -0.427391
    18  C    0.119196
    19  C   -0.176408
    20  C   -0.080972
    21  C    0.183263
    22  C    0.101140
    23  C    0.002727
    24  O   -0.252246
    25  C    0.000313
    26  N   -0.473448
    27  C    0.097993
    28  C   -0.120442
    29  C   -0.104886
    30  C    0.084090
    31  C    0.002174
    32  C   -0.043082
    33  C   -0.073385
    34  N   -0.534291
    35  C    0.151604
    36  C   -0.184453
    37  C   -0.061658
    38  C    0.221788
    39  C    0.074954
    40  C    0.126550
    41  O   -0.192308
    42  C   -0.166168
    43  C    0.314180
    44  O   -0.279237
    45  O   -0.331713
    46  C    0.119216
    47  C    0.232506
    48  C   -0.113624
    49  C   -0.265825
    50  C    0.038398
    51  C   -0.008889
    52  C   -0.028671
    53  C   -0.004042
    54  C   -0.237732
    55  C    0.011388
    56  C   -0.018851
    57  C   -0.014162
    58  C   -0.019115
    59  C   -0.208437
    60  C   -0.025128
    61  C   -0.021710
    62  C   -0.036073
    63  C   -0.042521
    64  C   -0.210258
    65  C   -0.014814
    66  C   -0.011970
    67  H    0.002814
    68  H   -0.010669
    69  H   -0.001135
    70  H    0.057672
    71  H    0.037312
    72  H    0.041838
    73  H    0.050848
    74  H    0.035095
    75  H    0.055894
    76  H    0.064761
    77  H    0.045036
    78  H    0.050360
    79  H    0.066689
    80  H    0.061862
    81  H    0.018218
    82  H    0.072136
    83  H    0.068923
    84  H    0.048977
    85  H    0.051892
    86  H    0.058930
    87  H    0.052858
    88  H    0.055469
    89  H    0.056837
    90  H    0.046098
    91  H    0.038483
    92  H    0.048148
    93  H    0.056356
    94  H    0.043965
    95  H    0.060824
    96  H    0.062154
    97  H    0.035474
    98  H    0.099794
    99  H    0.068349
   100  H    0.036937
   101  H    0.064488
   102  H    0.079252
   103  H    0.043855
   104  H    0.019705
   105  H    0.068861
   106  H    0.039908
   107  H    0.043233
   108  H    0.033701
   109  H    0.023200
   110  H    0.026260
   111  H    0.044426
   112  H    0.030098
   113  H    0.025174
   114  H    0.024947
   115  H    0.030982
   116  H    0.041152
   117  H    0.034182
   118  H    0.040468
   119  H    0.018391
   120  H    0.030881
   121  H    0.031812
   122  H    0.025915
   123  H    0.030953
   124  H    0.032679
   125  H    0.040747
   126  H    0.030265
   127  H    0.029277
   128  H    0.023708
   129  H    0.033050
   130  H    0.035283
   131  H    0.027744
   132  H    0.008828
   133  H    0.026105
   134  H    0.032334
   135  H    0.028300
   136  H    0.046673
   137  H    0.024510
   138  H    0.027434
   139  H    0.026871
   140  H    0.033476
 Sum of Mulliken charges =  -0.00000

 Dipole moment (field-independent basis, Debye):
    X=              1.1646    Y=             -2.5617    Z=              0.2676  Tot=              2.8267
 Quadrupole moment (field-independent basis, Debye-Ang):
   XX=           -392.5087   YY=           -381.2656   ZZ=           -418.0566
   XY=              5.6196   XZ=            -11.2203   YZ=            -50.8952

 Normal termination of Gaussian 16 at Wed Apr 27 04:00:01 2022.
