 Gaussian 16, Revision A.03,
 Gaussian 16:  ES64L-G16RevA.03 25-Dec-2016

 --------------------------------
 #p wB97XD/Def2SVP td=(nstates=5)
 --------------------------------

 ----------------------------------------------------
 step_1051_chromophore_8 TDDFT with wB97XD functional
 ----------------------------------------------------
 Symbolic Z-matrix:
 Charge =  0 Multiplicity = 1

                         Standard orientation:
 ---------------------------------------------------------------------
 Center     Atomic      Atomic             Coordinates (Angstroms)
 Number     Number       Type             X           Y           Z
 ---------------------------------------------------------------------
      1         12           0       -4.293713   -1.056222    0.288633
      2          6           0       -3.312720    2.217839    0.999270
      3          6           0       -4.604613    0.074860   -3.140468
      4          6           0       -4.813192   -4.195365   -0.877234
      5          6           0       -3.551434   -2.075867    3.414667
      6          7           0       -3.852978    0.861431   -0.961088
      7          6           0       -3.515950    2.080056   -0.385621
      8          6           0       -3.481862    3.246073   -1.402236
      9          6           0       -4.142376    2.561382   -2.616010
     10          6           0       -4.158096    1.046359   -2.278147
     11          6           0       -5.554652    3.075981   -2.900689
     12          6           0       -2.086757    3.714010   -1.715516
     13          6           0       -1.799942    5.257110   -1.423022
     14          6           0       -0.421160    5.596468   -0.878557
     15          8           0       -0.123611    6.095812    0.163650
     16          8           0        0.539746    5.044721   -1.754020
     17          7           0       -4.673786   -1.898027   -1.751219
     18          6           0       -4.753775   -1.341496   -2.974227
     19          6           0       -4.944241   -2.341632   -3.994368
     20          6           0       -5.177745   -3.539099   -3.323692
     21          6           0       -4.874044   -3.284670   -1.897117
     22          6           0       -4.918909   -2.064798   -5.496136
     23          6           0       -5.611968   -4.762569   -4.047498
     24          8           0       -5.790210   -4.798412   -5.263006
     25          6           0       -5.823715   -5.986246   -3.345459
     26          7           0       -4.257270   -2.839480    1.154210
     27          6           0       -4.613868   -4.026377    0.509662
     28          6           0       -4.595047   -5.194746    1.466433
     29          6           0       -4.379990   -4.526845    2.856854
     30          6           0       -3.985033   -3.083073    2.450920
     31          6           0       -5.826117   -6.251462    1.473572
     32          6           0       -3.321525   -5.202948    3.787430
     33          6           0       -3.647629   -5.195765    5.320456
     34          7           0       -3.472619   -0.192015    1.872258
     35          6           0       -3.351631   -0.682754    3.170655
     36          6           0       -2.918312    0.421457    4.030095
     37          6           0       -2.969579    1.550786    3.182328
     38          6           0       -3.277649    1.131619    1.906671
     39          6           0       -2.438933    0.426011    5.425431
     40          6           0       -2.699089    2.992435    3.199464
     41          8           0       -2.355150    3.734909    4.094210
     42          6           0       -3.025371    3.464158    1.723282
     43          6           0       -4.242662    4.388794    1.829930
     44          8           0       -5.450510    4.161827    1.651850
     45          8           0       -3.785319    5.644500    2.027179
     46          6           0       -4.739256    6.738890    1.932037
     47          6           0        2.002875    5.254352   -1.332998
     48          6           0        2.795662    3.978416   -0.908296
     49          6           0        4.128830    3.745746   -1.002454
     50          6           0        5.116685    4.729600   -1.551961
     51          6           0        4.689073    2.478927   -0.518747
     52          6           0        4.996791    1.523433   -1.672719
     53          6           0        4.668173    0.106401   -1.438535
     54          6           0        5.914100   -0.802104   -1.074563
     55          6           0        5.664861   -2.274497   -1.543455
     56          6           0        6.285321   -0.637495    0.395653
     57          6           0        7.757172   -0.701372    0.724764
     58          6           0        8.044366   -2.046206    1.506281
     59          6           0        9.167363   -2.909575    0.833399
     60          6           0        9.224192   -4.466733    1.167344
     61          6           0       10.567739   -2.284300    1.151104
     62          6           0       11.676629   -2.426646    0.019631
     63          6           0       12.352428   -1.066817   -0.365726
     64          6           0       13.879939   -1.094754   -0.559947
     65          6           0       14.195480   -0.369415   -1.849699
     66          6           0       14.682545   -0.681208    0.661273
     67          1           0       -4.902235    0.383933   -4.144580
     68          1           0       -4.923282   -5.224050   -1.227055
     69          1           0       -3.352547   -2.439775    4.424996
     70          1           0       -4.080881    4.075963   -1.026588
     71          1           0       -3.493143    2.627984   -3.488776
     72          1           0       -5.519918    4.164917   -2.935187
     73          1           0       -6.381407    2.767237   -2.260566
     74          1           0       -5.959772    2.700166   -3.840026
     75          1           0       -1.843881    3.650338   -2.776315
     76          1           0       -1.438010    3.047049   -1.147343
     77          1           0       -2.647943    5.842126   -1.067433
     78          1           0       -1.831220    5.734344   -2.403265
     79          1           0       -5.907174   -2.291070   -5.896245
     80          1           0       -4.127529   -2.652592   -5.962203
     81          1           0       -4.715698   -1.022944   -5.740558
     82          1           0       -6.465397   -5.910959   -2.467250
     83          1           0       -4.784070   -6.292082   -3.228260
     84          1           0       -6.263984   -6.681093   -4.059344
     85          1           0       -3.705287   -5.701321    1.092077
     86          1           0       -5.319982   -4.362970    3.382681
     87          1           0       -5.746413   -6.975135    2.284283
     88          1           0       -5.723862   -6.754785    0.512001
     89          1           0       -6.660572   -5.570400    1.640999
     90          1           0       -2.335348   -4.764518    3.640078
     91          1           0       -3.217689   -6.251484    3.508431
     92          1           0       -2.765062   -4.787930    5.814137
     93          1           0       -3.938901   -6.184900    5.674111
     94          1           0       -4.444552   -4.463220    5.450028
     95          1           0       -2.988450    1.188681    5.977629
     96          1           0       -1.416208    0.803459    5.424063
     97          1           0       -2.484475   -0.526522    5.953462
     98          1           0       -2.137710    3.985053    1.365390
     99          1           0       -5.802359    6.496414    1.917215
    100          1           0       -4.542862    7.160808    0.946965
    101          1           0       -4.602578    7.563257    2.632283
    102          1           0        2.164551    6.004193   -0.559329
    103          1           0        2.517780    5.588658   -2.233332
    104          1           0        2.246809    3.260393   -0.298718
    105          1           0        5.442753    5.253997   -0.653615
    106          1           0        4.649952    5.379777   -2.292444
    107          1           0        5.915530    4.152991   -2.018451
    108          1           0        4.188118    1.996480    0.320802
    109          1           0        5.590988    2.834192   -0.021586
    110          1           0        6.085951    1.561150   -1.685247
    111          1           0        4.603019    1.869358   -2.628685
    112          1           0        4.039061   -0.155353   -2.289130
    113          1           0        4.075240    0.112374   -0.523257
    114          1           0        6.737252   -0.448109   -1.695286
    115          1           0        5.928538   -2.992734   -0.767703
    116          1           0        6.222621   -2.418035   -2.468566
    117          1           0        4.590999   -2.362588   -1.706205
    118          1           0        5.682313   -1.258351    1.058323
    119          1           0        6.119840    0.428588    0.554289
    120          1           0        7.960515    0.155929    1.365982
    121          1           0        8.342746   -0.570526   -0.185086
    122          1           0        7.210727   -2.748099    1.486031
    123          1           0        8.271201   -1.846634    2.554015
    124          1           0        8.948345   -2.797563   -0.227958
    125          1           0       10.192884   -4.959869    1.247890
    126          1           0        8.669549   -5.061092    0.441800
    127          1           0        8.713078   -4.634813    2.115965
    128          1           0       11.025559   -2.920546    1.908776
    129          1           0       10.480889   -1.295706    1.601112
    130          1           0       11.249127   -2.792676   -0.914112
    131          1           0       12.466995   -3.101064    0.348768
    132          1           0       12.314481   -0.431661    0.519202
    133          1           0       11.689384   -0.499961   -1.019757
    134          1           0       14.128071   -2.151198   -0.664687
    135          1           0       14.029474    0.697062   -1.701719
    136          1           0       13.615607   -0.755496   -2.688369
    137          1           0       15.266698   -0.382885   -2.054664
    138          1           0       14.101213   -0.241951    1.471721
    139          1           0       15.436967    0.053764    0.382906
    140          1           0       15.208843   -1.477501    1.187814
 ---------------------------------------------------------------------

 SCF Done:  E(RwB97XD) =  -3007.85227103     A.U. after   19 cycles

 Excitation energies and oscillator strengths:

 Excited State   1:      Singlet-A      1.6523 eV  750.38 nm  f=0.3686  <S**2>=0.000
     245 -> 248       -0.18301
     246 -> 247        0.68254
     245 <- 248       -0.11492
 This state for optimization and/or second-order correction.
 Total Energy, E(TD-HF/TD-DFT) =  -3007.79155101
 Copying the excited state density for this state as the 1-particle RhoCI density.

 Excited State   2:      Singlet-A      2.1539 eV  575.62 nm  f=0.0844  <S**2>=0.000
     245 -> 247        0.62649
     246 -> 248        0.31235

 Excited State   3:      Singlet-A      3.3935 eV  365.35 nm  f=0.1214  <S**2>=0.000
     242 -> 247       -0.25072
     243 -> 247        0.53909
     245 -> 247       -0.12100
     246 -> 248        0.31231

 Excited State   4:      Singlet-A      3.4728 eV  357.01 nm  f=0.3635  <S**2>=0.000
     242 -> 247       -0.20178
     243 -> 247       -0.39661
     245 -> 247       -0.21948
     246 -> 248        0.46988

 Excited State   5:      Singlet-A      3.5810 eV  346.23 nm  f=0.1320  <S**2>=0.000
     241 -> 247       -0.32699
     241 -> 248       -0.18135
     241 -> 249       -0.16446
     241 -> 250       -0.21927
     242 -> 247        0.41001
     245 -> 247       -0.12871
     246 -> 248        0.18414

 The electronic state is 1-A.
 Alpha  occ. eigenvalues --  -46.94721 -19.29946 -19.29335 -19.24976 -19.24252
 Alpha  occ. eigenvalues --  -19.24199 -19.22879 -14.47346 -14.46293 -14.44009
 Alpha  occ. eigenvalues --  -14.43636 -10.43321 -10.43137 -10.39005 -10.37827
 Alpha  occ. eigenvalues --  -10.35919 -10.35800 -10.35606 -10.34834 -10.34823
 Alpha  occ. eigenvalues --  -10.34486 -10.34347 -10.34178 -10.33569 -10.32625
 Alpha  occ. eigenvalues --  -10.32475 -10.32458 -10.32182 -10.32165 -10.31973
 Alpha  occ. eigenvalues --  -10.31923 -10.31850 -10.31765 -10.31679 -10.31498
 Alpha  occ. eigenvalues --  -10.31367 -10.31300 -10.31156 -10.30818 -10.30545
 Alpha  occ. eigenvalues --  -10.30350 -10.30306 -10.29961 -10.29909 -10.29844
 Alpha  occ. eigenvalues --  -10.29752 -10.29689 -10.29651 -10.29457 -10.29323
 Alpha  occ. eigenvalues --  -10.29200 -10.29161 -10.29079 -10.29055 -10.28903
 Alpha  occ. eigenvalues --  -10.28772 -10.28546 -10.28485 -10.28437 -10.28421
 Alpha  occ. eigenvalues --  -10.28399 -10.28199 -10.28126 -10.28061 -10.28012
 Alpha  occ. eigenvalues --  -10.27848  -3.20879  -1.94438  -1.94010  -1.93862
 Alpha  occ. eigenvalues --   -1.18456  -1.17400  -1.12500  -1.11714  -1.08956
 Alpha  occ. eigenvalues --   -1.08607  -1.06355  -1.05554  -1.04888  -1.03990
 Alpha  occ. eigenvalues --   -0.94959  -0.93259  -0.91721  -0.91324  -0.90802
 Alpha  occ. eigenvalues --   -0.90661  -0.90534  -0.89102  -0.88957  -0.88482
 Alpha  occ. eigenvalues --   -0.88157  -0.87286  -0.86427  -0.85885  -0.85492
 Alpha  occ. eigenvalues --   -0.84831  -0.83737  -0.83133  -0.82695  -0.82095
 Alpha  occ. eigenvalues --   -0.81506  -0.80103  -0.79697  -0.79176  -0.77990
 Alpha  occ. eigenvalues --   -0.77935  -0.77644  -0.77398  -0.76800  -0.75541
 Alpha  occ. eigenvalues --   -0.74925  -0.74243  -0.73723  -0.72563  -0.71332
 Alpha  occ. eigenvalues --   -0.70596  -0.70293  -0.69360  -0.68199  -0.68030
 Alpha  occ. eigenvalues --   -0.67339  -0.67064  -0.66940  -0.66520  -0.65318
 Alpha  occ. eigenvalues --   -0.65092  -0.64674  -0.64419  -0.64236  -0.61616
 Alpha  occ. eigenvalues --   -0.61511  -0.61135  -0.60656  -0.60460  -0.60138
 Alpha  occ. eigenvalues --   -0.59324  -0.58716  -0.58405  -0.57561  -0.57291
 Alpha  occ. eigenvalues --   -0.57208  -0.56557  -0.56287  -0.56144  -0.55809
 Alpha  occ. eigenvalues --   -0.55746  -0.55240  -0.54728  -0.54604  -0.54564
 Alpha  occ. eigenvalues --   -0.54393  -0.54177  -0.54050  -0.53965  -0.53882
 Alpha  occ. eigenvalues --   -0.53501  -0.53087  -0.53059  -0.52824  -0.52542
 Alpha  occ. eigenvalues --   -0.52367  -0.52339  -0.51965  -0.51516  -0.51510
 Alpha  occ. eigenvalues --   -0.51452  -0.51218  -0.50918  -0.50719  -0.50464
 Alpha  occ. eigenvalues --   -0.50386  -0.50198  -0.49838  -0.49665  -0.49549
 Alpha  occ. eigenvalues --   -0.49461  -0.48969  -0.48889  -0.48763  -0.48373
 Alpha  occ. eigenvalues --   -0.48247  -0.48116  -0.47982  -0.47639  -0.47568
 Alpha  occ. eigenvalues --   -0.47376  -0.47193  -0.47015  -0.46634  -0.46547
 Alpha  occ. eigenvalues --   -0.46501  -0.46080  -0.45992  -0.45889  -0.45827
 Alpha  occ. eigenvalues --   -0.45687  -0.45376  -0.45343  -0.45026  -0.44882
 Alpha  occ. eigenvalues --   -0.44673  -0.44531  -0.44515  -0.44415  -0.44210
 Alpha  occ. eigenvalues --   -0.43918  -0.43736  -0.43338  -0.43271  -0.43172
 Alpha  occ. eigenvalues --   -0.43115  -0.42958  -0.42890  -0.42655  -0.42285
 Alpha  occ. eigenvalues --   -0.42036  -0.41341  -0.41088  -0.41051  -0.40856
 Alpha  occ. eigenvalues --   -0.40236  -0.39932  -0.39909  -0.39406  -0.39362
 Alpha  occ. eigenvalues --   -0.39158  -0.38719  -0.38392  -0.38145  -0.37726
 Alpha  occ. eigenvalues --   -0.37587  -0.37221  -0.36335  -0.36189  -0.36036
 Alpha  occ. eigenvalues --   -0.35773  -0.35506  -0.35416  -0.33535  -0.32612
 Alpha  occ. eigenvalues --   -0.32552  -0.32066  -0.31765  -0.31128  -0.25847
 Alpha  occ. eigenvalues --   -0.22845
 Alpha virt. eigenvalues --   -0.06893  -0.00279   0.02896   0.04574   0.05583
 Alpha virt. eigenvalues --    0.07658   0.07744   0.08529   0.08725   0.09610
 Alpha virt. eigenvalues --    0.10728   0.11647   0.12014   0.12292   0.12531

 Mulliken charges:
               1
     1  Mg   0.991725
     2  C   -0.040530
     3  C   -0.101837
     4  C   -0.101440
     5  C   -0.082716
     6  N   -0.320984
     7  C   -0.006142
     8  C   -0.078895
     9  C   -0.069601
    10  C    0.082670
    11  C    0.021446
    12  C    0.056117
    13  C   -0.028194
    14  C    0.225455
    15  O   -0.216373
    16  O   -0.412571
    17  N   -0.394255
    18  C    0.110882
    19  C   -0.168790
    20  C   -0.075565
    21  C    0.178574
    22  C    0.112917
    23  C    0.000957
    24  O   -0.246310
    25  C    0.013707
    26  N   -0.439199
    27  C    0.082420
    28  C   -0.097169
    29  C   -0.075333
    30  C    0.066727
    31  C    0.017227
    32  C   -0.031183
    33  C   -0.057048
    34  N   -0.494400
    35  C    0.139497
    36  C   -0.178382
    37  C   -0.061088
    38  C    0.205704
    39  C    0.084388
    40  C    0.109181
    41  O   -0.182842
    42  C   -0.123586
    43  C    0.289849
    44  O   -0.273400
    45  O   -0.330419
    46  C    0.135606
    47  C    0.249631
    48  C   -0.130311
    49  C   -0.245061
    50  C    0.051384
    51  C    0.011258
    52  C   -0.014352
    53  C    0.016029
    54  C   -0.210154
    55  C    0.023810
    56  C    0.005457
    57  C   -0.001458
    58  C   -0.002531
    59  C   -0.178215
    60  C   -0.012769
    61  C   -0.005727
    62  C   -0.020422
    63  C   -0.026643
    64  C   -0.180403
    65  C   -0.000409
    66  C   -0.002441
    67  H   -0.006326
    68  H   -0.025181
    69  H   -0.011073
    70  H    0.040801
    71  H    0.027610
    72  H    0.036076
    73  H    0.045932
    74  H    0.029084
    75  H    0.049171
    76  H    0.056751
    77  H    0.040345
    78  H    0.043694
    79  H    0.062780
    80  H    0.058308
    81  H    0.014007
    82  H    0.066955
    83  H    0.063384
    84  H    0.048139
    85  H    0.040832
    86  H    0.046428
    87  H    0.047816
    88  H    0.049102
    89  H    0.049701
    90  H    0.038217
    91  H    0.029977
    92  H    0.042842
    93  H    0.052080
    94  H    0.036108
    95  H    0.056027
    96  H    0.057007
    97  H    0.030844
    98  H    0.090943
    99  H    0.064614
   100  H    0.031593
   101  H    0.060871
   102  H    0.075177
   103  H    0.036743
   104  H    0.016754
   105  H    0.063250
   106  H    0.034283
   107  H    0.037428
   108  H    0.026343
   109  H    0.013420
   110  H    0.013512
   111  H    0.037167
   112  H    0.024198
   113  H    0.011077
   114  H    0.010511
   115  H    0.022821
   116  H    0.036382
   117  H    0.027850
   118  H    0.032671
   119  H    0.000665
   120  H    0.024882
   121  H    0.021375
   122  H    0.013713
   123  H    0.023652
   124  H    0.016523
   125  H    0.035128
   126  H    0.024817
   127  H    0.022884
   128  H    0.013477
   129  H    0.023948
   130  H    0.026737
   131  H    0.019033
   132  H   -0.006695
   133  H    0.019382
   134  H    0.019921
   135  H    0.020814
   136  H    0.041150
   137  H    0.018638
   138  H    0.021621
   139  H    0.021127
   140  H    0.028688
 Sum of Mulliken charges =  -0.00000

 Dipole moment (field-independent basis, Debye):
    X=              1.0593    Y=             -2.6768    Z=              0.0191  Tot=              2.8789
 Quadrupole moment (field-independent basis, Debye-Ang):
   XX=           -391.0602   YY=           -380.1693   ZZ=           -417.6565
   XY=              6.4452   XZ=            -10.3263   YZ=            -50.1488

 Normal termination of Gaussian 16 at Wed Apr 27 04:25:57 2022.
