 Gaussian 16, Revision A.03,
 Gaussian 16:  ES64L-G16RevA.03 25-Dec-2016

 --------------------
 #p ZINDO=(nstates=5)
 --------------------

 -----------------------------
 step_1051_chromophore_8 ZINDO
 -----------------------------
 Symbolic Z-matrix:
 Charge =  0 Multiplicity = 1

                         Standard orientation:
 ---------------------------------------------------------------------
 Center     Atomic      Atomic             Coordinates (Angstroms)
 Number     Number       Type             X           Y           Z
 ---------------------------------------------------------------------
      1         12           0       -4.293713   -1.056222    0.288633
      2          6           0       -3.312720    2.217839    0.999270
      3          6           0       -4.604613    0.074860   -3.140468
      4          6           0       -4.813192   -4.195365   -0.877234
      5          6           0       -3.551434   -2.075867    3.414667
      6          7           0       -3.852978    0.861431   -0.961088
      7          6           0       -3.515950    2.080056   -0.385621
      8          6           0       -3.481862    3.246073   -1.402236
      9          6           0       -4.142376    2.561382   -2.616010
     10          6           0       -4.158096    1.046359   -2.278147
     11          6           0       -5.554652    3.075981   -2.900689
     12          6           0       -2.086757    3.714010   -1.715516
     13          6           0       -1.799942    5.257110   -1.423022
     14          6           0       -0.421160    5.596468   -0.878557
     15          8           0       -0.123611    6.095812    0.163650
     16          8           0        0.539746    5.044721   -1.754020
     17          7           0       -4.673786   -1.898027   -1.751219
     18          6           0       -4.753775   -1.341496   -2.974227
     19          6           0       -4.944241   -2.341632   -3.994368
     20          6           0       -5.177745   -3.539099   -3.323692
     21          6           0       -4.874044   -3.284670   -1.897117
     22          6           0       -4.918909   -2.064798   -5.496136
     23          6           0       -5.611968   -4.762569   -4.047498
     24          8           0       -5.790210   -4.798412   -5.263006
     25          6           0       -5.823715   -5.986246   -3.345459
     26          7           0       -4.257270   -2.839480    1.154210
     27          6           0       -4.613868   -4.026377    0.509662
     28          6           0       -4.595047   -5.194746    1.466433
     29          6           0       -4.379990   -4.526845    2.856854
     30          6           0       -3.985033   -3.083073    2.450920
     31          6           0       -5.826117   -6.251462    1.473572
     32          6           0       -3.321525   -5.202948    3.787430
     33          6           0       -3.647629   -5.195765    5.320456
     34          7           0       -3.472619   -0.192015    1.872258
     35          6           0       -3.351631   -0.682754    3.170655
     36          6           0       -2.918312    0.421457    4.030095
     37          6           0       -2.969579    1.550786    3.182328
     38          6           0       -3.277649    1.131619    1.906671
     39          6           0       -2.438933    0.426011    5.425431
     40          6           0       -2.699089    2.992435    3.199464
     41          8           0       -2.355150    3.734909    4.094210
     42          6           0       -3.025371    3.464158    1.723282
     43          6           0       -4.242662    4.388794    1.829930
     44          8           0       -5.450510    4.161827    1.651850
     45          8           0       -3.785319    5.644500    2.027179
     46          6           0       -4.739256    6.738890    1.932037
     47          6           0        2.002875    5.254352   -1.332998
     48          6           0        2.795662    3.978416   -0.908296
     49          6           0        4.128830    3.745746   -1.002454
     50          6           0        5.116685    4.729600   -1.551961
     51          6           0        4.689073    2.478927   -0.518747
     52          6           0        4.996791    1.523433   -1.672719
     53          6           0        4.668173    0.106401   -1.438535
     54          6           0        5.914100   -0.802104   -1.074563
     55          6           0        5.664861   -2.274497   -1.543455
     56          6           0        6.285321   -0.637495    0.395653
     57          6           0        7.757172   -0.701372    0.724764
     58          6           0        8.044366   -2.046206    1.506281
     59          6           0        9.167363   -2.909575    0.833399
     60          6           0        9.224192   -4.466733    1.167344
     61          6           0       10.567739   -2.284300    1.151104
     62          6           0       11.676629   -2.426646    0.019631
     63          6           0       12.352428   -1.066817   -0.365726
     64          6           0       13.879939   -1.094754   -0.559947
     65          6           0       14.195480   -0.369415   -1.849699
     66          6           0       14.682545   -0.681208    0.661273
     67          1           0       -4.902235    0.383933   -4.144580
     68          1           0       -4.923282   -5.224050   -1.227055
     69          1           0       -3.352547   -2.439775    4.424996
     70          1           0       -4.080881    4.075963   -1.026588
     71          1           0       -3.493143    2.627984   -3.488776
     72          1           0       -5.519918    4.164917   -2.935187
     73          1           0       -6.381407    2.767237   -2.260566
     74          1           0       -5.959772    2.700166   -3.840026
     75          1           0       -1.843881    3.650338   -2.776315
     76          1           0       -1.438010    3.047049   -1.147343
     77          1           0       -2.647943    5.842126   -1.067433
     78          1           0       -1.831220    5.734344   -2.403265
     79          1           0       -5.907174   -2.291070   -5.896245
     80          1           0       -4.127529   -2.652592   -5.962203
     81          1           0       -4.715698   -1.022944   -5.740558
     82          1           0       -6.465397   -5.910959   -2.467250
     83          1           0       -4.784070   -6.292082   -3.228260
     84          1           0       -6.263984   -6.681093   -4.059344
     85          1           0       -3.705287   -5.701321    1.092077
     86          1           0       -5.319982   -4.362970    3.382681
     87          1           0       -5.746413   -6.975135    2.284283
     88          1           0       -5.723862   -6.754785    0.512001
     89          1           0       -6.660572   -5.570400    1.640999
     90          1           0       -2.335348   -4.764518    3.640078
     91          1           0       -3.217689   -6.251484    3.508431
     92          1           0       -2.765062   -4.787930    5.814137
     93          1           0       -3.938901   -6.184900    5.674111
     94          1           0       -4.444552   -4.463220    5.450028
     95          1           0       -2.988450    1.188681    5.977629
     96          1           0       -1.416208    0.803459    5.424063
     97          1           0       -2.484475   -0.526522    5.953462
     98          1           0       -2.137710    3.985053    1.365390
     99          1           0       -5.802359    6.496414    1.917215
    100          1           0       -4.542862    7.160808    0.946965
    101          1           0       -4.602578    7.563257    2.632283
    102          1           0        2.164551    6.004193   -0.559329
    103          1           0        2.517780    5.588658   -2.233332
    104          1           0        2.246809    3.260393   -0.298718
    105          1           0        5.442753    5.253997   -0.653615
    106          1           0        4.649952    5.379777   -2.292444
    107          1           0        5.915530    4.152991   -2.018451
    108          1           0        4.188118    1.996480    0.320802
    109          1           0        5.590988    2.834192   -0.021586
    110          1           0        6.085951    1.561150   -1.685247
    111          1           0        4.603019    1.869358   -2.628685
    112          1           0        4.039061   -0.155353   -2.289130
    113          1           0        4.075240    0.112374   -0.523257
    114          1           0        6.737252   -0.448109   -1.695286
    115          1           0        5.928538   -2.992734   -0.767703
    116          1           0        6.222621   -2.418035   -2.468566
    117          1           0        4.590999   -2.362588   -1.706205
    118          1           0        5.682313   -1.258351    1.058323
    119          1           0        6.119840    0.428588    0.554289
    120          1           0        7.960515    0.155929    1.365982
    121          1           0        8.342746   -0.570526   -0.185086
    122          1           0        7.210727   -2.748099    1.486031
    123          1           0        8.271201   -1.846634    2.554015
    124          1           0        8.948345   -2.797563   -0.227958
    125          1           0       10.192884   -4.959869    1.247890
    126          1           0        8.669549   -5.061092    0.441800
    127          1           0        8.713078   -4.634813    2.115965
    128          1           0       11.025559   -2.920546    1.908776
    129          1           0       10.480889   -1.295706    1.601112
    130          1           0       11.249127   -2.792676   -0.914112
    131          1           0       12.466995   -3.101064    0.348768
    132          1           0       12.314481   -0.431661    0.519202
    133          1           0       11.689384   -0.499961   -1.019757
    134          1           0       14.128071   -2.151198   -0.664687
    135          1           0       14.029474    0.697062   -1.701719
    136          1           0       13.615607   -0.755496   -2.688369
    137          1           0       15.266698   -0.382885   -2.054664
    138          1           0       14.101213   -0.241951    1.471721
    139          1           0       15.436967    0.053764    0.382906
    140          1           0       15.208843   -1.477501    1.187814
 ---------------------------------------------------------------------

 SCF Done:  E(RZINDO/S) =  -474.316299184     A.U. after   20 cycles

 Excitation energies and oscillator strengths:

 Excited State   1:      Singlet-A      1.2636 eV  981.17 nm  f=0.5741  <S**2>=0.000
     175 ->178        -0.18186
     176 ->177         0.66298
 This state for optimization and/or second-order correction.
 Total Energy, E(CIS/TDA) =  -474.269861633
 Copying the excited state density for this state as the 1-particle RhoCI density.

 Excited State   2:      Singlet-A      1.8928 eV  655.03 nm  f=0.0149  <S**2>=0.000
     175 ->177         0.52040
     176 ->178         0.45066

 Excited State   3:      Singlet-A      2.9082 eV  426.33 nm  f=0.0341  <S**2>=0.000
     168 ->177         0.19790
     168 ->178        -0.18284
     168 ->179        -0.18975
     168 ->180        -0.23975
     168 ->184         0.12398
     168 ->185        -0.16327
     169 ->177         0.20126
     169 ->178        -0.17782
     169 ->179        -0.18525
     169 ->180        -0.23799
     169 ->184         0.12278
     169 ->185        -0.15144

 Excited State   4:      Singlet-A      2.9442 eV  421.12 nm  f=0.9581  <S**2>=0.000
     175 ->177        -0.37686
     176 ->178         0.47886
     176 ->179         0.23953

 Excited State   5:      Singlet-A      3.0617 eV  404.95 nm  f=0.0029  <S**2>=0.000
     170 ->177         0.29472
     170 ->179         0.41381
     170 ->180        -0.22658
     170 ->184         0.13470
     170 ->185         0.19534
     170 ->187        -0.16621
     176 ->179         0.13757

 The electronic state is 1-A.
 Alpha  occ. eigenvalues --   -1.84707  -1.80705  -1.79619  -1.72336  -1.71744
 Alpha  occ. eigenvalues --   -1.68876  -1.67242  -1.62328  -1.61086  -1.58647
 Alpha  occ. eigenvalues --   -1.56605  -1.51063  -1.48735  -1.47481  -1.45695
 Alpha  occ. eigenvalues --   -1.44811  -1.42096  -1.40435  -1.38946  -1.37801
 Alpha  occ. eigenvalues --   -1.35581  -1.33584  -1.32174  -1.31114  -1.28444
 Alpha  occ. eigenvalues --   -1.27856  -1.26592  -1.23466  -1.20723  -1.17650
 Alpha  occ. eigenvalues --   -1.16932  -1.16447  -1.15456  -1.14436  -1.13649
 Alpha  occ. eigenvalues --   -1.12106  -1.10170  -1.10061  -1.05577  -1.03650
 Alpha  occ. eigenvalues --   -1.02018  -1.00858  -0.98756  -0.97685  -0.97053
 Alpha  occ. eigenvalues --   -0.96432  -0.94719  -0.94491  -0.92611  -0.92260
 Alpha  occ. eigenvalues --   -0.90671  -0.90175  -0.89898  -0.88886  -0.87783
 Alpha  occ. eigenvalues --   -0.86396  -0.84712  -0.83906  -0.81356  -0.79503
 Alpha  occ. eigenvalues --   -0.78790  -0.78474  -0.76387  -0.76104  -0.75967
 Alpha  occ. eigenvalues --   -0.75395  -0.74976  -0.74192  -0.73895  -0.73181
 Alpha  occ. eigenvalues --   -0.72737  -0.72229  -0.71908  -0.71678  -0.71365
 Alpha  occ. eigenvalues --   -0.71000  -0.69983  -0.69922  -0.68500  -0.67873
 Alpha  occ. eigenvalues --   -0.67567  -0.66512  -0.66354  -0.66041  -0.65213
 Alpha  occ. eigenvalues --   -0.65067  -0.64747  -0.64134  -0.63781  -0.63138
 Alpha  occ. eigenvalues --   -0.62941  -0.62718  -0.62464  -0.61970  -0.61727
 Alpha  occ. eigenvalues --   -0.61575  -0.61482  -0.60972  -0.60391  -0.59980
 Alpha  occ. eigenvalues --   -0.59632  -0.59452  -0.59086  -0.58729  -0.58122
 Alpha  occ. eigenvalues --   -0.57495  -0.57134  -0.56906  -0.56710  -0.56014
 Alpha  occ. eigenvalues --   -0.55566  -0.55293  -0.54727  -0.54416  -0.53797
 Alpha  occ. eigenvalues --   -0.53728  -0.53339  -0.52946  -0.52880  -0.52733
 Alpha  occ. eigenvalues --   -0.52520  -0.52385  -0.52041  -0.51758  -0.51749
 Alpha  occ. eigenvalues --   -0.51677  -0.51308  -0.51215  -0.50892  -0.50648
 Alpha  occ. eigenvalues --   -0.50541  -0.49833  -0.49544  -0.49108  -0.48943
 Alpha  occ. eigenvalues --   -0.48743  -0.48575  -0.48065  -0.48014  -0.47991
 Alpha  occ. eigenvalues --   -0.47687  -0.47561  -0.46986  -0.46821  -0.46690
 Alpha  occ. eigenvalues --   -0.46246  -0.46057  -0.45865  -0.45567  -0.45263
 Alpha  occ. eigenvalues --   -0.44725  -0.44642  -0.44481  -0.44293  -0.44182
 Alpha  occ. eigenvalues --   -0.43376  -0.43260  -0.42404  -0.42155  -0.41379
 Alpha  occ. eigenvalues --   -0.41247  -0.41018  -0.40798  -0.38908  -0.38787
 Alpha  occ. eigenvalues --   -0.38304  -0.37196  -0.35096  -0.34837  -0.34394
 Alpha  occ. eigenvalues --   -0.33412  -0.32541  -0.32078  -0.31237  -0.26536
 Alpha  occ. eigenvalues --   -0.21618
 Alpha virt. eigenvalues --   -0.08225  -0.02529  -0.00224   0.01272   0.01805
 Alpha virt. eigenvalues --    0.02280   0.02970   0.03184   0.05014   0.05380
 Alpha virt. eigenvalues --    0.06268   0.07389   0.07550   0.08251   0.08310

 Mulliken charges:
               1
     1  Mg   0.437081
     2  C   -0.044539
     3  C   -0.089901
     4  C   -0.069921
     5  C   -0.065855
     6  N   -0.308099
     7  C    0.112053
     8  C    0.008261
     9  C    0.012348
    10  C    0.151160
    11  C   -0.047425
    12  C   -0.014881
    13  C   -0.011871
    14  C    0.473625
    15  O   -0.487289
    16  O   -0.292921
    17  N   -0.336336
    18  C    0.141550
    19  C    0.046506
    20  C   -0.044619
    21  C    0.114508
    22  C   -0.033300
    23  C    0.338957
    24  O   -0.543816
    25  C   -0.028601
    26  N   -0.247407
    27  C    0.126605
    28  C   -0.005401
    29  C    0.004500
    30  C    0.092283
    31  C   -0.058766
    32  C   -0.034543
    33  C   -0.061765
    34  N   -0.317996
    35  C    0.068658
    36  C    0.033145
    37  C   -0.066139
    38  C    0.126001
    39  C   -0.033400
    40  C    0.326831
    41  O   -0.512419
    42  C    0.061799
    43  C    0.488110
    44  O   -0.538570
    45  O   -0.249146
    46  C    0.075248
    47  C    0.095008
    48  C   -0.117227
    49  C    0.010178
    50  C   -0.042583
    51  C   -0.015480
    52  C   -0.025931
    53  C   -0.038231
    54  C   -0.013288
    55  C   -0.063435
    56  C   -0.031346
    57  C   -0.033181
    58  C   -0.035360
    59  C   -0.015095
    60  C   -0.060303
    61  C   -0.043782
    62  C   -0.040364
    63  C   -0.049254
    64  C    0.004770
    65  C   -0.050069
    66  C   -0.052678
    67  H    0.018181
    68  H    0.024674
    69  H    0.029263
    70  H    0.038477
    71  H    0.028689
    72  H    0.016142
    73  H    0.032760
    74  H    0.012484
    75  H    0.028230
    76  H    0.033833
    77  H    0.045901
    78  H    0.025849
    79  H    0.044465
    80  H    0.040861
    81  H    0.016315
    82  H    0.039904
    83  H    0.050837
    84  H    0.032549
    85  H    0.032691
    86  H    0.038748
    87  H    0.027888
    88  H    0.027590
    89  H    0.033781
    90  H    0.024968
    91  H    0.011572
    92  H    0.022697
    93  H    0.028846
    94  H    0.020552
    95  H    0.036322
    96  H    0.035944
    97  H    0.021552
    98  H    0.066110
    99  H    0.051560
   100  H    0.021227
   101  H    0.041578
   102  H    0.062773
   103  H    0.031001
   104  H    0.027162
   105  H    0.040052
   106  H    0.027164
   107  H    0.023364
   108  H    0.026133
   109  H    0.010916
   110  H    0.012562
   111  H    0.024554
   112  H    0.022223
   113  H    0.016059
   114  H    0.016848
   115  H    0.021365
   116  H    0.022689
   117  H    0.018461
   118  H    0.031123
   119  H    0.009550
   120  H    0.016580
   121  H    0.027469
   122  H    0.016821
   123  H    0.021997
   124  H    0.018952
   125  H    0.025988
   126  H    0.011986
   127  H    0.014323
   128  H    0.011053
   129  H    0.027235
   130  H    0.018691
   131  H    0.023217
   132  H    0.004169
   133  H    0.026788
   134  H    0.013396
   135  H    0.016061
   136  H    0.023548
   137  H    0.009682
   138  H    0.017488
   139  H    0.014341
   140  H    0.016525
 Sum of Mulliken charges =  -0.00000

 Dipole moment (field-independent basis, Debye):
    X=              1.5311    Y=             -3.9281    Z=             -1.5843  Tot=              4.5038
 N-N= 4.411047903461D+03 E-N= 0.000000000000D+00  KE=-9.496687757247D+03
 Leave Link  601 at Wed Apr 27 04:39:36 2022, MaxMem=  6710886400 cpu:               0.7 elap:               0.0
 (Enter /sw/apps/gaussian-16.0/g16/l9999.exe)
 1\1\GINC-BP1-COMPUTE159\SP\RZINDO CIS\STO-3G\C55H74Mg1N4O6\OF15641\27-
 Apr-2022\0\\#p ZINDO=(nstates=5)\\step_1051_chromophore_8 ZINDO\\0,1\M
 g,0,44.419,2.286,47.239\C,0,42.314,5.034,46.787\C,0,41.386,0.303,47.18
 1\C,0,46.131,-0.638,47.188\C,0,47.173,4.189,46.843\N,0,42.14,2.597,46.
 861\C,0,41.552,3.852,46.766\C,0,40.006,3.8,46.728\C,0,39.779,2.324,47.
 113\C,0,41.17,1.646,46.99\C,0,39.206,2.152,48.521\C,0,39.439,4.117,45.
 371\C,0,38.421,5.346,45.324\C,0,38.493,6.236,44.093\O,0,38.758,7.397,4

 Normal termination of Gaussian 16 at Wed Apr 27 04:39:36 2022.
