 Gaussian 16, Revision A.03,
 Gaussian 16:  ES64L-G16RevA.03 25-Dec-2016

 ------------------------------
 #p blyp/Def2SVP td=(nstates=5)
 ------------------------------

 -------------------------------------------------
 step_351_chromophore_8 TDDFT with blyp functional
 -------------------------------------------------
 Symbolic Z-matrix:
 Charge =  0 Multiplicity = 1

                         Standard orientation:
 ---------------------------------------------------------------------
 Center     Atomic      Atomic             Coordinates (Angstroms)
 Number     Number       Type             X           Y           Z
 ---------------------------------------------------------------------
      1         12           0       -4.996695   -0.896417    0.126221
      2          6           0       -3.853790    2.296710    1.032045
      3          6           0       -4.198373    0.090961   -3.185847
      4          6           0       -5.484038   -3.984022   -0.791159
      5          6           0       -4.765236   -1.853234    3.421956
      6          7           0       -4.296218    1.086325   -0.982585
      7          6           0       -3.790592    2.155533   -0.359078
      8          6           0       -3.254065    3.209327   -1.403313
      9          6           0       -3.486250    2.499446   -2.753844
     10          6           0       -3.954951    1.108387   -2.256162
     11          6           0       -4.629515    3.095996   -3.581346
     12          6           0       -1.777775    3.468823   -1.102849
     13          6           0       -1.321513    4.972286   -1.073662
     14          6           0        0.088410    5.385996   -1.534174
     15          8           0        0.405757    6.125443   -2.494862
     16          8           0        1.145017    4.889477   -0.787328
     17          7           0       -4.927810   -1.828662   -1.701258
     18          6           0       -4.579188   -1.252008   -2.930842
     19          6           0       -4.603182   -2.239708   -3.913190
     20          6           0       -5.118659   -3.452105   -3.312490
     21          6           0       -5.257891   -3.159593   -1.849880
     22          6           0       -4.291721   -2.077533   -5.412644
     23          6           0       -5.513297   -4.782377   -4.009421
     24          8           0       -5.218471   -4.903878   -5.184520
     25          6           0       -6.228905   -5.848451   -3.293660
     26          7           0       -4.992040   -2.759308    1.120872
     27          6           0       -5.392017   -3.843845    0.561804
     28          6           0       -5.491886   -5.064162    1.557189
     29          6           0       -5.333699   -4.261828    2.855406
     30          6           0       -5.038046   -2.865515    2.454697
     31          6           0       -6.793503   -5.868082    1.527648
     32          6           0       -4.117509   -4.780623    3.721681
     33          6           0       -4.617753   -5.514058    4.925247
     34          7           0       -4.545331    0.034024    1.944713
     35          6           0       -4.548668   -0.486646    3.147484
     36          6           0       -4.272011    0.535610    4.143601
     37          6           0       -4.082157    1.651703    3.298910
     38          6           0       -4.169656    1.312938    1.979998
     39          6           0       -4.231299    0.437710    5.665271
     40          6           0       -3.746673    2.994842    3.337139
     41          8           0       -3.515501    3.666953    4.379893
     42          6           0       -3.515781    3.506331    1.874329
     43          6           0       -4.435027    4.654697    1.839048
     44          8           0       -5.618737    4.673576    2.259969
     45          8           0       -3.801516    5.757364    1.293189
     46          6           0       -4.623629    6.979103    1.143251
     47          6           0        2.537128    4.911950   -1.199038
     48          6           0        3.263829    3.563043   -1.058367
     49          6           0        4.533243    3.167277   -0.636950
     50          6           0        5.583300    4.177908   -0.334898
     51          6           0        4.920558    1.652831   -0.520298
     52          6           0        6.140011    1.166686   -1.507171
     53          6           0        5.765132   -0.109782   -2.321467
     54          6           0        7.128910   -0.824684   -2.682978
     55          6           0        6.990403   -1.434565   -4.102987
     56          6           0        7.399431   -1.941237   -1.639248
     57          6           0        8.915233   -1.950850   -1.156418
     58          6           0        9.096444   -1.737813    0.341022
     59          6           0       10.132664   -2.814037    0.981381
     60          6           0        9.187775   -3.999587    1.314345
     61          6           0       10.921395   -2.142726    2.132399
     62          6           0       11.823326   -0.990779    1.673275
     63          6           0       13.212629   -1.007289    2.257934
     64          6           0       14.300923   -1.395452    1.129573
     65          6           0       14.467485   -0.224857    0.037690
     66          6           0       15.652948   -1.531161    1.894762
     67          1           0       -4.016437    0.368468   -4.227040
     68          1           0       -5.642950   -5.016498   -1.111309
     69          1           0       -4.904121   -2.121398    4.471715
     70          1           0       -3.809214    4.141451   -1.294209
     71          1           0       -2.655275    2.422620   -3.454149
     72          1           0       -5.491036    2.499561   -3.880523
     73          1           0       -4.127667    3.439751   -4.485291
     74          1           0       -5.105797    3.989613   -3.176373
     75          1           0       -1.216546    2.939520   -1.873770
     76          1           0       -1.607360    3.104230   -0.089579
     77          1           0       -1.422119    5.435575   -0.092406
     78          1           0       -1.979011    5.495216   -1.768622
     79          1           0       -3.858311   -2.951965   -5.898585
     80          1           0       -3.629041   -1.230782   -5.594367
     81          1           0       -5.240226   -1.864795   -5.905059
     82          1           0       -5.512054   -6.542950   -2.854963
     83          1           0       -6.734143   -6.419046   -4.073504
     84          1           0       -6.967317   -5.439338   -2.604263
     85          1           0       -4.708650   -5.777866    1.300657
     86          1           0       -6.242218   -4.245588    3.458390
     87          1           0       -6.652624   -6.882971    1.155389
     88          1           0       -7.400960   -5.438867    0.731162
     89          1           0       -7.433896   -5.743489    2.401549
     90          1           0       -3.471163   -4.053645    4.212619
     91          1           0       -3.528351   -5.391231    3.036828
     92          1           0       -5.686340   -5.726248    4.885028
     93          1           0       -4.520182   -4.926423    5.838174
     94          1           0       -4.142268   -6.493126    4.979599
     95          1           0       -5.030050   -0.169402    6.089920
     96          1           0       -4.406776    1.437699    6.062125
     97          1           0       -3.253606    0.012234    5.893164
     98          1           0       -2.518192    3.936627    1.792061
     99          1           0       -5.693060    6.766566    1.180266
    100          1           0       -4.409787    7.448027    0.182727
    101          1           0       -4.456594    7.670713    1.968869
    102          1           0        3.027974    5.701407   -0.630165
    103          1           0        2.591631    5.103634   -2.270715
    104          1           0        2.651022    2.663262   -1.107853
    105          1           0        6.531166    3.845951   -0.756258
    106          1           0        5.684090    4.354660    0.736236
    107          1           0        5.275645    5.107728   -0.813119
    108          1           0        4.007202    1.115449   -0.773269
    109          1           0        5.258317    1.404494    0.485575
    110          1           0        6.942893    0.934447   -0.808330
    111          1           0        6.383890    1.976592   -2.195450
    112          1           0        5.282470    0.187255   -3.252847
    113          1           0        5.108075   -0.794727   -1.786121
    114          1           0        7.977044   -0.156521   -2.829837
    115          1           0        5.942360   -1.663558   -4.297121
    116          1           0        7.527673   -2.382011   -4.125607
    117          1           0        7.269091   -0.665550   -4.823425
    118          1           0        7.283695   -2.924443   -2.096337
    119          1           0        6.716729   -1.794194   -0.802156
    120          1           0        9.542128   -1.263448   -1.724737
    121          1           0        9.365866   -2.896743   -1.455205
    122          1           0        8.123774   -1.701133    0.830856
    123          1           0        9.391762   -0.731127    0.637314
    124          1           0       10.847071   -3.040963    0.190099
    125          1           0        9.312691   -4.348013    2.339840
    126          1           0        9.485482   -4.746315    0.578344
    127          1           0        8.136638   -3.718600    1.247867
    128          1           0       11.378291   -2.933571    2.727321
    129          1           0       10.112253   -1.739897    2.741911
    130          1           0       11.295268   -0.118313    2.058708
    131          1           0       11.809056   -0.944275    0.584332
    132          1           0       13.235982   -1.742314    3.062479
    133          1           0       13.465083   -0.121318    2.840715
    134          1           0       14.161608   -2.331236    0.588435
    135          1           0       14.410846   -0.572845   -0.993269
    136          1           0       15.289878    0.452671    0.262485
    137          1           0       13.608901    0.444066    0.105237
    138          1           0       15.505120   -1.307371    2.951140
    139          1           0       16.395255   -0.757522    1.697410
    140          1           0       15.999661   -2.553887    1.747456
 ---------------------------------------------------------------------

 SCF Done:  E(RB-LYP) =  -3007.31831277     A.U. after   22 cycles

 Excitation energies and oscillator strengths:

 Excited State   1:      Singlet-A      1.7002 eV  729.22 nm  f=0.0026  <S**2>=0.000
     244 -> 247        0.56971
     245 -> 247        0.41276
 This state for optimization and/or second-order correction.
 Total Energy, E(TD-HF/TD-DFT) =  -3007.25583017
 Copying the excited state density for this state as the 1-particle RhoCI density.

 Excited State   2:      Singlet-A      1.8666 eV  664.22 nm  f=0.1837  <S**2>=0.000
     243 -> 247       -0.42123
     245 -> 248        0.14298
     246 -> 247        0.54534
     246 <- 247       -0.10838

 Excited State   3:      Singlet-A      1.9102 eV  649.05 nm  f=0.1171  <S**2>=0.000
     243 -> 247        0.56422
     245 -> 248        0.11670
     246 -> 247        0.40352

 Excited State   4:      Singlet-A      2.0127 eV  616.01 nm  f=0.0029  <S**2>=0.000
     242 -> 247        0.70388

 Excited State   5:      Singlet-A      2.0987 eV  590.77 nm  f=0.0880  <S**2>=0.000
     244 -> 247       -0.38164
     245 -> 247        0.50998
     246 -> 248       -0.25682

 The electronic state is 1-A.
 Alpha  occ. eigenvalues --  -46.28162 -18.82933 -18.80803 -18.76658 -18.75916
 Alpha  occ. eigenvalues --  -18.75442 -18.74624 -14.03685 -14.03482 -14.01126
 Alpha  occ. eigenvalues --  -14.00995 -10.04348 -10.04307  -9.99854  -9.98438
 Alpha  occ. eigenvalues --   -9.98271  -9.97805  -9.97076  -9.96646  -9.96500
 Alpha  occ. eigenvalues --   -9.96444  -9.96010  -9.95666  -9.95449  -9.94773
 Alpha  occ. eigenvalues --   -9.94732  -9.94644  -9.94485  -9.94383  -9.94318
 Alpha  occ. eigenvalues --   -9.94240  -9.93868  -9.93775  -9.93631  -9.93545
 Alpha  occ. eigenvalues --   -9.93218  -9.93142  -9.93094  -9.92947  -9.92911
 Alpha  occ. eigenvalues --   -9.92858  -9.92809  -9.92713  -9.92508  -9.92482
 Alpha  occ. eigenvalues --   -9.92426  -9.92261  -9.92168  -9.91899  -9.91862
 Alpha  occ. eigenvalues --   -9.91851  -9.91813  -9.91661  -9.91616  -9.91580
 Alpha  occ. eigenvalues --   -9.91406  -9.91271  -9.91057  -9.90901  -9.90761
 Alpha  occ. eigenvalues --   -9.90751  -9.90704  -9.90662  -9.90512  -9.90350
 Alpha  occ. eigenvalues --   -9.90171  -2.92772  -1.73188  -1.72697  -1.72446
 Alpha  occ. eigenvalues --   -0.97064  -0.96243  -0.91902  -0.89633  -0.89324
 Alpha  occ. eigenvalues --   -0.88461  -0.88018  -0.87639  -0.87414  -0.84550
 Alpha  occ. eigenvalues --   -0.76925  -0.74013  -0.73619  -0.72814  -0.72801
 Alpha  occ. eigenvalues --   -0.72182  -0.71683  -0.71357  -0.70195  -0.70068
 Alpha  occ. eigenvalues --   -0.69538  -0.68773  -0.68538  -0.68243  -0.67282
 Alpha  occ. eigenvalues --   -0.67036  -0.66214  -0.65851  -0.65422  -0.64829
 Alpha  occ. eigenvalues --   -0.63920  -0.63059  -0.62884  -0.61684  -0.61290
 Alpha  occ. eigenvalues --   -0.60340  -0.59991  -0.59728  -0.59285  -0.58539
 Alpha  occ. eigenvalues --   -0.58474  -0.57811  -0.57510  -0.56077  -0.54913
 Alpha  occ. eigenvalues --   -0.54615  -0.53082  -0.52987  -0.52894  -0.52339
 Alpha  occ. eigenvalues --   -0.52304  -0.51591  -0.51359  -0.50934  -0.49639
 Alpha  occ. eigenvalues --   -0.49513  -0.49193  -0.49133  -0.48894  -0.47065
 Alpha  occ. eigenvalues --   -0.46629  -0.46354  -0.46171  -0.45144  -0.44720
 Alpha  occ. eigenvalues --   -0.44514  -0.43754  -0.43587  -0.43064  -0.42618
 Alpha  occ. eigenvalues --   -0.42416  -0.41933  -0.41631  -0.41590  -0.41190
 Alpha  occ. eigenvalues --   -0.41062  -0.40747  -0.40681  -0.40310  -0.40180
 Alpha  occ. eigenvalues --   -0.40069  -0.39909  -0.39574  -0.39558  -0.39224
 Alpha  occ. eigenvalues --   -0.38858  -0.38776  -0.38545  -0.38409  -0.38303
 Alpha  occ. eigenvalues --   -0.38115  -0.37684  -0.37446  -0.37387  -0.37310
 Alpha  occ. eigenvalues --   -0.37022  -0.36975  -0.36868  -0.36621  -0.36408
 Alpha  occ. eigenvalues --   -0.36129  -0.36054  -0.36016  -0.35901  -0.35714
 Alpha  occ. eigenvalues --   -0.35637  -0.35379  -0.35078  -0.34971  -0.34883
 Alpha  occ. eigenvalues --   -0.34503  -0.34318  -0.34245  -0.34187  -0.33982
 Alpha  occ. eigenvalues --   -0.33939  -0.33863  -0.33583  -0.33464  -0.33195
 Alpha  occ. eigenvalues --   -0.33065  -0.32888  -0.32784  -0.32682  -0.32654
 Alpha  occ. eigenvalues --   -0.32119  -0.31925  -0.31778  -0.31651  -0.31496
 Alpha  occ. eigenvalues --   -0.31481  -0.31261  -0.31010  -0.30841  -0.30578
 Alpha  occ. eigenvalues --   -0.30413  -0.30139  -0.30124  -0.30069  -0.29627
 Alpha  occ. eigenvalues --   -0.29532  -0.29450  -0.29416  -0.29297  -0.29147
 Alpha  occ. eigenvalues --   -0.28899  -0.28663  -0.28525  -0.28233  -0.27808
 Alpha  occ. eigenvalues --   -0.27644  -0.27454  -0.27250  -0.26935  -0.26484
 Alpha  occ. eigenvalues --   -0.26235  -0.26086  -0.25900  -0.25243  -0.25072
 Alpha  occ. eigenvalues --   -0.24687  -0.24635  -0.24396  -0.23889  -0.23793
 Alpha  occ. eigenvalues --   -0.22860  -0.22630  -0.21749  -0.20709  -0.20576
 Alpha  occ. eigenvalues --   -0.20109  -0.19183  -0.18656  -0.18029  -0.17715
 Alpha  occ. eigenvalues --   -0.16374
 Alpha virt. eigenvalues --   -0.11789  -0.07321  -0.06164  -0.04496  -0.03719
 Alpha virt. eigenvalues --   -0.03416  -0.03280  -0.01883  -0.01440  -0.00021
 Alpha virt. eigenvalues --    0.00587   0.01623   0.02322   0.02773   0.02818

 Mulliken charges:
               1
     1  Mg   0.698845
     2  C    0.054663
     3  C   -0.090747
     4  C   -0.024326
     5  C   -0.104372
     6  N   -0.127771
     7  C   -0.141681
     8  C    0.053563
     9  C    0.001291
    10  C    0.001187
    11  C    0.103247
    12  C    0.141750
    13  C    0.118973
    14  C    0.060811
    15  O   -0.213630
    16  O   -0.288919
    17  N   -0.337436
    18  C    0.187340
    19  C   -0.161406
    20  C    0.028516
    21  C    0.125077
    22  C    0.182652
    23  C   -0.107838
    24  O   -0.160557
    25  C    0.171683
    26  N   -0.170813
    27  C   -0.028354
    28  C    0.008977
    29  C    0.049466
    30  C    0.024712
    31  C    0.142529
    32  C    0.089812
    33  C    0.061692
    34  N   -0.205802
    35  C    0.091431
    36  C   -0.191468
    37  C    0.197156
    38  C    0.050468
    39  C    0.182380
    40  C   -0.145662
    41  O   -0.181770
    42  C    0.096498
    43  C    0.108634
    44  O   -0.204603
    45  O   -0.277313
    46  C    0.204873
    47  C    0.345055
    48  C   -0.087009
    49  C   -0.212731
    50  C    0.143784
    51  C    0.131832
    52  C    0.035789
    53  C    0.107202
    54  C   -0.110040
    55  C    0.105128
    56  C    0.117905
    57  C    0.079103
    58  C    0.057430
    59  C   -0.139340
    60  C    0.143375
    61  C    0.115064
    62  C    0.100843
    63  C    0.101041
    64  C   -0.106790
    65  C    0.093305
    66  C    0.110934
    67  H   -0.057711
    68  H   -0.098958
    69  H   -0.061280
    70  H   -0.014532
    71  H   -0.014998
    72  H    0.004247
    73  H   -0.012596
    74  H   -0.015200
    75  H   -0.014646
    76  H   -0.003268
    77  H    0.023399
    78  H   -0.011446
    79  H    0.013882
    80  H   -0.020897
    81  H    0.001132
    82  H    0.022505
    83  H   -0.010103
    84  H    0.011959
    85  H   -0.007185
    86  H   -0.020709
    87  H   -0.010389
    88  H   -0.029414
    89  H   -0.005237
    90  H   -0.007318
    91  H   -0.024575
    92  H   -0.022420
    93  H   -0.005480
    94  H   -0.009632
    95  H   -0.007482
    96  H    0.016451
    97  H    0.010707
    98  H   -0.001961
    99  H    0.020495
   100  H    0.018580
   101  H    0.023295
   102  H    0.001193
   103  H    0.004711
   104  H   -0.044396
   105  H   -0.009381
   106  H    0.003389
   107  H   -0.012997
   108  H   -0.028549
   109  H   -0.017564
   110  H   -0.015264
   111  H   -0.004340
   112  H   -0.033309
   113  H   -0.021797
   114  H   -0.027104
   115  H   -0.025307
   116  H   -0.019671
   117  H   -0.013419
   118  H   -0.031446
   119  H   -0.022460
   120  H   -0.030489
   121  H   -0.039399
   122  H   -0.045034
   123  H   -0.047650
   124  H   -0.029991
   125  H   -0.026426
   126  H   -0.007391
   127  H   -0.010407
   128  H   -0.034714
   129  H   -0.045966
   130  H   -0.034837
   131  H   -0.011834
   132  H   -0.036011
   133  H   -0.034434
   134  H   -0.024070
   135  H   -0.009168
   136  H   -0.014200
   137  H   -0.027496
   138  H   -0.029086
   139  H   -0.021678
   140  H   -0.006865
 Sum of Mulliken charges =  -0.00000

 Dipole moment (field-independent basis, Debye):
    X=             -0.5250    Y=             -4.3114    Z=              0.8209  Tot=              4.4201
 Quadrupole moment (field-independent basis, Debye-Ang):
   XX=           -383.1973   YY=           -406.9062   ZZ=           -433.9643
   XY=             17.2501   XZ=             -0.2476   YZ=            -33.5916

 Normal termination of Gaussian 16 at Wed May  4 19:48:05 2022.
