 Gaussian 16, Revision A.03,
 Gaussian 16:  ES64L-G16RevA.03 25-Dec-2016

 -----------------------------------
 #p cam-b3lyp/Def2SVP td=(nstates=5)
 -----------------------------------

 ------------------------------------------------------
 step_351_chromophore_8 TDDFT with cam-b3lyp functional
 ------------------------------------------------------
 Symbolic Z-matrix:
 Charge =  0 Multiplicity = 1

                         Standard orientation:
 ---------------------------------------------------------------------
 Center     Atomic      Atomic             Coordinates (Angstroms)
 Number     Number       Type             X           Y           Z
 ---------------------------------------------------------------------
      1         12           0       -4.996695   -0.896417    0.126221
      2          6           0       -3.853790    2.296710    1.032045
      3          6           0       -4.198373    0.090961   -3.185847
      4          6           0       -5.484038   -3.984022   -0.791159
      5          6           0       -4.765236   -1.853234    3.421956
      6          7           0       -4.296218    1.086325   -0.982585
      7          6           0       -3.790592    2.155533   -0.359078
      8          6           0       -3.254065    3.209327   -1.403313
      9          6           0       -3.486250    2.499446   -2.753844
     10          6           0       -3.954951    1.108387   -2.256162
     11          6           0       -4.629515    3.095996   -3.581346
     12          6           0       -1.777775    3.468823   -1.102849
     13          6           0       -1.321513    4.972286   -1.073662
     14          6           0        0.088410    5.385996   -1.534174
     15          8           0        0.405757    6.125443   -2.494862
     16          8           0        1.145017    4.889477   -0.787328
     17          7           0       -4.927810   -1.828662   -1.701258
     18          6           0       -4.579188   -1.252008   -2.930842
     19          6           0       -4.603182   -2.239708   -3.913190
     20          6           0       -5.118659   -3.452105   -3.312490
     21          6           0       -5.257891   -3.159593   -1.849880
     22          6           0       -4.291721   -2.077533   -5.412644
     23          6           0       -5.513297   -4.782377   -4.009421
     24          8           0       -5.218471   -4.903878   -5.184520
     25          6           0       -6.228905   -5.848451   -3.293660
     26          7           0       -4.992040   -2.759308    1.120872
     27          6           0       -5.392017   -3.843845    0.561804
     28          6           0       -5.491886   -5.064162    1.557189
     29          6           0       -5.333699   -4.261828    2.855406
     30          6           0       -5.038046   -2.865515    2.454697
     31          6           0       -6.793503   -5.868082    1.527648
     32          6           0       -4.117509   -4.780623    3.721681
     33          6           0       -4.617753   -5.514058    4.925247
     34          7           0       -4.545331    0.034024    1.944713
     35          6           0       -4.548668   -0.486646    3.147484
     36          6           0       -4.272011    0.535610    4.143601
     37          6           0       -4.082157    1.651703    3.298910
     38          6           0       -4.169656    1.312938    1.979998
     39          6           0       -4.231299    0.437710    5.665271
     40          6           0       -3.746673    2.994842    3.337139
     41          8           0       -3.515501    3.666953    4.379893
     42          6           0       -3.515781    3.506331    1.874329
     43          6           0       -4.435027    4.654697    1.839048
     44          8           0       -5.618737    4.673576    2.259969
     45          8           0       -3.801516    5.757364    1.293189
     46          6           0       -4.623629    6.979103    1.143251
     47          6           0        2.537128    4.911950   -1.199038
     48          6           0        3.263829    3.563043   -1.058367
     49          6           0        4.533243    3.167277   -0.636950
     50          6           0        5.583300    4.177908   -0.334898
     51          6           0        4.920558    1.652831   -0.520298
     52          6           0        6.140011    1.166686   -1.507171
     53          6           0        5.765132   -0.109782   -2.321467
     54          6           0        7.128910   -0.824684   -2.682978
     55          6           0        6.990403   -1.434565   -4.102987
     56          6           0        7.399431   -1.941237   -1.639248
     57          6           0        8.915233   -1.950850   -1.156418
     58          6           0        9.096444   -1.737813    0.341022
     59          6           0       10.132664   -2.814037    0.981381
     60          6           0        9.187775   -3.999587    1.314345
     61          6           0       10.921395   -2.142726    2.132399
     62          6           0       11.823326   -0.990779    1.673275
     63          6           0       13.212629   -1.007289    2.257934
     64          6           0       14.300923   -1.395452    1.129573
     65          6           0       14.467485   -0.224857    0.037690
     66          6           0       15.652948   -1.531161    1.894762
     67          1           0       -4.016437    0.368468   -4.227040
     68          1           0       -5.642950   -5.016498   -1.111309
     69          1           0       -4.904121   -2.121398    4.471715
     70          1           0       -3.809214    4.141451   -1.294209
     71          1           0       -2.655275    2.422620   -3.454149
     72          1           0       -5.491036    2.499561   -3.880523
     73          1           0       -4.127667    3.439751   -4.485291
     74          1           0       -5.105797    3.989613   -3.176373
     75          1           0       -1.216546    2.939520   -1.873770
     76          1           0       -1.607360    3.104230   -0.089579
     77          1           0       -1.422119    5.435575   -0.092406
     78          1           0       -1.979011    5.495216   -1.768622
     79          1           0       -3.858311   -2.951965   -5.898585
     80          1           0       -3.629041   -1.230782   -5.594367
     81          1           0       -5.240226   -1.864795   -5.905059
     82          1           0       -5.512054   -6.542950   -2.854963
     83          1           0       -6.734143   -6.419046   -4.073504
     84          1           0       -6.967317   -5.439338   -2.604263
     85          1           0       -4.708650   -5.777866    1.300657
     86          1           0       -6.242218   -4.245588    3.458390
     87          1           0       -6.652624   -6.882971    1.155389
     88          1           0       -7.400960   -5.438867    0.731162
     89          1           0       -7.433896   -5.743489    2.401549
     90          1           0       -3.471163   -4.053645    4.212619
     91          1           0       -3.528351   -5.391231    3.036828
     92          1           0       -5.686340   -5.726248    4.885028
     93          1           0       -4.520182   -4.926423    5.838174
     94          1           0       -4.142268   -6.493126    4.979599
     95          1           0       -5.030050   -0.169402    6.089920
     96          1           0       -4.406776    1.437699    6.062125
     97          1           0       -3.253606    0.012234    5.893164
     98          1           0       -2.518192    3.936627    1.792061
     99          1           0       -5.693060    6.766566    1.180266
    100          1           0       -4.409787    7.448027    0.182727
    101          1           0       -4.456594    7.670713    1.968869
    102          1           0        3.027974    5.701407   -0.630165
    103          1           0        2.591631    5.103634   -2.270715
    104          1           0        2.651022    2.663262   -1.107853
    105          1           0        6.531166    3.845951   -0.756258
    106          1           0        5.684090    4.354660    0.736236
    107          1           0        5.275645    5.107728   -0.813119
    108          1           0        4.007202    1.115449   -0.773269
    109          1           0        5.258317    1.404494    0.485575
    110          1           0        6.942893    0.934447   -0.808330
    111          1           0        6.383890    1.976592   -2.195450
    112          1           0        5.282470    0.187255   -3.252847
    113          1           0        5.108075   -0.794727   -1.786121
    114          1           0        7.977044   -0.156521   -2.829837
    115          1           0        5.942360   -1.663558   -4.297121
    116          1           0        7.527673   -2.382011   -4.125607
    117          1           0        7.269091   -0.665550   -4.823425
    118          1           0        7.283695   -2.924443   -2.096337
    119          1           0        6.716729   -1.794194   -0.802156
    120          1           0        9.542128   -1.263448   -1.724737
    121          1           0        9.365866   -2.896743   -1.455205
    122          1           0        8.123774   -1.701133    0.830856
    123          1           0        9.391762   -0.731127    0.637314
    124          1           0       10.847071   -3.040963    0.190099
    125          1           0        9.312691   -4.348013    2.339840
    126          1           0        9.485482   -4.746315    0.578344
    127          1           0        8.136638   -3.718600    1.247867
    128          1           0       11.378291   -2.933571    2.727321
    129          1           0       10.112253   -1.739897    2.741911
    130          1           0       11.295268   -0.118313    2.058708
    131          1           0       11.809056   -0.944275    0.584332
    132          1           0       13.235982   -1.742314    3.062479
    133          1           0       13.465083   -0.121318    2.840715
    134          1           0       14.161608   -2.331236    0.588435
    135          1           0       14.410846   -0.572845   -0.993269
    136          1           0       15.289878    0.452671    0.262485
    137          1           0       13.608901    0.444066    0.105237
    138          1           0       15.505120   -1.307371    2.951140
    139          1           0       16.395255   -0.757522    1.697410
    140          1           0       15.999661   -2.553887    1.747456
 ---------------------------------------------------------------------

 SCF Done:  E(RCAM-B3LYP) =  -3007.11266068     A.U. after   18 cycles

 Excitation energies and oscillator strengths:

 Excited State   1:      Singlet-A      1.7922 eV  691.79 nm  f=0.3777  <S**2>=0.000
     245 -> 248        0.19152
     246 -> 247        0.68231
     245 <- 248        0.10831
 This state for optimization and/or second-order correction.
 Total Energy, E(TD-HF/TD-DFT) =  -3007.04679786
 Copying the excited state density for this state as the 1-particle RhoCI density.

 Excited State   2:      Singlet-A      2.3134 eV  535.94 nm  f=0.1106  <S**2>=0.000
     245 -> 247        0.62934
     246 -> 248       -0.30635

 Excited State   3:      Singlet-A      3.2526 eV  381.19 nm  f=0.0030  <S**2>=0.000
     241 -> 247       -0.14723
     242 -> 247       -0.19855
     242 -> 249        0.10284
     243 -> 247        0.62978

 Excited State   4:      Singlet-A      3.2949 eV  376.29 nm  f=0.0017  <S**2>=0.000
     241 -> 247       -0.36469
     241 -> 249       -0.22710
     241 -> 251        0.14487
     242 -> 247        0.47985
     243 -> 249        0.11681
     246 -> 248       -0.10630

 Excited State   5:      Singlet-A      3.5167 eV  352.56 nm  f=0.0199  <S**2>=0.000
     241 -> 247        0.42495
     241 -> 249        0.12932
     242 -> 247        0.37942
     243 -> 247        0.26636
     246 -> 248       -0.19998

 The electronic state is 1-A.
 Alpha  occ. eigenvalues --  -46.89800 -19.25907 -19.23592 -19.19695 -19.18916
 Alpha  occ. eigenvalues --  -19.18831 -19.17560 -14.42595 -14.42303 -14.39664
 Alpha  occ. eigenvalues --  -14.39251 -10.39807 -10.39758 -10.35171 -10.33595
 Alpha  occ. eigenvalues --  -10.32299 -10.31831 -10.31514 -10.31092 -10.31043
 Alpha  occ. eigenvalues --  -10.30918 -10.30700 -10.30223 -10.29423 -10.28839
 Alpha  occ. eigenvalues --  -10.28816 -10.28709 -10.28675 -10.28592 -10.28523
 Alpha  occ. eigenvalues --  -10.28392 -10.28331 -10.27855 -10.27755 -10.27694
 Alpha  occ. eigenvalues --  -10.27429 -10.27365 -10.27358 -10.27243 -10.26735
 Alpha  occ. eigenvalues --  -10.26694 -10.26619 -10.26495 -10.26290 -10.26260
 Alpha  occ. eigenvalues --  -10.26253 -10.26242 -10.26037 -10.25845 -10.25813
 Alpha  occ. eigenvalues --  -10.25677 -10.25415 -10.25380 -10.25309 -10.25193
 Alpha  occ. eigenvalues --  -10.25079 -10.24961 -10.24723 -10.24507 -10.24374
 Alpha  occ. eigenvalues --  -10.24363 -10.24346 -10.24336 -10.24090 -10.23968
 Alpha  occ. eigenvalues --  -10.23926  -3.18311  -1.93202  -1.92793  -1.92577
 Alpha  occ. eigenvalues --   -1.15533  -1.14620  -1.10490  -1.07605  -1.07254
 Alpha  occ. eigenvalues --   -1.06256  -1.05892  -1.05282  -1.05201  -1.02249
 Alpha  occ. eigenvalues --   -0.94073  -0.90785  -0.90472  -0.89616  -0.89608
 Alpha  occ. eigenvalues --   -0.88945  -0.88338  -0.88037  -0.86672  -0.86586
 Alpha  occ. eigenvalues --   -0.85949  -0.85355  -0.84840  -0.84517  -0.83464
 Alpha  occ. eigenvalues --   -0.83310  -0.82270  -0.81763  -0.81386  -0.80629
 Alpha  occ. eigenvalues --   -0.79711  -0.78620  -0.78500  -0.77276  -0.76758
 Alpha  occ. eigenvalues --   -0.75802  -0.75340  -0.75035  -0.74560  -0.73721
 Alpha  occ. eigenvalues --   -0.73507  -0.72811  -0.72477  -0.70938  -0.69472
 Alpha  occ. eigenvalues --   -0.69123  -0.67588  -0.67373  -0.67196  -0.66697
 Alpha  occ. eigenvalues --   -0.66521  -0.65671  -0.65556  -0.65196  -0.63588
 Alpha  occ. eigenvalues --   -0.63485  -0.63017  -0.62851  -0.62683  -0.60723
 Alpha  occ. eigenvalues --   -0.60347  -0.59780  -0.59610  -0.58584  -0.58223
 Alpha  occ. eigenvalues --   -0.58109  -0.57019  -0.56882  -0.56088  -0.56004
 Alpha  occ. eigenvalues --   -0.55515  -0.54933  -0.54598  -0.54370  -0.53939
 Alpha  occ. eigenvalues --   -0.53872  -0.53535  -0.53378  -0.53212  -0.52884
 Alpha  occ. eigenvalues --   -0.52711  -0.52606  -0.52254  -0.52046  -0.51975
 Alpha  occ. eigenvalues --   -0.51847  -0.51210  -0.50926  -0.50850  -0.50762
 Alpha  occ. eigenvalues --   -0.50433  -0.50049  -0.49870  -0.49729  -0.49706
 Alpha  occ. eigenvalues --   -0.49567  -0.49225  -0.49160  -0.49014  -0.48673
 Alpha  occ. eigenvalues --   -0.48453  -0.48356  -0.48115  -0.47880  -0.47659
 Alpha  occ. eigenvalues --   -0.47634  -0.47543  -0.47334  -0.46941  -0.46658
 Alpha  occ. eigenvalues --   -0.46617  -0.46411  -0.46292  -0.45955  -0.45851
 Alpha  occ. eigenvalues --   -0.45680  -0.45652  -0.45363  -0.45056  -0.44946
 Alpha  occ. eigenvalues --   -0.44719  -0.44697  -0.44488  -0.44326  -0.44143
 Alpha  occ. eigenvalues --   -0.43772  -0.43620  -0.43379  -0.43238  -0.42927
 Alpha  occ. eigenvalues --   -0.42844  -0.42754  -0.42537  -0.42461  -0.42135
 Alpha  occ. eigenvalues --   -0.42021  -0.41719  -0.41601  -0.41458  -0.41154
 Alpha  occ. eigenvalues --   -0.40895  -0.40634  -0.40585  -0.40493  -0.40190
 Alpha  occ. eigenvalues --   -0.40134  -0.39813  -0.39689  -0.39206  -0.38765
 Alpha  occ. eigenvalues --   -0.38663  -0.38525  -0.38302  -0.37645  -0.37436
 Alpha  occ. eigenvalues --   -0.37245  -0.37034  -0.36795  -0.36490  -0.35824
 Alpha  occ. eigenvalues --   -0.35304  -0.34916  -0.34852  -0.34790  -0.34750
 Alpha  occ. eigenvalues --   -0.33858  -0.33159  -0.33054  -0.31618  -0.31139
 Alpha  occ. eigenvalues --   -0.30161  -0.29658  -0.29529  -0.28672  -0.24564
 Alpha  occ. eigenvalues --   -0.21740
 Alpha virt. eigenvalues --   -0.08868  -0.02270   0.00316   0.01408   0.02568
 Alpha virt. eigenvalues --    0.04183   0.04506   0.05464   0.05651   0.06441
 Alpha virt. eigenvalues --    0.07733   0.08287   0.08560   0.08933   0.08994

 Mulliken charges:
               1
     1  Mg   0.829706
     2  C    0.022041
     3  C   -0.101298
     4  C   -0.055269
     5  C   -0.100410
     6  N   -0.193196
     7  C   -0.097215
     8  C    0.002294
     9  C   -0.049685
    10  C    0.018895
    11  C    0.043398
    12  C    0.089952
    13  C    0.050822
    14  C    0.148965
    15  O   -0.256293
    16  O   -0.354917
    17  N   -0.428600
    18  C    0.195305
    19  C   -0.167633
    20  C   -0.039235
    21  C    0.158960
    22  C    0.129032
    23  C   -0.022713
    24  O   -0.200456
    25  C    0.076021
    26  N   -0.246493
    27  C    0.000393
    28  C   -0.042149
    29  C   -0.014602
    30  C    0.041802
    31  C    0.081409
    32  C    0.033175
    33  C    0.001501
    34  N   -0.301271
    35  C    0.093575
    36  C   -0.179306
    37  C    0.107937
    38  C    0.087662
    39  C    0.131333
    40  C   -0.048059
    41  O   -0.222691
    42  C    0.013453
    43  C    0.206180
    44  O   -0.244891
    45  O   -0.343883
    46  C    0.167729
    47  C    0.316669
    48  C   -0.115344
    49  C   -0.228860
    50  C    0.082277
    51  C    0.082181
    52  C   -0.016674
    53  C    0.051056
    54  C   -0.165348
    55  C    0.049460
    56  C    0.063318
    57  C    0.028524
    58  C    0.001313
    59  C   -0.186105
    60  C    0.083389
    61  C    0.064786
    62  C    0.037833
    63  C    0.046603
    64  C   -0.165742
    65  C    0.035032
    66  C    0.052155
    67  H   -0.021071
    68  H   -0.062083
    69  H   -0.026378
    70  H    0.018932
    71  H    0.020258
    72  H    0.030902
    73  H    0.012113
    74  H    0.011326
    75  H    0.015347
    76  H    0.028164
    77  H    0.053047
    78  H    0.020633
    79  H    0.044547
    80  H    0.004286
    81  H    0.028861
    82  H    0.051990
    83  H    0.027485
    84  H    0.040196
    85  H    0.027092
    86  H    0.013966
    87  H    0.015361
    88  H   -0.003092
    89  H    0.020854
    90  H    0.023195
    91  H    0.004002
    92  H   -0.000535
    93  H    0.017359
    94  H    0.015053
    95  H    0.016209
    96  H    0.044553
    97  H    0.035532
    98  H    0.041861
    99  H    0.047551
   100  H    0.038680
   101  H    0.045316
   102  H    0.027211
   103  H    0.037140
   104  H   -0.012903
   105  H    0.013915
   106  H    0.028876
   107  H    0.009967
   108  H    0.000154
   109  H    0.010934
   110  H    0.009744
   111  H    0.021671
   112  H   -0.003041
   113  H    0.006168
   114  H    0.004108
   115  H   -0.001347
   116  H    0.003697
   117  H    0.010722
   118  H   -0.001600
   119  H    0.003259
   120  H   -0.002919
   121  H   -0.010835
   122  H   -0.016931
   123  H   -0.019125
   124  H   -0.001116
   125  H   -0.000975
   126  H    0.015990
   127  H    0.012995
   128  H   -0.005990
   129  H   -0.017236
   130  H   -0.004355
   131  H    0.012907
   132  H   -0.006446
   133  H   -0.004382
   134  H    0.006610
   135  H    0.014713
   136  H    0.009589
   137  H   -0.004403
   138  H   -0.004980
   139  H    0.002604
   140  H    0.016303
 Sum of Mulliken charges =  -0.00000

 Dipole moment (field-independent basis, Debye):
    X=             -0.8293    Y=             -4.7902    Z=              0.2499  Tot=              4.8678
 Quadrupole moment (field-independent basis, Debye-Ang):
   XX=           -381.4710   YY=           -403.2521   ZZ=           -433.2449
   XY=             20.4094   XZ=              3.0644   YZ=            -33.9381

 Normal termination of Gaussian 16 at Wed May  4 18:51:39 2022.
