 Gaussian 16, Revision A.03,
 Gaussian 16:  ES64L-G16RevA.03 25-Dec-2016

 ---------------------------------
 #p PBE1PBE/Def2SVP td=(nstates=5)
 ---------------------------------

 ----------------------------------------------------
 step_351_chromophore_8 TDDFT with PBE1PBE functional
 ----------------------------------------------------
 Symbolic Z-matrix:
 Charge =  0 Multiplicity = 1

                         Standard orientation:
 ---------------------------------------------------------------------
 Center     Atomic      Atomic             Coordinates (Angstroms)
 Number     Number       Type             X           Y           Z
 ---------------------------------------------------------------------
      1         12           0       -4.996695   -0.896417    0.126221
      2          6           0       -3.853790    2.296710    1.032045
      3          6           0       -4.198373    0.090961   -3.185847
      4          6           0       -5.484038   -3.984022   -0.791159
      5          6           0       -4.765236   -1.853234    3.421956
      6          7           0       -4.296218    1.086325   -0.982585
      7          6           0       -3.790592    2.155533   -0.359078
      8          6           0       -3.254065    3.209327   -1.403313
      9          6           0       -3.486250    2.499446   -2.753844
     10          6           0       -3.954951    1.108387   -2.256162
     11          6           0       -4.629515    3.095996   -3.581346
     12          6           0       -1.777775    3.468823   -1.102849
     13          6           0       -1.321513    4.972286   -1.073662
     14          6           0        0.088410    5.385996   -1.534174
     15          8           0        0.405757    6.125443   -2.494862
     16          8           0        1.145017    4.889477   -0.787328
     17          7           0       -4.927810   -1.828662   -1.701258
     18          6           0       -4.579188   -1.252008   -2.930842
     19          6           0       -4.603182   -2.239708   -3.913190
     20          6           0       -5.118659   -3.452105   -3.312490
     21          6           0       -5.257891   -3.159593   -1.849880
     22          6           0       -4.291721   -2.077533   -5.412644
     23          6           0       -5.513297   -4.782377   -4.009421
     24          8           0       -5.218471   -4.903878   -5.184520
     25          6           0       -6.228905   -5.848451   -3.293660
     26          7           0       -4.992040   -2.759308    1.120872
     27          6           0       -5.392017   -3.843845    0.561804
     28          6           0       -5.491886   -5.064162    1.557189
     29          6           0       -5.333699   -4.261828    2.855406
     30          6           0       -5.038046   -2.865515    2.454697
     31          6           0       -6.793503   -5.868082    1.527648
     32          6           0       -4.117509   -4.780623    3.721681
     33          6           0       -4.617753   -5.514058    4.925247
     34          7           0       -4.545331    0.034024    1.944713
     35          6           0       -4.548668   -0.486646    3.147484
     36          6           0       -4.272011    0.535610    4.143601
     37          6           0       -4.082157    1.651703    3.298910
     38          6           0       -4.169656    1.312938    1.979998
     39          6           0       -4.231299    0.437710    5.665271
     40          6           0       -3.746673    2.994842    3.337139
     41          8           0       -3.515501    3.666953    4.379893
     42          6           0       -3.515781    3.506331    1.874329
     43          6           0       -4.435027    4.654697    1.839048
     44          8           0       -5.618737    4.673576    2.259969
     45          8           0       -3.801516    5.757364    1.293189
     46          6           0       -4.623629    6.979103    1.143251
     47          6           0        2.537128    4.911950   -1.199038
     48          6           0        3.263829    3.563043   -1.058367
     49          6           0        4.533243    3.167277   -0.636950
     50          6           0        5.583300    4.177908   -0.334898
     51          6           0        4.920558    1.652831   -0.520298
     52          6           0        6.140011    1.166686   -1.507171
     53          6           0        5.765132   -0.109782   -2.321467
     54          6           0        7.128910   -0.824684   -2.682978
     55          6           0        6.990403   -1.434565   -4.102987
     56          6           0        7.399431   -1.941237   -1.639248
     57          6           0        8.915233   -1.950850   -1.156418
     58          6           0        9.096444   -1.737813    0.341022
     59          6           0       10.132664   -2.814037    0.981381
     60          6           0        9.187775   -3.999587    1.314345
     61          6           0       10.921395   -2.142726    2.132399
     62          6           0       11.823326   -0.990779    1.673275
     63          6           0       13.212629   -1.007289    2.257934
     64          6           0       14.300923   -1.395452    1.129573
     65          6           0       14.467485   -0.224857    0.037690
     66          6           0       15.652948   -1.531161    1.894762
     67          1           0       -4.016437    0.368468   -4.227040
     68          1           0       -5.642950   -5.016498   -1.111309
     69          1           0       -4.904121   -2.121398    4.471715
     70          1           0       -3.809214    4.141451   -1.294209
     71          1           0       -2.655275    2.422620   -3.454149
     72          1           0       -5.491036    2.499561   -3.880523
     73          1           0       -4.127667    3.439751   -4.485291
     74          1           0       -5.105797    3.989613   -3.176373
     75          1           0       -1.216546    2.939520   -1.873770
     76          1           0       -1.607360    3.104230   -0.089579
     77          1           0       -1.422119    5.435575   -0.092406
     78          1           0       -1.979011    5.495216   -1.768622
     79          1           0       -3.858311   -2.951965   -5.898585
     80          1           0       -3.629041   -1.230782   -5.594367
     81          1           0       -5.240226   -1.864795   -5.905059
     82          1           0       -5.512054   -6.542950   -2.854963
     83          1           0       -6.734143   -6.419046   -4.073504
     84          1           0       -6.967317   -5.439338   -2.604263
     85          1           0       -4.708650   -5.777866    1.300657
     86          1           0       -6.242218   -4.245588    3.458390
     87          1           0       -6.652624   -6.882971    1.155389
     88          1           0       -7.400960   -5.438867    0.731162
     89          1           0       -7.433896   -5.743489    2.401549
     90          1           0       -3.471163   -4.053645    4.212619
     91          1           0       -3.528351   -5.391231    3.036828
     92          1           0       -5.686340   -5.726248    4.885028
     93          1           0       -4.520182   -4.926423    5.838174
     94          1           0       -4.142268   -6.493126    4.979599
     95          1           0       -5.030050   -0.169402    6.089920
     96          1           0       -4.406776    1.437699    6.062125
     97          1           0       -3.253606    0.012234    5.893164
     98          1           0       -2.518192    3.936627    1.792061
     99          1           0       -5.693060    6.766566    1.180266
    100          1           0       -4.409787    7.448027    0.182727
    101          1           0       -4.456594    7.670713    1.968869
    102          1           0        3.027974    5.701407   -0.630165
    103          1           0        2.591631    5.103634   -2.270715
    104          1           0        2.651022    2.663262   -1.107853
    105          1           0        6.531166    3.845951   -0.756258
    106          1           0        5.684090    4.354660    0.736236
    107          1           0        5.275645    5.107728   -0.813119
    108          1           0        4.007202    1.115449   -0.773269
    109          1           0        5.258317    1.404494    0.485575
    110          1           0        6.942893    0.934447   -0.808330
    111          1           0        6.383890    1.976592   -2.195450
    112          1           0        5.282470    0.187255   -3.252847
    113          1           0        5.108075   -0.794727   -1.786121
    114          1           0        7.977044   -0.156521   -2.829837
    115          1           0        5.942360   -1.663558   -4.297121
    116          1           0        7.527673   -2.382011   -4.125607
    117          1           0        7.269091   -0.665550   -4.823425
    118          1           0        7.283695   -2.924443   -2.096337
    119          1           0        6.716729   -1.794194   -0.802156
    120          1           0        9.542128   -1.263448   -1.724737
    121          1           0        9.365866   -2.896743   -1.455205
    122          1           0        8.123774   -1.701133    0.830856
    123          1           0        9.391762   -0.731127    0.637314
    124          1           0       10.847071   -3.040963    0.190099
    125          1           0        9.312691   -4.348013    2.339840
    126          1           0        9.485482   -4.746315    0.578344
    127          1           0        8.136638   -3.718600    1.247867
    128          1           0       11.378291   -2.933571    2.727321
    129          1           0       10.112253   -1.739897    2.741911
    130          1           0       11.295268   -0.118313    2.058708
    131          1           0       11.809056   -0.944275    0.584332
    132          1           0       13.235982   -1.742314    3.062479
    133          1           0       13.465083   -0.121318    2.840715
    134          1           0       14.161608   -2.331236    0.588435
    135          1           0       14.410846   -0.572845   -0.993269
    136          1           0       15.289878    0.452671    0.262485
    137          1           0       13.608901    0.444066    0.105237
    138          1           0       15.505120   -1.307371    2.951140
    139          1           0       16.395255   -0.757522    1.697410
    140          1           0       15.999661   -2.553887    1.747456
 ---------------------------------------------------------------------

 SCF Done:  E(RPBE1PBE) =  -3005.30132188     A.U. after   15 cycles

 Excitation energies and oscillator strengths:

 Excited State   1:      Singlet-A      1.9408 eV  638.82 nm  f=0.3636  <S**2>=0.000
     245 -> 248        0.18727
     246 -> 247        0.68805
 This state for optimization and/or second-order correction.
 Total Energy, E(TD-HF/TD-DFT) =  -3005.22999733
 Copying the excited state density for this state as the 1-particle RhoCI density.

 Excited State   2:      Singlet-A      2.3177 eV  534.93 nm  f=0.1103  <S**2>=0.000
     245 -> 247        0.64073
     246 -> 248       -0.27703

 Excited State   3:      Singlet-A      2.7616 eV  448.95 nm  f=0.0014  <S**2>=0.000
     241 -> 247       -0.10269
     243 -> 247        0.66431
     243 -> 249       -0.15952

 Excited State   4:      Singlet-A      2.9158 eV  425.22 nm  f=0.0072  <S**2>=0.000
     242 -> 247        0.68142

 Excited State   5:      Singlet-A      3.0558 eV  405.73 nm  f=0.0005  <S**2>=0.000
     240 -> 247        0.62042
     240 -> 249        0.11955
     241 -> 247       -0.24912

 The electronic state is 1-A.
 Alpha  occ. eigenvalues --  -46.93166 -19.26560 -19.24309 -19.19985 -19.19252
 Alpha  occ. eigenvalues --  -19.18921 -19.17967 -14.42014 -14.41766 -14.39285
 Alpha  occ. eigenvalues --  -14.38933 -10.36854 -10.36851 -10.32199 -10.30873
 Alpha  occ. eigenvalues --  -10.29709 -10.29324 -10.29066 -10.28740 -10.28683
 Alpha  occ. eigenvalues --  -10.28593 -10.28196 -10.27724 -10.27262 -10.26641
 Alpha  occ. eigenvalues --  -10.26600 -10.26490 -10.26466 -10.26328 -10.26240
 Alpha  occ. eigenvalues --  -10.25904 -10.25828 -10.25747 -10.25578 -10.25364
 Alpha  occ. eigenvalues --  -10.25063 -10.25034 -10.24971 -10.24921 -10.24413
 Alpha  occ. eigenvalues --  -10.24198 -10.24192 -10.23858 -10.23841 -10.23832
 Alpha  occ. eigenvalues --  -10.23832 -10.23727 -10.23606 -10.23422 -10.23402
 Alpha  occ. eigenvalues --  -10.23154 -10.23116 -10.22900 -10.22867 -10.22654
 Alpha  occ. eigenvalues --  -10.22551 -10.22544 -10.22273 -10.21976 -10.21921
 Alpha  occ. eigenvalues --  -10.21906 -10.21894 -10.21791 -10.21722 -10.21493
 Alpha  occ. eigenvalues --  -10.21331  -3.15257  -1.88087  -1.87657  -1.87446
 Alpha  occ. eigenvalues --   -1.10300  -1.09465  -1.05117  -1.02373  -1.01933
 Alpha  occ. eigenvalues --   -1.01064  -1.00604  -1.00090  -1.00079  -0.96776
 Alpha  occ. eigenvalues --   -0.88532  -0.85106  -0.84708  -0.83892  -0.83679
 Alpha  occ. eigenvalues --   -0.83034  -0.82649  -0.82162  -0.81036  -0.80685
 Alpha  occ. eigenvalues --   -0.80258  -0.79537  -0.79145  -0.78776  -0.77647
 Alpha  occ. eigenvalues --   -0.77450  -0.76462  -0.76062  -0.75684  -0.74889
 Alpha  occ. eigenvalues --   -0.73868  -0.72979  -0.72782  -0.71562  -0.71064
 Alpha  occ. eigenvalues --   -0.70089  -0.69489  -0.69114  -0.68691  -0.68008
 Alpha  occ. eigenvalues --   -0.67880  -0.67197  -0.66854  -0.65236  -0.64001
 Alpha  occ. eigenvalues --   -0.63527  -0.61968  -0.61612  -0.61565  -0.61006
 Alpha  occ. eigenvalues --   -0.60882  -0.60247  -0.59768  -0.59650  -0.57745
 Alpha  occ. eigenvalues --   -0.57663  -0.57445  -0.57354  -0.57032  -0.55254
 Alpha  occ. eigenvalues --   -0.54880  -0.54407  -0.54238  -0.52932  -0.52855
 Alpha  occ. eigenvalues --   -0.52531  -0.51550  -0.51428  -0.50639  -0.50539
 Alpha  occ. eigenvalues --   -0.49935  -0.49469  -0.49132  -0.48880  -0.48516
 Alpha  occ. eigenvalues --   -0.48299  -0.48144  -0.47793  -0.47677  -0.47302
 Alpha  occ. eigenvalues --   -0.47241  -0.47091  -0.46845  -0.46562  -0.46537
 Alpha  occ. eigenvalues --   -0.46443  -0.45809  -0.45536  -0.45461  -0.45285
 Alpha  occ. eigenvalues --   -0.44925  -0.44579  -0.44452  -0.44319  -0.44238
 Alpha  occ. eigenvalues --   -0.44160  -0.43839  -0.43764  -0.43560  -0.43251
 Alpha  occ. eigenvalues --   -0.43167  -0.43018  -0.42788  -0.42400  -0.42375
 Alpha  occ. eigenvalues --   -0.42320  -0.42281  -0.42035  -0.41630  -0.41339
 Alpha  occ. eigenvalues --   -0.41198  -0.41091  -0.40958  -0.40640  -0.40533
 Alpha  occ. eigenvalues --   -0.40428  -0.40282  -0.40078  -0.39817  -0.39719
 Alpha  occ. eigenvalues --   -0.39509  -0.39324  -0.39246  -0.38990  -0.38981
 Alpha  occ. eigenvalues --   -0.38641  -0.38414  -0.38174  -0.38096  -0.37576
 Alpha  occ. eigenvalues --   -0.37571  -0.37535  -0.37343  -0.37252  -0.36879
 Alpha  occ. eigenvalues --   -0.36783  -0.36560  -0.36393  -0.36189  -0.35991
 Alpha  occ. eigenvalues --   -0.35720  -0.35535  -0.35286  -0.35255  -0.35013
 Alpha  occ. eigenvalues --   -0.34924  -0.34658  -0.34529  -0.33943  -0.33728
 Alpha  occ. eigenvalues --   -0.33509  -0.33280  -0.33084  -0.32682  -0.32468
 Alpha  occ. eigenvalues --   -0.32063  -0.32049  -0.31627  -0.31483  -0.30804
 Alpha  occ. eigenvalues --   -0.30211  -0.30064  -0.29962  -0.29844  -0.29785
 Alpha  occ. eigenvalues --   -0.28979  -0.28125  -0.27853  -0.27231  -0.25822
 Alpha  occ. eigenvalues --   -0.25564  -0.25018  -0.24856  -0.24028  -0.21515
 Alpha  occ. eigenvalues --   -0.19361
 Alpha virt. eigenvalues --   -0.11374  -0.05732  -0.03880  -0.01896  -0.01320
 Alpha virt. eigenvalues --   -0.00416  -0.00204   0.01113   0.01460   0.02827
 Alpha virt. eigenvalues --    0.03482   0.04449   0.05121   0.05643   0.05742

 Mulliken charges:
               1
     1  Mg   0.968241
     2  C    0.008894
     3  C   -0.081186
     4  C   -0.069478
     5  C   -0.073689
     6  N   -0.293032
     7  C   -0.021809
     8  C   -0.070609
     9  C   -0.125225
    10  C    0.053591
    11  C   -0.006486
    12  C    0.040856
    13  C   -0.026471
    14  C    0.218097
    15  O   -0.289315
    16  O   -0.386195
    17  N   -0.544967
    18  C    0.211116
    19  C   -0.193023
    20  C   -0.086138
    21  C    0.196762
    22  C    0.070175
    23  C    0.031741
    24  O   -0.236418
    25  C   -0.005232
    26  N   -0.357167
    27  C    0.045146
    28  C   -0.117147
    29  C   -0.097707
    30  C    0.080949
    31  C    0.027229
    32  C   -0.025269
    33  C   -0.067465
    34  N   -0.442384
    35  C    0.113974
    36  C   -0.180584
    37  C    0.036197
    38  C    0.152037
    39  C    0.074335
    40  C    0.051143
    41  O   -0.264752
    42  C   -0.104426
    43  C    0.302198
    44  O   -0.277946
    45  O   -0.376645
    46  C    0.114115
    47  C    0.278294
    48  C   -0.133433
    49  C   -0.268454
    50  C    0.019852
    51  C    0.023175
    52  C   -0.081932
    53  C   -0.005877
    54  C   -0.249277
    55  C   -0.010966
    56  C    0.008931
    57  C   -0.026089
    58  C   -0.054555
    59  C   -0.270874
    60  C    0.025259
    61  C    0.011695
    62  C   -0.030767
    63  C   -0.006918
    64  C   -0.259774
    65  C   -0.023082
    66  C   -0.004194
    67  H    0.009469
    68  H   -0.023428
    69  H    0.005839
    70  H    0.056139
    71  H    0.054180
    72  H    0.057681
    73  H    0.039466
    74  H    0.038187
    75  H    0.047962
    76  H    0.063831
    77  H    0.085052
    78  H    0.053296
    79  H    0.070840
    80  H    0.030727
    81  H    0.057173
    82  H    0.078371
    83  H    0.055641
    84  H    0.066533
    85  H    0.061289
    86  H    0.050034
    87  H    0.042552
    88  H    0.025715
    89  H    0.046847
    90  H    0.055108
    91  H    0.037300
    92  H    0.027390
    93  H    0.044168
    94  H    0.043248
    95  H    0.043465
    96  H    0.071971
    97  H    0.064242
    98  H    0.078671
    99  H    0.068192
   100  H    0.059784
   101  H    0.067160
   102  H    0.052907
   103  H    0.064159
   104  H    0.017804
   105  H    0.041840
   106  H    0.056757
   107  H    0.037791
   108  H    0.031935
   109  H    0.043538
   110  H    0.044280
   111  H    0.053635
   112  H    0.030897
   113  H    0.037026
   114  H    0.039780
   115  H    0.027112
   116  H    0.031751
   117  H    0.038874
   118  H    0.031006
   119  H    0.034501
   120  H    0.028475
   121  H    0.021061
   122  H    0.014450
   123  H    0.013589
   124  H    0.036430
   125  H    0.026599
   126  H    0.043011
   127  H    0.039833
   128  H    0.025560
   129  H    0.017642
   130  H    0.028933
   131  H    0.045535
   132  H    0.026323
   133  H    0.027035
   134  H    0.042706
   135  H    0.041846
   136  H    0.036277
   137  H    0.023427
   138  H    0.022028
   139  H    0.028986
   140  H    0.043523
 Sum of Mulliken charges =  -0.00000

 Dipole moment (field-independent basis, Debye):
    X=             -0.8067    Y=             -4.7340    Z=              0.5701  Tot=              4.8359
 Quadrupole moment (field-independent basis, Debye-Ang):
   XX=           -378.7787   YY=           -399.8397   ZZ=           -428.9060
   XY=             20.5184   XZ=              1.4812   YZ=            -35.2382

 Normal termination of Gaussian 16 at Wed May  4 19:09:47 2022.
