 Gaussian 16, Revision A.03,
 Gaussian 16:  ES64L-G16RevA.03 25-Dec-2016

 --------------------------------
 #p wB97XD/Def2SVP td=(nstates=5)
 --------------------------------

 ---------------------------------------------------
 step_351_chromophore_8 TDDFT with wB97XD functional
 ---------------------------------------------------
 Symbolic Z-matrix:
 Charge =  0 Multiplicity = 1

                         Standard orientation:
 ---------------------------------------------------------------------
 Center     Atomic      Atomic             Coordinates (Angstroms)
 Number     Number       Type             X           Y           Z
 ---------------------------------------------------------------------
      1         12           0       -4.996695   -0.896417    0.126221
      2          6           0       -3.853790    2.296710    1.032045
      3          6           0       -4.198373    0.090961   -3.185847
      4          6           0       -5.484038   -3.984022   -0.791159
      5          6           0       -4.765236   -1.853234    3.421956
      6          7           0       -4.296218    1.086325   -0.982585
      7          6           0       -3.790592    2.155533   -0.359078
      8          6           0       -3.254065    3.209327   -1.403313
      9          6           0       -3.486250    2.499446   -2.753844
     10          6           0       -3.954951    1.108387   -2.256162
     11          6           0       -4.629515    3.095996   -3.581346
     12          6           0       -1.777775    3.468823   -1.102849
     13          6           0       -1.321513    4.972286   -1.073662
     14          6           0        0.088410    5.385996   -1.534174
     15          8           0        0.405757    6.125443   -2.494862
     16          8           0        1.145017    4.889477   -0.787328
     17          7           0       -4.927810   -1.828662   -1.701258
     18          6           0       -4.579188   -1.252008   -2.930842
     19          6           0       -4.603182   -2.239708   -3.913190
     20          6           0       -5.118659   -3.452105   -3.312490
     21          6           0       -5.257891   -3.159593   -1.849880
     22          6           0       -4.291721   -2.077533   -5.412644
     23          6           0       -5.513297   -4.782377   -4.009421
     24          8           0       -5.218471   -4.903878   -5.184520
     25          6           0       -6.228905   -5.848451   -3.293660
     26          7           0       -4.992040   -2.759308    1.120872
     27          6           0       -5.392017   -3.843845    0.561804
     28          6           0       -5.491886   -5.064162    1.557189
     29          6           0       -5.333699   -4.261828    2.855406
     30          6           0       -5.038046   -2.865515    2.454697
     31          6           0       -6.793503   -5.868082    1.527648
     32          6           0       -4.117509   -4.780623    3.721681
     33          6           0       -4.617753   -5.514058    4.925247
     34          7           0       -4.545331    0.034024    1.944713
     35          6           0       -4.548668   -0.486646    3.147484
     36          6           0       -4.272011    0.535610    4.143601
     37          6           0       -4.082157    1.651703    3.298910
     38          6           0       -4.169656    1.312938    1.979998
     39          6           0       -4.231299    0.437710    5.665271
     40          6           0       -3.746673    2.994842    3.337139
     41          8           0       -3.515501    3.666953    4.379893
     42          6           0       -3.515781    3.506331    1.874329
     43          6           0       -4.435027    4.654697    1.839048
     44          8           0       -5.618737    4.673576    2.259969
     45          8           0       -3.801516    5.757364    1.293189
     46          6           0       -4.623629    6.979103    1.143251
     47          6           0        2.537128    4.911950   -1.199038
     48          6           0        3.263829    3.563043   -1.058367
     49          6           0        4.533243    3.167277   -0.636950
     50          6           0        5.583300    4.177908   -0.334898
     51          6           0        4.920558    1.652831   -0.520298
     52          6           0        6.140011    1.166686   -1.507171
     53          6           0        5.765132   -0.109782   -2.321467
     54          6           0        7.128910   -0.824684   -2.682978
     55          6           0        6.990403   -1.434565   -4.102987
     56          6           0        7.399431   -1.941237   -1.639248
     57          6           0        8.915233   -1.950850   -1.156418
     58          6           0        9.096444   -1.737813    0.341022
     59          6           0       10.132664   -2.814037    0.981381
     60          6           0        9.187775   -3.999587    1.314345
     61          6           0       10.921395   -2.142726    2.132399
     62          6           0       11.823326   -0.990779    1.673275
     63          6           0       13.212629   -1.007289    2.257934
     64          6           0       14.300923   -1.395452    1.129573
     65          6           0       14.467485   -0.224857    0.037690
     66          6           0       15.652948   -1.531161    1.894762
     67          1           0       -4.016437    0.368468   -4.227040
     68          1           0       -5.642950   -5.016498   -1.111309
     69          1           0       -4.904121   -2.121398    4.471715
     70          1           0       -3.809214    4.141451   -1.294209
     71          1           0       -2.655275    2.422620   -3.454149
     72          1           0       -5.491036    2.499561   -3.880523
     73          1           0       -4.127667    3.439751   -4.485291
     74          1           0       -5.105797    3.989613   -3.176373
     75          1           0       -1.216546    2.939520   -1.873770
     76          1           0       -1.607360    3.104230   -0.089579
     77          1           0       -1.422119    5.435575   -0.092406
     78          1           0       -1.979011    5.495216   -1.768622
     79          1           0       -3.858311   -2.951965   -5.898585
     80          1           0       -3.629041   -1.230782   -5.594367
     81          1           0       -5.240226   -1.864795   -5.905059
     82          1           0       -5.512054   -6.542950   -2.854963
     83          1           0       -6.734143   -6.419046   -4.073504
     84          1           0       -6.967317   -5.439338   -2.604263
     85          1           0       -4.708650   -5.777866    1.300657
     86          1           0       -6.242218   -4.245588    3.458390
     87          1           0       -6.652624   -6.882971    1.155389
     88          1           0       -7.400960   -5.438867    0.731162
     89          1           0       -7.433896   -5.743489    2.401549
     90          1           0       -3.471163   -4.053645    4.212619
     91          1           0       -3.528351   -5.391231    3.036828
     92          1           0       -5.686340   -5.726248    4.885028
     93          1           0       -4.520182   -4.926423    5.838174
     94          1           0       -4.142268   -6.493126    4.979599
     95          1           0       -5.030050   -0.169402    6.089920
     96          1           0       -4.406776    1.437699    6.062125
     97          1           0       -3.253606    0.012234    5.893164
     98          1           0       -2.518192    3.936627    1.792061
     99          1           0       -5.693060    6.766566    1.180266
    100          1           0       -4.409787    7.448027    0.182727
    101          1           0       -4.456594    7.670713    1.968869
    102          1           0        3.027974    5.701407   -0.630165
    103          1           0        2.591631    5.103634   -2.270715
    104          1           0        2.651022    2.663262   -1.107853
    105          1           0        6.531166    3.845951   -0.756258
    106          1           0        5.684090    4.354660    0.736236
    107          1           0        5.275645    5.107728   -0.813119
    108          1           0        4.007202    1.115449   -0.773269
    109          1           0        5.258317    1.404494    0.485575
    110          1           0        6.942893    0.934447   -0.808330
    111          1           0        6.383890    1.976592   -2.195450
    112          1           0        5.282470    0.187255   -3.252847
    113          1           0        5.108075   -0.794727   -1.786121
    114          1           0        7.977044   -0.156521   -2.829837
    115          1           0        5.942360   -1.663558   -4.297121
    116          1           0        7.527673   -2.382011   -4.125607
    117          1           0        7.269091   -0.665550   -4.823425
    118          1           0        7.283695   -2.924443   -2.096337
    119          1           0        6.716729   -1.794194   -0.802156
    120          1           0        9.542128   -1.263448   -1.724737
    121          1           0        9.365866   -2.896743   -1.455205
    122          1           0        8.123774   -1.701133    0.830856
    123          1           0        9.391762   -0.731127    0.637314
    124          1           0       10.847071   -3.040963    0.190099
    125          1           0        9.312691   -4.348013    2.339840
    126          1           0        9.485482   -4.746315    0.578344
    127          1           0        8.136638   -3.718600    1.247867
    128          1           0       11.378291   -2.933571    2.727321
    129          1           0       10.112253   -1.739897    2.741911
    130          1           0       11.295268   -0.118313    2.058708
    131          1           0       11.809056   -0.944275    0.584332
    132          1           0       13.235982   -1.742314    3.062479
    133          1           0       13.465083   -0.121318    2.840715
    134          1           0       14.161608   -2.331236    0.588435
    135          1           0       14.410846   -0.572845   -0.993269
    136          1           0       15.289878    0.452671    0.262485
    137          1           0       13.608901    0.444066    0.105237
    138          1           0       15.505120   -1.307371    2.951140
    139          1           0       16.395255   -0.757522    1.697410
    140          1           0       15.999661   -2.553887    1.747456
 ---------------------------------------------------------------------

 SCF Done:  E(RwB97XD) =  -3007.80778846     A.U. after   19 cycles

 Excitation energies and oscillator strengths:

 Excited State   1:      Singlet-A      1.7398 eV  712.65 nm  f=0.3767  <S**2>=0.000
     245 -> 248        0.19619
     246 -> 247        0.68053
     245 <- 248        0.11725
 This state for optimization and/or second-order correction.
 Total Energy, E(TD-HF/TD-DFT) =  -3007.74385358
 Copying the excited state density for this state as the 1-particle RhoCI density.

 Excited State   2:      Singlet-A      2.2593 eV  548.77 nm  f=0.1076  <S**2>=0.000
     245 -> 247        0.62718
     246 -> 248       -0.30809

 Excited State   3:      Singlet-A      3.2668 eV  379.53 nm  f=0.0032  <S**2>=0.000
     242 -> 247        0.48566
     242 -> 249        0.12497
     243 -> 247       -0.45933

 Excited State   4:      Singlet-A      3.3231 eV  373.10 nm  f=0.0015  <S**2>=0.000
     241 -> 247        0.26391
     241 -> 249       -0.21987
     241 -> 250       -0.11320
     242 -> 247        0.40574
     243 -> 247        0.31886
     243 -> 249       -0.20923
     246 -> 248        0.11158

 Excited State   5:      Singlet-A      3.5509 eV  349.17 nm  f=0.0565  <S**2>=0.000
     240 -> 247        0.15430
     241 -> 247        0.47534
     241 -> 249       -0.14439
     242 -> 247       -0.13241
     243 -> 247       -0.30123
     246 -> 248       -0.25587

 The electronic state is 1-A.
 Alpha  occ. eigenvalues --  -46.96149 -19.31114 -19.28861 -19.24651 -19.23909
 Alpha  occ. eigenvalues --  -19.23871 -19.22610 -14.47177 -14.46857 -14.44297
 Alpha  occ. eigenvalues --  -14.43787 -10.43650 -10.43623 -10.39149 -10.37594
 Alpha  occ. eigenvalues --  -10.36199 -10.35562 -10.35523 -10.35134 -10.35052
 Alpha  occ. eigenvalues --  -10.34887 -10.34778 -10.34311 -10.33374 -10.32904
 Alpha  occ. eigenvalues --  -10.32868 -10.32802 -10.32768 -10.32628 -10.32512
 Alpha  occ. eigenvalues --  -10.32470 -10.32339 -10.31954 -10.31734 -10.31725
 Alpha  occ. eigenvalues --  -10.31581 -10.31436 -10.31383 -10.31276 -10.30666
 Alpha  occ. eigenvalues --  -10.30612 -10.30513 -10.30420 -10.30276 -10.30200
 Alpha  occ. eigenvalues --  -10.30150 -10.30146 -10.29980 -10.29804 -10.29773
 Alpha  occ. eigenvalues --  -10.29656 -10.29366 -10.29251 -10.29209 -10.29011
 Alpha  occ. eigenvalues --  -10.29001 -10.28899 -10.28637 -10.28328 -10.28304
 Alpha  occ. eigenvalues --  -10.28289 -10.28257 -10.28148 -10.27948 -10.27913
 Alpha  occ. eigenvalues --  -10.27734  -3.22108  -1.95685  -1.95256  -1.95042
 Alpha  occ. eigenvalues --   -1.17693  -1.16834  -1.12724  -1.09715  -1.09291
 Alpha  occ. eigenvalues --   -1.08395  -1.07964  -1.07433  -1.07344  -1.04322
 Alpha  occ. eigenvalues --   -0.96060  -0.92658  -0.92337  -0.91544  -0.91354
 Alpha  occ. eigenvalues --   -0.90715  -0.90262  -0.89836  -0.88598  -0.88351
 Alpha  occ. eigenvalues --   -0.87853  -0.87326  -0.86733  -0.86434  -0.85341
 Alpha  occ. eigenvalues --   -0.85164  -0.84150  -0.83679  -0.83324  -0.82516
 Alpha  occ. eigenvalues --   -0.81532  -0.80538  -0.80407  -0.79234  -0.78688
 Alpha  occ. eigenvalues --   -0.77765  -0.77176  -0.76811  -0.76367  -0.75562
 Alpha  occ. eigenvalues --   -0.75479  -0.74769  -0.74437  -0.72864  -0.71444
 Alpha  occ. eigenvalues --   -0.71033  -0.69572  -0.69240  -0.69081  -0.68547
 Alpha  occ. eigenvalues --   -0.68478  -0.67668  -0.67409  -0.67215  -0.65398
 Alpha  occ. eigenvalues --   -0.65311  -0.64899  -0.64826  -0.64612  -0.62698
 Alpha  occ. eigenvalues --   -0.62327  -0.61784  -0.61592  -0.60468  -0.60224
 Alpha  occ. eigenvalues --   -0.60069  -0.58960  -0.58882  -0.58054  -0.57955
 Alpha  occ. eigenvalues --   -0.57406  -0.56847  -0.56494  -0.56280  -0.55820
 Alpha  occ. eigenvalues --   -0.55734  -0.55475  -0.55239  -0.55150  -0.54823
 Alpha  occ. eigenvalues --   -0.54634  -0.54477  -0.54184  -0.53961  -0.53884
 Alpha  occ. eigenvalues --   -0.53816  -0.53118  -0.52855  -0.52752  -0.52636
 Alpha  occ. eigenvalues --   -0.52291  -0.52001  -0.51808  -0.51658  -0.51625
 Alpha  occ. eigenvalues --   -0.51499  -0.51123  -0.51065  -0.50894  -0.50582
 Alpha  occ. eigenvalues --   -0.50396  -0.50280  -0.50024  -0.49717  -0.49579
 Alpha  occ. eigenvalues --   -0.49554  -0.49490  -0.49258  -0.48831  -0.48588
 Alpha  occ. eigenvalues --   -0.48444  -0.48342  -0.48243  -0.47832  -0.47752
 Alpha  occ. eigenvalues --   -0.47620  -0.47504  -0.47350  -0.46952  -0.46847
 Alpha  occ. eigenvalues --   -0.46626  -0.46556  -0.46434  -0.46182  -0.46049
 Alpha  occ. eigenvalues --   -0.45700  -0.45560  -0.45314  -0.45117  -0.44774
 Alpha  occ. eigenvalues --   -0.44738  -0.44690  -0.44450  -0.44385  -0.44010
 Alpha  occ. eigenvalues --   -0.43989  -0.43627  -0.43507  -0.43319  -0.43128
 Alpha  occ. eigenvalues --   -0.42795  -0.42539  -0.42406  -0.42321  -0.42069
 Alpha  occ. eigenvalues --   -0.42008  -0.41711  -0.41590  -0.41042  -0.40731
 Alpha  occ. eigenvalues --   -0.40563  -0.40354  -0.40142  -0.39653  -0.39411
 Alpha  occ. eigenvalues --   -0.39081  -0.38959  -0.38640  -0.38529  -0.37789
 Alpha  occ. eigenvalues --   -0.37163  -0.36893  -0.36797  -0.36748  -0.36710
 Alpha  occ. eigenvalues --   -0.35941  -0.35016  -0.34965  -0.33840  -0.33091
 Alpha  occ. eigenvalues --   -0.32170  -0.31814  -0.31657  -0.30698  -0.26488
 Alpha  occ. eigenvalues --   -0.23559
 Alpha virt. eigenvalues --   -0.07221  -0.00364   0.02426   0.04486   0.04795
 Alpha virt. eigenvalues --    0.06360   0.06645   0.07799   0.08194   0.09126
 Alpha virt. eigenvalues --    0.10218   0.11148   0.11824   0.12425   0.12515

 Mulliken charges:
               1
     1  Mg   0.962680
     2  C    0.004315
     3  C   -0.104490
     4  C   -0.076769
     5  C   -0.100020
     6  N   -0.258182
     7  C   -0.052118
     8  C   -0.046590
     9  C   -0.100461
    10  C    0.042566
    11  C   -0.001202
    12  C    0.053027
    13  C   -0.008152
    14  C    0.207613
    15  O   -0.287029
    16  O   -0.385195
    17  N   -0.513804
    18  C    0.208129
    19  C   -0.183871
    20  C   -0.080315
    21  C    0.189514
    22  C    0.082392
    23  C    0.026476
    24  O   -0.231172
    25  C    0.008164
    26  N   -0.320615
    27  C    0.031727
    28  C   -0.094953
    29  C   -0.068411
    30  C    0.068417
    31  C    0.036512
    32  C   -0.011017
    33  C   -0.051747
    34  N   -0.397220
    35  C    0.105438
    36  C   -0.184153
    37  C    0.049636
    38  C    0.127613
    39  C    0.086394
    40  C    0.031281
    41  O   -0.256521
    42  C   -0.062762
    43  C    0.277631
    44  O   -0.274234
    45  O   -0.375241
    46  C    0.129704
    47  C    0.291883
    48  C   -0.139032
    49  C   -0.257173
    50  C    0.032976
    51  C    0.041597
    52  C   -0.064619
    53  C    0.009060
    54  C   -0.221174
    55  C    0.002343
    56  C    0.024818
    57  C   -0.013451
    58  C   -0.035697
    59  C   -0.237962
    60  C    0.035341
    61  C    0.027003
    62  C   -0.012943
    63  C    0.008753
    64  C   -0.231835
    65  C   -0.012009
    66  C    0.007075
    67  H    0.003350
    68  H   -0.038066
    69  H   -0.000444
    70  H    0.042910
    71  H    0.046477
    72  H    0.051766
    73  H    0.034389
    74  H    0.033562
    75  H    0.040484
    76  H    0.052354
    77  H    0.077983
    78  H    0.046452
    79  H    0.068375
    80  H    0.025767
    81  H    0.053000
    82  H    0.075488
    83  H    0.054547
    84  H    0.060194
    85  H    0.052796
    86  H    0.037239
    87  H    0.038223
    88  H    0.017140
    89  H    0.042503
    90  H    0.046624
    91  H    0.028776
    92  H    0.018571
    93  H    0.038780
    94  H    0.037857
    95  H    0.037642
    96  H    0.068113
    97  H    0.058686
    98  H    0.070671
    99  H    0.064087
   100  H    0.056016
   101  H    0.063305
   102  H    0.048513
   103  H    0.059747
   104  H    0.012706
   105  H    0.035304
   106  H    0.052181
   107  H    0.031062
   108  H    0.022405
   109  H    0.036980
   110  H    0.033080
   111  H    0.044810
   112  H    0.022597
   113  H    0.028561
   114  H    0.027539
   115  H    0.019716
   116  H    0.024964
   117  H    0.033674
   118  H    0.022693
   119  H    0.022552
   120  H    0.020084
   121  H    0.011904
   122  H    0.002712
   123  H    0.003190
   124  H    0.022217
   125  H    0.021620
   126  H    0.037680
   127  H    0.032476
   128  H    0.017332
   129  H    0.006952
   130  H    0.021588
   131  H    0.031181
   132  H    0.015605
   133  H    0.020020
   134  H    0.033890
   135  H    0.037173
   136  H    0.030209
   137  H    0.015331
   138  H    0.014724
   139  H    0.022833
   140  H    0.038637
 Sum of Mulliken charges =  -0.00000

 Dipole moment (field-independent basis, Debye):
    X=             -0.8871    Y=             -4.8987    Z=              0.1643  Tot=              4.9811
 Quadrupole moment (field-independent basis, Debye-Ang):
   XX=           -377.6165   YY=           -398.8703   ZZ=           -428.8973
   XY=             21.3779   XZ=              3.6901   YZ=            -34.1977

 Normal termination of Gaussian 16 at Wed May  4 19:35:09 2022.
