 Gaussian 16, Revision A.03,
 Gaussian 16:  ES64L-G16RevA.03 25-Dec-2016

 --------------------
 #p ZINDO=(nstates=5)
 --------------------

 ----------------------------
 step_351_chromophore_8 ZINDO
 ----------------------------
 Symbolic Z-matrix:
 Charge =  0 Multiplicity = 1

                         Standard orientation:
 ---------------------------------------------------------------------
 Center     Atomic      Atomic             Coordinates (Angstroms)
 Number     Number       Type             X           Y           Z
 ---------------------------------------------------------------------
      1         12           0       -4.996695   -0.896417    0.126221
      2          6           0       -3.853790    2.296710    1.032045
      3          6           0       -4.198373    0.090961   -3.185847
      4          6           0       -5.484038   -3.984022   -0.791159
      5          6           0       -4.765236   -1.853234    3.421956
      6          7           0       -4.296218    1.086325   -0.982585
      7          6           0       -3.790592    2.155533   -0.359078
      8          6           0       -3.254065    3.209327   -1.403313
      9          6           0       -3.486250    2.499446   -2.753844
     10          6           0       -3.954951    1.108387   -2.256162
     11          6           0       -4.629515    3.095996   -3.581346
     12          6           0       -1.777775    3.468823   -1.102849
     13          6           0       -1.321513    4.972286   -1.073662
     14          6           0        0.088410    5.385996   -1.534174
     15          8           0        0.405757    6.125443   -2.494862
     16          8           0        1.145017    4.889477   -0.787328
     17          7           0       -4.927810   -1.828662   -1.701258
     18          6           0       -4.579188   -1.252008   -2.930842
     19          6           0       -4.603182   -2.239708   -3.913190
     20          6           0       -5.118659   -3.452105   -3.312490
     21          6           0       -5.257891   -3.159593   -1.849880
     22          6           0       -4.291721   -2.077533   -5.412644
     23          6           0       -5.513297   -4.782377   -4.009421
     24          8           0       -5.218471   -4.903878   -5.184520
     25          6           0       -6.228905   -5.848451   -3.293660
     26          7           0       -4.992040   -2.759308    1.120872
     27          6           0       -5.392017   -3.843845    0.561804
     28          6           0       -5.491886   -5.064162    1.557189
     29          6           0       -5.333699   -4.261828    2.855406
     30          6           0       -5.038046   -2.865515    2.454697
     31          6           0       -6.793503   -5.868082    1.527648
     32          6           0       -4.117509   -4.780623    3.721681
     33          6           0       -4.617753   -5.514058    4.925247
     34          7           0       -4.545331    0.034024    1.944713
     35          6           0       -4.548668   -0.486646    3.147484
     36          6           0       -4.272011    0.535610    4.143601
     37          6           0       -4.082157    1.651703    3.298910
     38          6           0       -4.169656    1.312938    1.979998
     39          6           0       -4.231299    0.437710    5.665271
     40          6           0       -3.746673    2.994842    3.337139
     41          8           0       -3.515501    3.666953    4.379893
     42          6           0       -3.515781    3.506331    1.874329
     43          6           0       -4.435027    4.654697    1.839048
     44          8           0       -5.618737    4.673576    2.259969
     45          8           0       -3.801516    5.757364    1.293189
     46          6           0       -4.623629    6.979103    1.143251
     47          6           0        2.537128    4.911950   -1.199038
     48          6           0        3.263829    3.563043   -1.058367
     49          6           0        4.533243    3.167277   -0.636950
     50          6           0        5.583300    4.177908   -0.334898
     51          6           0        4.920558    1.652831   -0.520298
     52          6           0        6.140011    1.166686   -1.507171
     53          6           0        5.765132   -0.109782   -2.321467
     54          6           0        7.128910   -0.824684   -2.682978
     55          6           0        6.990403   -1.434565   -4.102987
     56          6           0        7.399431   -1.941237   -1.639248
     57          6           0        8.915233   -1.950850   -1.156418
     58          6           0        9.096444   -1.737813    0.341022
     59          6           0       10.132664   -2.814037    0.981381
     60          6           0        9.187775   -3.999587    1.314345
     61          6           0       10.921395   -2.142726    2.132399
     62          6           0       11.823326   -0.990779    1.673275
     63          6           0       13.212629   -1.007289    2.257934
     64          6           0       14.300923   -1.395452    1.129573
     65          6           0       14.467485   -0.224857    0.037690
     66          6           0       15.652948   -1.531161    1.894762
     67          1           0       -4.016437    0.368468   -4.227040
     68          1           0       -5.642950   -5.016498   -1.111309
     69          1           0       -4.904121   -2.121398    4.471715
     70          1           0       -3.809214    4.141451   -1.294209
     71          1           0       -2.655275    2.422620   -3.454149
     72          1           0       -5.491036    2.499561   -3.880523
     73          1           0       -4.127667    3.439751   -4.485291
     74          1           0       -5.105797    3.989613   -3.176373
     75          1           0       -1.216546    2.939520   -1.873770
     76          1           0       -1.607360    3.104230   -0.089579
     77          1           0       -1.422119    5.435575   -0.092406
     78          1           0       -1.979011    5.495216   -1.768622
     79          1           0       -3.858311   -2.951965   -5.898585
     80          1           0       -3.629041   -1.230782   -5.594367
     81          1           0       -5.240226   -1.864795   -5.905059
     82          1           0       -5.512054   -6.542950   -2.854963
     83          1           0       -6.734143   -6.419046   -4.073504
     84          1           0       -6.967317   -5.439338   -2.604263
     85          1           0       -4.708650   -5.777866    1.300657
     86          1           0       -6.242218   -4.245588    3.458390
     87          1           0       -6.652624   -6.882971    1.155389
     88          1           0       -7.400960   -5.438867    0.731162
     89          1           0       -7.433896   -5.743489    2.401549
     90          1           0       -3.471163   -4.053645    4.212619
     91          1           0       -3.528351   -5.391231    3.036828
     92          1           0       -5.686340   -5.726248    4.885028
     93          1           0       -4.520182   -4.926423    5.838174
     94          1           0       -4.142268   -6.493126    4.979599
     95          1           0       -5.030050   -0.169402    6.089920
     96          1           0       -4.406776    1.437699    6.062125
     97          1           0       -3.253606    0.012234    5.893164
     98          1           0       -2.518192    3.936627    1.792061
     99          1           0       -5.693060    6.766566    1.180266
    100          1           0       -4.409787    7.448027    0.182727
    101          1           0       -4.456594    7.670713    1.968869
    102          1           0        3.027974    5.701407   -0.630165
    103          1           0        2.591631    5.103634   -2.270715
    104          1           0        2.651022    2.663262   -1.107853
    105          1           0        6.531166    3.845951   -0.756258
    106          1           0        5.684090    4.354660    0.736236
    107          1           0        5.275645    5.107728   -0.813119
    108          1           0        4.007202    1.115449   -0.773269
    109          1           0        5.258317    1.404494    0.485575
    110          1           0        6.942893    0.934447   -0.808330
    111          1           0        6.383890    1.976592   -2.195450
    112          1           0        5.282470    0.187255   -3.252847
    113          1           0        5.108075   -0.794727   -1.786121
    114          1           0        7.977044   -0.156521   -2.829837
    115          1           0        5.942360   -1.663558   -4.297121
    116          1           0        7.527673   -2.382011   -4.125607
    117          1           0        7.269091   -0.665550   -4.823425
    118          1           0        7.283695   -2.924443   -2.096337
    119          1           0        6.716729   -1.794194   -0.802156
    120          1           0        9.542128   -1.263448   -1.724737
    121          1           0        9.365866   -2.896743   -1.455205
    122          1           0        8.123774   -1.701133    0.830856
    123          1           0        9.391762   -0.731127    0.637314
    124          1           0       10.847071   -3.040963    0.190099
    125          1           0        9.312691   -4.348013    2.339840
    126          1           0        9.485482   -4.746315    0.578344
    127          1           0        8.136638   -3.718600    1.247867
    128          1           0       11.378291   -2.933571    2.727321
    129          1           0       10.112253   -1.739897    2.741911
    130          1           0       11.295268   -0.118313    2.058708
    131          1           0       11.809056   -0.944275    0.584332
    132          1           0       13.235982   -1.742314    3.062479
    133          1           0       13.465083   -0.121318    2.840715
    134          1           0       14.161608   -2.331236    0.588435
    135          1           0       14.410846   -0.572845   -0.993269
    136          1           0       15.289878    0.452671    0.262485
    137          1           0       13.608901    0.444066    0.105237
    138          1           0       15.505120   -1.307371    2.951140
    139          1           0       16.395255   -0.757522    1.697410
    140          1           0       15.999661   -2.553887    1.747456
 ---------------------------------------------------------------------

 SCF Done:  E(RZINDO/S) =  -474.346727356     A.U. after   20 cycles

 Excitation energies and oscillator strengths:

 Excited State   1:      Singlet-A      1.2997 eV  953.92 nm  f=0.5761  <S**2>=0.000
     175 ->178         0.19983
     176 ->177         0.66100
 This state for optimization and/or second-order correction.
 Total Energy, E(CIS/TDA) =  -474.298963049
 Copying the excited state density for this state as the 1-particle RhoCI density.

 Excited State   2:      Singlet-A      1.9460 eV  637.11 nm  f=0.0312  <S**2>=0.000
     175 ->177         0.52918
     176 ->178        -0.44606

 Excited State   3:      Singlet-A      2.8087 eV  441.43 nm  f=0.0001  <S**2>=0.000
     170 ->177         0.30943
     170 ->178         0.10061
     170 ->179        -0.36928
     170 ->182         0.20449
     170 ->183        -0.15106
     170 ->186        -0.17375
     170 ->187         0.13567
     172 ->177         0.12963
     172 ->179        -0.11643
     173 ->177         0.15861
     173 ->179        -0.12154

 Excited State   4:      Singlet-A      2.9815 eV  415.85 nm  f=0.0021  <S**2>=0.000
     168 ->177         0.20940
     168 ->178         0.10469
     168 ->179         0.21752
     168 ->182         0.24497
     168 ->186         0.17394
     169 ->177         0.22434
     169 ->178         0.10568
     169 ->179         0.21207
     169 ->182         0.24714
     169 ->186         0.16909

 Excited State   5:      Singlet-A      3.0473 eV  406.87 nm  f=0.0574  <S**2>=0.000
     176 ->179         0.33965
     176 ->180         0.58308

 The electronic state is 1-A.
 Alpha  occ. eigenvalues --   -1.89020  -1.85870  -1.81699  -1.73553  -1.71846
 Alpha  occ. eigenvalues --   -1.70122  -1.64538  -1.60306  -1.59661  -1.59470
 Alpha  occ. eigenvalues --   -1.52644  -1.51524  -1.49846  -1.47673  -1.46714
 Alpha  occ. eigenvalues --   -1.43196  -1.42664  -1.41863  -1.40035  -1.37450
 Alpha  occ. eigenvalues --   -1.37111  -1.32519  -1.31883  -1.30791  -1.29446
 Alpha  occ. eigenvalues --   -1.28589  -1.27100  -1.24721  -1.20282  -1.18559
 Alpha  occ. eigenvalues --   -1.18066  -1.15742  -1.15619  -1.13949  -1.13468
 Alpha  occ. eigenvalues --   -1.12998  -1.09502  -1.09269  -1.05866  -1.04608
 Alpha  occ. eigenvalues --   -1.02607  -1.02101  -0.99286  -0.98790  -0.96251
 Alpha  occ. eigenvalues --   -0.96150  -0.95227  -0.93838  -0.93384  -0.92318
 Alpha  occ. eigenvalues --   -0.92007  -0.90813  -0.90310  -0.88951  -0.87849
 Alpha  occ. eigenvalues --   -0.86936  -0.84647  -0.83717  -0.82532  -0.80728
 Alpha  occ. eigenvalues --   -0.79925  -0.78492  -0.77651  -0.77070  -0.76137
 Alpha  occ. eigenvalues --   -0.75594  -0.75245  -0.74635  -0.74213  -0.74135
 Alpha  occ. eigenvalues --   -0.73006  -0.72962  -0.72417  -0.72215  -0.71113
 Alpha  occ. eigenvalues --   -0.70226  -0.69814  -0.68872  -0.68756  -0.68081
 Alpha  occ. eigenvalues --   -0.67878  -0.66941  -0.66602  -0.66429  -0.65851
 Alpha  occ. eigenvalues --   -0.65498  -0.64682  -0.64371  -0.64074  -0.63678
 Alpha  occ. eigenvalues --   -0.63264  -0.63080  -0.62847  -0.62347  -0.62247
 Alpha  occ. eigenvalues --   -0.61693  -0.61103  -0.60963  -0.60404  -0.59922
 Alpha  occ. eigenvalues --   -0.59794  -0.59517  -0.59365  -0.58645  -0.58412
 Alpha  occ. eigenvalues --   -0.58243  -0.57873  -0.57382  -0.57148  -0.56587
 Alpha  occ. eigenvalues --   -0.56289  -0.55928  -0.55353  -0.55186  -0.54546
 Alpha  occ. eigenvalues --   -0.54222  -0.53852  -0.53746  -0.53289  -0.53037
 Alpha  occ. eigenvalues --   -0.52601  -0.52380  -0.52230  -0.52180  -0.52010
 Alpha  occ. eigenvalues --   -0.51560  -0.50833  -0.50588  -0.50210  -0.50142
 Alpha  occ. eigenvalues --   -0.49819  -0.49722  -0.49673  -0.49519  -0.49422
 Alpha  occ. eigenvalues --   -0.49196  -0.48804  -0.48561  -0.48294  -0.48015
 Alpha  occ. eigenvalues --   -0.47835  -0.47640  -0.47429  -0.47367  -0.46804
 Alpha  occ. eigenvalues --   -0.46592  -0.46158  -0.46019  -0.45893  -0.45559
 Alpha  occ. eigenvalues --   -0.45266  -0.45089  -0.44919  -0.44144  -0.43987
 Alpha  occ. eigenvalues --   -0.43323  -0.43022  -0.42954  -0.42797  -0.41564
 Alpha  occ. eigenvalues --   -0.41299  -0.40938  -0.40753  -0.39532  -0.38810
 Alpha  occ. eigenvalues --   -0.38345  -0.37120  -0.35794  -0.35336  -0.33916
 Alpha  occ. eigenvalues --   -0.33381  -0.32812  -0.32060  -0.31477  -0.27018
 Alpha  occ. eigenvalues --   -0.22268
 Alpha virt. eigenvalues --   -0.08657  -0.02717  -0.00716   0.00582   0.01332
 Alpha virt. eigenvalues --    0.01396   0.02385   0.02866   0.04172   0.04540
 Alpha virt. eigenvalues --    0.06028   0.06733   0.07083   0.07327   0.07999

 Mulliken charges:
               1
     1  Mg   0.434425
     2  C   -0.039515
     3  C   -0.082119
     4  C   -0.077558
     5  C   -0.084652
     6  N   -0.270806
     7  C    0.104888
     8  C    0.009072
     9  C    0.009027
    10  C    0.148377
    11  C   -0.052711
    12  C   -0.021909
    13  C    0.007892
    14  C    0.464948
    15  O   -0.527796
    16  O   -0.286579
    17  N   -0.348051
    18  C    0.122223
    19  C    0.043549
    20  C   -0.063314
    21  C    0.131770
    22  C   -0.038538
    23  C    0.331949
    24  O   -0.520686
    25  C   -0.025126
    26  N   -0.243229
    27  C    0.152999
    28  C    0.001371
    29  C    0.008476
    30  C    0.108667
    31  C   -0.058936
    32  C   -0.033318
    33  C   -0.056819
    34  N   -0.306927
    35  C    0.101873
    36  C    0.010029
    37  C   -0.035767
    38  C    0.106432
    39  C   -0.033486
    40  C    0.326506
    41  O   -0.560505
    42  C    0.055528
    43  C    0.493737
    44  O   -0.526384
    45  O   -0.276837
    46  C    0.072389
    47  C    0.125867
    48  C   -0.103354
    49  C   -0.013303
    50  C   -0.042393
    51  C   -0.035060
    52  C   -0.040503
    53  C   -0.034031
    54  C   -0.024237
    55  C   -0.065877
    56  C   -0.037864
    57  C   -0.040386
    58  C   -0.045475
    59  C   -0.022889
    60  C   -0.057366
    61  C   -0.033943
    62  C   -0.030162
    63  C   -0.028146
    64  C   -0.019221
    65  C   -0.067571
    66  C   -0.068678
    67  H    0.031132
    68  H    0.010655
    69  H    0.029387
    70  H    0.039743
    71  H    0.041193
    72  H    0.030698
    73  H    0.012151
    74  H    0.018926
    75  H    0.033235
    76  H    0.029780
    77  H    0.051628
    78  H    0.034007
    79  H    0.044718
    80  H    0.017437
    81  H    0.034724
    82  H    0.049452
    83  H    0.034160
    84  H    0.036254
    85  H    0.040352
    86  H    0.037784
    87  H    0.025255
    88  H    0.009052
    89  H    0.032341
    90  H    0.030574
    91  H    0.021930
    92  H    0.010117
    93  H    0.022331
    94  H    0.017170
    95  H    0.025276
    96  H    0.041069
    97  H    0.037185
    98  H    0.056329
    99  H    0.049002
   100  H    0.032665
   101  H    0.045130
   102  H    0.047842
   103  H    0.056470
   104  H    0.020179
   105  H    0.024379
   106  H    0.033416
   107  H    0.020633
   108  H    0.023194
   109  H    0.029853
   110  H    0.024388
   111  H    0.030854
   112  H    0.018494
   113  H    0.029150
   114  H    0.030309
   115  H    0.012344
   116  H    0.022343
   117  H    0.019800
   118  H    0.022660
   119  H    0.025778
   120  H    0.018080
   121  H    0.013375
   122  H    0.017016
   123  H    0.009321
   124  H    0.023192
   125  H    0.016317
   126  H    0.021475
   127  H    0.025386
   128  H    0.019718
   129  H    0.011831
   130  H    0.012736
   131  H    0.027322
   132  H    0.012418
   133  H    0.026781
   134  H    0.035311
   135  H    0.024500
   136  H    0.027514
   137  H    0.007378
   138  H    0.012704
   139  H    0.021968
   140  H    0.020762
 Sum of Mulliken charges =  -0.00000

 Dipole moment (field-independent basis, Debye):
    X=             -0.4143    Y=             -6.4703    Z=             -0.5370  Tot=              6.5057
 N-N= 4.321182862260D+03 E-N= 0.000000000000D+00  KE=-9.316018114048D+03
 Leave Link  601 at Wed May  4 19:48:12 2022, MaxMem=  6710886400 cpu:               0.8 elap:               0.0
 (Enter /sw/apps/gaussian-16.0/g16/l9999.exe)
 1\1\GINC-BP1-COMPUTE100\SP\RZINDO CIS\STO-3G\C55H74Mg1N4O6\OF15641\04-
 May-2022\0\\#p ZINDO=(nstates=5)\\step_351_chromophore_8 ZINDO\\0,1\Mg
 ,0,45.623,3.48,47.863\C,0,43.492,6.158,47.082\C,0,42.726,1.466,47.498\
 C,0,47.56,0.865,48.012\C,0,48.322,5.512,47.217\N,0,43.293,3.818,47.534
 \C,0,42.753,4.97,47.123\C,0,41.214,4.791,46.826\C,0,40.991,3.285,47.07
 9\C,0,42.453,2.826,47.312\C,0,40.208,2.979,48.36\C,0,40.957,5.205,45.3
 77\C,0,39.727,6.15,45.125\C,0,38.901,6.054,43.829\O,0,37.693,5.747,43.

 Normal termination of Gaussian 16 at Wed May  4 19:48:12 2022.
