 Gaussian 16, Revision A.03,
 Gaussian 16:  ES64L-G16RevA.03 25-Dec-2016

 ------------------------------
 #p blyp/Def2SVP td=(nstates=5)
 ------------------------------

 -------------------------------------------------
 step_251_chromophore_7 TDDFT with blyp functional
 -------------------------------------------------
 Symbolic Z-matrix:
 Charge =  0 Multiplicity = 1

                         Standard orientation:
 ---------------------------------------------------------------------
 Center     Atomic      Atomic             Coordinates (Angstroms)
 Number     Number       Type             X           Y           Z
 ---------------------------------------------------------------------
      1         12           0        6.082694    0.386765    0.234085
      2          6           0        3.578387   -2.102645    0.016750
      3          6           0        3.730151    2.742946   -0.674555
      4          6           0        8.557758    2.699946    0.164265
      5          6           0        8.479251   -2.071062    0.944720
      6          7           0        3.954270    0.209767   -0.349438
      7          6           0        3.075772   -0.853889   -0.157303
      8          6           0        1.579684   -0.429355   -0.455477
      9          6           0        1.754570    1.037834   -0.930120
     10          6           0        3.245793    1.368685   -0.697330
     11          6           0        1.329053    1.397254   -2.402834
     12          6           0        0.518038   -0.718706    0.683331
     13          6           0       -0.608543   -1.625804    0.290455
     14          6           0       -2.023300   -1.281098    0.903751
     15          8           0       -2.199501   -0.447815    1.817752
     16          8           0       -3.086001   -2.022110    0.432737
     17          7           0        6.085981    2.381407   -0.202249
     18          6           0        5.025308    3.215960   -0.490760
     19          6           0        5.519536    4.564572   -0.720289
     20          6           0        6.923103    4.608211   -0.486000
     21          6           0        7.260606    3.181270   -0.128726
     22          6           0        4.612611    5.780645   -0.996553
     23          6           0        7.890621    5.786705   -0.525485
     24          8           0        9.062390    5.709922   -0.218182
     25          6           0        7.468644    7.274542   -0.866456
     26          7           0        8.257282    0.297059    0.425527
     27          6           0        9.028058    1.374795    0.360170
     28          6           0       10.540651    1.033381    0.608388
     29          6           0       10.477313   -0.481322    1.053241
     30          6           0        8.967321   -0.792155    0.823917
     31          6           0       11.428783    1.394579   -0.617257
     32          6           0       10.993731   -0.685450    2.463765
     33          6           0       11.871122   -1.924495    2.633117
     34          7           0        6.164661   -1.692699    0.325887
     35          6           0        7.170634   -2.554949    0.717930
     36          6           0        6.658065   -3.885840    0.606080
     37          6           0        5.262227   -3.788405    0.382773
     38          6           0        4.975311   -2.406274    0.204547
     39          6           0        7.431423   -5.135906    0.792181
     40          6           0        4.006374   -4.555068    0.306886
     41          8           0        3.764454   -5.758211    0.278304
     42          6           0        2.797773   -3.358920    0.087400
     43          6           0        2.064733   -3.629773   -1.109756
     44          8           0        2.190930   -3.019135   -2.148970
     45          8           0        1.101403   -4.587574   -0.887084
     46          6           0        0.351896   -4.942466   -2.117934
     47          6           0       -4.507943   -1.924399    0.842153
     48          6           0       -5.228588   -1.713263   -0.477879
     49          6           0       -5.769491   -0.607726   -1.113550
     50          6           0       -5.308014    0.798797   -0.773132
     51          6           0       -6.713996   -0.742425   -2.221673
     52          6           0       -8.104862   -0.856746   -1.799070
     53          6           0       -9.006041    0.433227   -2.135498
     54          6           0      -10.386146    0.310839   -2.922487
     55          6           0      -10.366935    1.097335   -4.195258
     56          6           0      -11.675704    0.670809   -2.112872
     57          6           0      -12.209009   -0.487776   -1.174992
     58          6           0      -12.880082    0.039153    0.079923
     59          6           0      -14.233554   -0.622949    0.318793
     60          6           0      -15.394193   -0.237253   -0.676450
     61          6           0      -14.636464   -0.351331    1.826206
     62          6           0      -14.494422    1.124057    2.353920
     63          6           0      -13.422420    1.193059    3.437253
     64          6           0      -12.579788    2.534658    3.275700
     65          6           0      -11.395170    2.394508    2.422234
     66          6           0      -12.136833    3.239378    4.616348
     67          1           0        2.997934    3.536738   -0.837609
     68          1           0        9.399976    3.392005    0.108246
     69          1           0        9.269636   -2.757833    1.256801
     70          1           0        1.338770   -0.946622   -1.383559
     71          1           0        1.187799    1.717712   -0.293939
     72          1           0        0.840171    2.370811   -2.355349
     73          1           0        0.660810    0.617765   -2.768002
     74          1           0        2.159378    1.472406   -3.105262
     75          1           0        0.161540    0.258043    1.010692
     76          1           0        1.053814   -1.219325    1.490001
     77          1           0       -0.386144   -2.645711    0.606932
     78          1           0       -0.613685   -1.564690   -0.797453
     79          1           0        4.711528    6.410616   -0.113268
     80          1           0        3.571705    5.456749   -0.980083
     81          1           0        4.871461    6.378669   -1.871201
     82          1           0        6.686809    7.569349   -0.165679
     83          1           0        7.321826    7.438454   -1.934424
     84          1           0        8.393709    7.843460   -0.778188
     85          1           0       10.972078    1.563334    1.457340
     86          1           0       11.039153   -1.034412    0.300302
     87          1           0       12.036823    0.524681   -0.867202
     88          1           0       12.020659    2.298580   -0.471642
     89          1           0       10.795160    1.612166   -1.475508
     90          1           0       10.186983   -0.729838    3.194665
     91          1           0       11.564678    0.156720    2.857823
     92          1           0       11.840216   -2.559114    1.747392
     93          1           0       11.445345   -2.486423    3.464887
     94          1           0       12.884010   -1.677845    2.951820
     95          1           0        8.493625   -5.039810    1.016900
     96          1           0        7.130448   -5.799786   -0.019134
     97          1           0        7.110983   -5.468725    1.779716
     98          1           0        2.122929   -3.377265    0.943648
     99          1           0        1.039525   -5.326999   -2.871519
    100          1           0       -0.197888   -4.045653   -2.403410
    101          1           0       -0.368582   -5.744048   -1.959949
    102          1           0       -4.601473   -1.071435    1.515090
    103          1           0       -4.877774   -2.823109    1.336784
    104          1           0       -5.655811   -2.646972   -0.843081
    105          1           0       -4.870492    0.776574    0.225261
    106          1           0       -6.201000    1.424167   -0.768516
    107          1           0       -4.607410    1.166532   -1.523355
    108          1           0       -6.575519   -1.646866   -2.813795
    109          1           0       -6.475816    0.187915   -2.739140
    110          1           0       -8.130001   -1.122057   -0.741964
    111          1           0       -8.513374   -1.687489   -2.374649
    112          1           0       -8.498404    1.260500   -2.632877
    113          1           0       -9.360515    0.755030   -1.155757
    114          1           0      -10.346542   -0.763977   -3.093328
    115          1           0      -10.953452    0.443660   -4.841104
    116          1           0       -9.385340    1.452121   -4.511142
    117          1           0      -10.975495    1.999180   -4.126036
    118          1           0      -12.468197    0.877720   -2.832633
    119          1           0      -11.438009    1.530814   -1.487030
    120          1           0      -11.419077   -1.206691   -0.956140
    121          1           0      -12.990559   -0.963745   -1.765690
    122          1           0      -13.126213    1.094719   -0.029423
    123          1           0      -12.191144   -0.104852    0.913136
    124          1           0      -14.053885   -1.688884    0.175679
    125          1           0      -15.830843   -0.973322   -1.351960
    126          1           0      -15.155065    0.659442   -1.248084
    127          1           0      -16.228854    0.069245   -0.046239
    128          1           0      -13.987677   -1.009759    2.404355
    129          1           0      -15.653368   -0.726224    1.949836
    130          1           0      -15.445842    1.201729    2.880013
    131          1           0      -14.304714    1.912337    1.626081
    132          1           0      -12.815588    0.290124    3.504351
    133          1           0      -13.894347    1.262428    4.417213
    134          1           0      -13.208962    3.347844    2.913747
    135          1           0      -10.965275    3.372133    2.203947
    136          1           0      -11.626099    1.911584    1.472201
    137          1           0      -10.652885    1.870026    3.025064
    138          1           0      -11.054475    3.363637    4.634033
    139          1           0      -12.454784    2.599923    5.440244
    140          1           0      -12.602788    4.223130    4.687569
 ---------------------------------------------------------------------

 SCF Done:  E(RB-LYP) =  -3007.36298174     A.U. after   21 cycles

 Excitation energies and oscillator strengths:

 Excited State   1:      Singlet-A      1.8067 eV  686.25 nm  f=0.2897  <S**2>=0.000
     245 -> 248        0.18446
     246 -> 247        0.68674
     246 <- 247       -0.14064
 This state for optimization and/or second-order correction.
 Total Energy, E(TD-HF/TD-DFT) =  -3007.29658735
 Copying the excited state density for this state as the 1-particle RhoCI density.

 Excited State   2:      Singlet-A      2.0023 eV  619.20 nm  f=0.0281  <S**2>=0.000
     244 -> 247        0.55750
     245 -> 247        0.40067
     246 -> 248       -0.13833

 Excited State   3:      Singlet-A      2.0256 eV  612.08 nm  f=0.0531  <S**2>=0.000
     244 -> 247       -0.43360
     245 -> 247        0.50711
     246 -> 248       -0.18051

 Excited State   4:      Singlet-A      2.1169 eV  585.69 nm  f=0.0037  <S**2>=0.000
     243 -> 247        0.69895

 Excited State   5:      Singlet-A      2.2966 eV  539.86 nm  f=0.0000  <S**2>=0.000
     241 -> 247        0.46361
     242 -> 247        0.53388

 The electronic state is 1-A.
 Alpha  occ. eigenvalues --  -46.26676 -18.81462 -18.80873 -18.76695 -18.76151
 Alpha  occ. eigenvalues --  -18.76098 -18.76024 -14.03228 -14.02844 -14.01530
 Alpha  occ. eigenvalues --  -14.00594 -10.04394 -10.02937 -10.00769 -10.00579
 Alpha  occ. eigenvalues --   -9.98518  -9.97312  -9.97290  -9.96786  -9.96326
 Alpha  occ. eigenvalues --   -9.95988  -9.95959  -9.95837  -9.95035  -9.94778
 Alpha  occ. eigenvalues --   -9.94690  -9.93943  -9.93734  -9.93660  -9.93658
 Alpha  occ. eigenvalues --   -9.93488  -9.93473  -9.93467  -9.93455  -9.93374
 Alpha  occ. eigenvalues --   -9.93340  -9.93240  -9.93086  -9.92749  -9.92449
 Alpha  occ. eigenvalues --   -9.92354  -9.92320  -9.92259  -9.92136  -9.92125
 Alpha  occ. eigenvalues --   -9.92068  -9.91997  -9.91956  -9.91940  -9.91764
 Alpha  occ. eigenvalues --   -9.91718  -9.91662  -9.91512  -9.91497  -9.91491
 Alpha  occ. eigenvalues --   -9.91426  -9.91400  -9.91311  -9.91125  -9.91097
 Alpha  occ. eigenvalues --   -9.91072  -9.91042  -9.90799  -9.90724  -9.90514
 Alpha  occ. eigenvalues --   -9.90258  -2.91299  -1.71729  -1.71182  -1.71009
 Alpha  occ. eigenvalues --   -0.97353  -0.95820  -0.92471  -0.91314  -0.89572
 Alpha  occ. eigenvalues --   -0.87811  -0.86331  -0.84764  -0.84315  -0.83449
 Alpha  occ. eigenvalues --   -0.74933  -0.74651  -0.73123  -0.72444  -0.72236
 Alpha  occ. eigenvalues --   -0.71988  -0.71133  -0.70888  -0.70354  -0.70022
 Alpha  occ. eigenvalues --   -0.69532  -0.68994  -0.68185  -0.67508  -0.67251
 Alpha  occ. eigenvalues --   -0.66629  -0.65636  -0.65056  -0.64736  -0.64488
 Alpha  occ. eigenvalues --   -0.63759  -0.62284  -0.61817  -0.61489  -0.60706
 Alpha  occ. eigenvalues --   -0.60498  -0.59883  -0.59512  -0.59490  -0.58698
 Alpha  occ. eigenvalues --   -0.58088  -0.57303  -0.56389  -0.55236  -0.54333
 Alpha  occ. eigenvalues --   -0.53812  -0.53537  -0.53019  -0.52882  -0.51642
 Alpha  occ. eigenvalues --   -0.51522  -0.50722  -0.50387  -0.50347  -0.49295
 Alpha  occ. eigenvalues --   -0.49011  -0.48942  -0.47561  -0.47545  -0.46119
 Alpha  occ. eigenvalues --   -0.45973  -0.45655  -0.45313  -0.44603  -0.44426
 Alpha  occ. eigenvalues --   -0.43924  -0.43747  -0.42991  -0.42610  -0.42285
 Alpha  occ. eigenvalues --   -0.42099  -0.41868  -0.41312  -0.41195  -0.40933
 Alpha  occ. eigenvalues --   -0.40758  -0.40684  -0.40384  -0.40250  -0.39962
 Alpha  occ. eigenvalues --   -0.39814  -0.39759  -0.39450  -0.39253  -0.39106
 Alpha  occ. eigenvalues --   -0.39051  -0.38891  -0.38689  -0.38571  -0.38314
 Alpha  occ. eigenvalues --   -0.38134  -0.37891  -0.37744  -0.37551  -0.37206
 Alpha  occ. eigenvalues --   -0.37116  -0.36881  -0.36503  -0.36343  -0.36229
 Alpha  occ. eigenvalues --   -0.36051  -0.35825  -0.35736  -0.35478  -0.35380
 Alpha  occ. eigenvalues --   -0.35354  -0.35282  -0.34917  -0.34849  -0.34707
 Alpha  occ. eigenvalues --   -0.34475  -0.34434  -0.34056  -0.33863  -0.33598
 Alpha  occ. eigenvalues --   -0.33522  -0.33449  -0.33305  -0.33202  -0.33087
 Alpha  occ. eigenvalues --   -0.32851  -0.32555  -0.32445  -0.32293  -0.32082
 Alpha  occ. eigenvalues --   -0.32000  -0.31965  -0.31871  -0.31778  -0.31458
 Alpha  occ. eigenvalues --   -0.31323  -0.31104  -0.30987  -0.30811  -0.30714
 Alpha  occ. eigenvalues --   -0.30320  -0.30075  -0.29823  -0.29603  -0.29373
 Alpha  occ. eigenvalues --   -0.29275  -0.29118  -0.29029  -0.28797  -0.28686
 Alpha  occ. eigenvalues --   -0.28575  -0.28470  -0.28335  -0.28078  -0.27541
 Alpha  occ. eigenvalues --   -0.27388  -0.27168  -0.26935  -0.26443  -0.26322
 Alpha  occ. eigenvalues --   -0.26131  -0.25984  -0.25779  -0.25283  -0.24761
 Alpha  occ. eigenvalues --   -0.24670  -0.24308  -0.24182  -0.23705  -0.23448
 Alpha  occ. eigenvalues --   -0.23114  -0.22087  -0.21786  -0.21457  -0.21007
 Alpha  occ. eigenvalues --   -0.19909  -0.19897  -0.19149  -0.18757  -0.17161
 Alpha  occ. eigenvalues --   -0.15845
 Alpha virt. eigenvalues --   -0.11463  -0.06937  -0.06302  -0.04841  -0.03665
 Alpha virt. eigenvalues --   -0.02499  -0.02406  -0.01974  -0.01202   0.00351
 Alpha virt. eigenvalues --    0.01549   0.01795   0.02672   0.02891   0.03066

 Mulliken charges:
               1
     1  Mg   0.687333
     2  C    0.046198
     3  C   -0.064356
     4  C   -0.031428
     5  C   -0.057817
     6  N   -0.244134
     7  C   -0.098689
     8  C    0.039065
     9  C   -0.059112
    10  C    0.060232
    11  C    0.127942
    12  C    0.165030
    13  C    0.071821
    14  C    0.101045
    15  O   -0.219694
    16  O   -0.286061
    17  N   -0.336025
    18  C    0.151754
    19  C   -0.151092
    20  C    0.061118
    21  C    0.131780
    22  C    0.167125
    23  C   -0.083034
    24  O   -0.151045
    25  C    0.115321
    26  N   -0.172489
    27  C   -0.008478
    28  C   -0.028329
    29  C    0.046730
    30  C   -0.016691
    31  C    0.125309
    32  C    0.104170
    33  C    0.063980
    34  N   -0.293996
    35  C    0.154701
    36  C   -0.188145
    37  C    0.085055
    38  C    0.101657
    39  C    0.188987
    40  C   -0.025345
    41  O   -0.120850
    42  C   -0.010802
    43  C    0.117099
    44  O   -0.185700
    45  O   -0.281848
    46  C    0.231720
    47  C    0.326068
    48  C   -0.073096
    49  C   -0.222606
    50  C    0.148002
    51  C    0.185158
    52  C    0.097289
    53  C    0.074392
    54  C   -0.102201
    55  C    0.129503
    56  C    0.076133
    57  C    0.107001
    58  C    0.062171
    59  C   -0.077038
    60  C    0.105317
    61  C    0.068242
    62  C    0.106827
    63  C    0.102141
    64  C   -0.124742
    65  C    0.128573
    66  C    0.091350
    67  H   -0.068031
    68  H   -0.048025
    69  H   -0.078652
    70  H   -0.003477
    71  H   -0.024721
    72  H   -0.007458
    73  H   -0.005618
    74  H    0.001906
    75  H   -0.009771
    76  H   -0.022868
    77  H    0.023116
    78  H    0.009830
    79  H    0.003592
    80  H   -0.019747
    81  H    0.015513
    82  H    0.015913
    83  H    0.002818
    84  H   -0.016635
    85  H   -0.020958
    86  H   -0.025207
    87  H   -0.012767
    88  H    0.005352
    89  H   -0.005868
    90  H   -0.025034
    91  H   -0.024427
    92  H    0.001295
    93  H   -0.015924
    94  H   -0.006185
    95  H   -0.027265
    96  H    0.024998
    97  H   -0.001472
    98  H    0.011148
    99  H    0.018467
   100  H    0.012826
   101  H    0.008976
   102  H   -0.003087
   103  H    0.002572
   104  H   -0.052847
   105  H   -0.001173
   106  H   -0.008865
   107  H    0.016169
   108  H   -0.027364
   109  H   -0.033620
   110  H   -0.021910
   111  H   -0.031083
   112  H   -0.033368
   113  H   -0.038876
   114  H   -0.046460
   115  H   -0.010650
   116  H   -0.014505
   117  H   -0.024016
   118  H   -0.028164
   119  H   -0.019112
   120  H   -0.024958
   121  H   -0.038959
   122  H   -0.016367
   123  H   -0.014014
   124  H   -0.044321
   125  H   -0.006393
   126  H   -0.023281
   127  H   -0.029659
   128  H   -0.034024
   129  H   -0.038268
   130  H   -0.031040
   131  H   -0.002016
   132  H   -0.028367
   133  H   -0.044120
   134  H   -0.038726
   135  H   -0.027470
   136  H   -0.027375
   137  H   -0.019053
   138  H   -0.024588
   139  H   -0.021089
   140  H   -0.013692
 Sum of Mulliken charges =  -0.00000

 Dipole moment (field-independent basis, Debye):
    X=             -2.6262    Y=              2.0954    Z=             -0.5863  Tot=              3.4105
 Quadrupole moment (field-independent basis, Debye-Ang):
   XX=           -362.0495   YY=           -416.1979   ZZ=           -406.7237
   XY=             -2.4125   XZ=             18.3853   YZ=             -5.4252

 Normal termination of Gaussian 16 at Fri Apr 29 11:40:05 2022.
