 Gaussian 16, Revision A.03,
 Gaussian 16:  ES64L-G16RevA.03 25-Dec-2016

 -----------------------------------
 #p cam-b3lyp/Def2SVP td=(nstates=5)
 -----------------------------------

 ------------------------------------------------------
 step_251_chromophore_7 TDDFT with cam-b3lyp functional
 ------------------------------------------------------
 Symbolic Z-matrix:
 Charge =  0 Multiplicity = 1

                         Standard orientation:
 ---------------------------------------------------------------------
 Center     Atomic      Atomic             Coordinates (Angstroms)
 Number     Number       Type             X           Y           Z
 ---------------------------------------------------------------------
      1         12           0        6.082694    0.386765    0.234085
      2          6           0        3.578387   -2.102645    0.016750
      3          6           0        3.730151    2.742946   -0.674555
      4          6           0        8.557758    2.699946    0.164265
      5          6           0        8.479251   -2.071062    0.944720
      6          7           0        3.954270    0.209767   -0.349438
      7          6           0        3.075772   -0.853889   -0.157303
      8          6           0        1.579684   -0.429355   -0.455477
      9          6           0        1.754570    1.037834   -0.930120
     10          6           0        3.245793    1.368685   -0.697330
     11          6           0        1.329053    1.397254   -2.402834
     12          6           0        0.518038   -0.718706    0.683331
     13          6           0       -0.608543   -1.625804    0.290455
     14          6           0       -2.023300   -1.281098    0.903751
     15          8           0       -2.199501   -0.447815    1.817752
     16          8           0       -3.086001   -2.022110    0.432737
     17          7           0        6.085981    2.381407   -0.202249
     18          6           0        5.025308    3.215960   -0.490760
     19          6           0        5.519536    4.564572   -0.720289
     20          6           0        6.923103    4.608211   -0.486000
     21          6           0        7.260606    3.181270   -0.128726
     22          6           0        4.612611    5.780645   -0.996553
     23          6           0        7.890621    5.786705   -0.525485
     24          8           0        9.062390    5.709922   -0.218182
     25          6           0        7.468644    7.274542   -0.866456
     26          7           0        8.257282    0.297059    0.425527
     27          6           0        9.028058    1.374795    0.360170
     28          6           0       10.540651    1.033381    0.608388
     29          6           0       10.477313   -0.481322    1.053241
     30          6           0        8.967321   -0.792155    0.823917
     31          6           0       11.428783    1.394579   -0.617257
     32          6           0       10.993731   -0.685450    2.463765
     33          6           0       11.871122   -1.924495    2.633117
     34          7           0        6.164661   -1.692699    0.325887
     35          6           0        7.170634   -2.554949    0.717930
     36          6           0        6.658065   -3.885840    0.606080
     37          6           0        5.262227   -3.788405    0.382773
     38          6           0        4.975311   -2.406274    0.204547
     39          6           0        7.431423   -5.135906    0.792181
     40          6           0        4.006374   -4.555068    0.306886
     41          8           0        3.764454   -5.758211    0.278304
     42          6           0        2.797773   -3.358920    0.087400
     43          6           0        2.064733   -3.629773   -1.109756
     44          8           0        2.190930   -3.019135   -2.148970
     45          8           0        1.101403   -4.587574   -0.887084
     46          6           0        0.351896   -4.942466   -2.117934
     47          6           0       -4.507943   -1.924399    0.842153
     48          6           0       -5.228588   -1.713263   -0.477879
     49          6           0       -5.769491   -0.607726   -1.113550
     50          6           0       -5.308014    0.798797   -0.773132
     51          6           0       -6.713996   -0.742425   -2.221673
     52          6           0       -8.104862   -0.856746   -1.799070
     53          6           0       -9.006041    0.433227   -2.135498
     54          6           0      -10.386146    0.310839   -2.922487
     55          6           0      -10.366935    1.097335   -4.195258
     56          6           0      -11.675704    0.670809   -2.112872
     57          6           0      -12.209009   -0.487776   -1.174992
     58          6           0      -12.880082    0.039153    0.079923
     59          6           0      -14.233554   -0.622949    0.318793
     60          6           0      -15.394193   -0.237253   -0.676450
     61          6           0      -14.636464   -0.351331    1.826206
     62          6           0      -14.494422    1.124057    2.353920
     63          6           0      -13.422420    1.193059    3.437253
     64          6           0      -12.579788    2.534658    3.275700
     65          6           0      -11.395170    2.394508    2.422234
     66          6           0      -12.136833    3.239378    4.616348
     67          1           0        2.997934    3.536738   -0.837609
     68          1           0        9.399976    3.392005    0.108246
     69          1           0        9.269636   -2.757833    1.256801
     70          1           0        1.338770   -0.946622   -1.383559
     71          1           0        1.187799    1.717712   -0.293939
     72          1           0        0.840171    2.370811   -2.355349
     73          1           0        0.660810    0.617765   -2.768002
     74          1           0        2.159378    1.472406   -3.105262
     75          1           0        0.161540    0.258043    1.010692
     76          1           0        1.053814   -1.219325    1.490001
     77          1           0       -0.386144   -2.645711    0.606932
     78          1           0       -0.613685   -1.564690   -0.797453
     79          1           0        4.711528    6.410616   -0.113268
     80          1           0        3.571705    5.456749   -0.980083
     81          1           0        4.871461    6.378669   -1.871201
     82          1           0        6.686809    7.569349   -0.165679
     83          1           0        7.321826    7.438454   -1.934424
     84          1           0        8.393709    7.843460   -0.778188
     85          1           0       10.972078    1.563334    1.457340
     86          1           0       11.039153   -1.034412    0.300302
     87          1           0       12.036823    0.524681   -0.867202
     88          1           0       12.020659    2.298580   -0.471642
     89          1           0       10.795160    1.612166   -1.475508
     90          1           0       10.186983   -0.729838    3.194665
     91          1           0       11.564678    0.156720    2.857823
     92          1           0       11.840216   -2.559114    1.747392
     93          1           0       11.445345   -2.486423    3.464887
     94          1           0       12.884010   -1.677845    2.951820
     95          1           0        8.493625   -5.039810    1.016900
     96          1           0        7.130448   -5.799786   -0.019134
     97          1           0        7.110983   -5.468725    1.779716
     98          1           0        2.122929   -3.377265    0.943648
     99          1           0        1.039525   -5.326999   -2.871519
    100          1           0       -0.197888   -4.045653   -2.403410
    101          1           0       -0.368582   -5.744048   -1.959949
    102          1           0       -4.601473   -1.071435    1.515090
    103          1           0       -4.877774   -2.823109    1.336784
    104          1           0       -5.655811   -2.646972   -0.843081
    105          1           0       -4.870492    0.776574    0.225261
    106          1           0       -6.201000    1.424167   -0.768516
    107          1           0       -4.607410    1.166532   -1.523355
    108          1           0       -6.575519   -1.646866   -2.813795
    109          1           0       -6.475816    0.187915   -2.739140
    110          1           0       -8.130001   -1.122057   -0.741964
    111          1           0       -8.513374   -1.687489   -2.374649
    112          1           0       -8.498404    1.260500   -2.632877
    113          1           0       -9.360515    0.755030   -1.155757
    114          1           0      -10.346542   -0.763977   -3.093328
    115          1           0      -10.953452    0.443660   -4.841104
    116          1           0       -9.385340    1.452121   -4.511142
    117          1           0      -10.975495    1.999180   -4.126036
    118          1           0      -12.468197    0.877720   -2.832633
    119          1           0      -11.438009    1.530814   -1.487030
    120          1           0      -11.419077   -1.206691   -0.956140
    121          1           0      -12.990559   -0.963745   -1.765690
    122          1           0      -13.126213    1.094719   -0.029423
    123          1           0      -12.191144   -0.104852    0.913136
    124          1           0      -14.053885   -1.688884    0.175679
    125          1           0      -15.830843   -0.973322   -1.351960
    126          1           0      -15.155065    0.659442   -1.248084
    127          1           0      -16.228854    0.069245   -0.046239
    128          1           0      -13.987677   -1.009759    2.404355
    129          1           0      -15.653368   -0.726224    1.949836
    130          1           0      -15.445842    1.201729    2.880013
    131          1           0      -14.304714    1.912337    1.626081
    132          1           0      -12.815588    0.290124    3.504351
    133          1           0      -13.894347    1.262428    4.417213
    134          1           0      -13.208962    3.347844    2.913747
    135          1           0      -10.965275    3.372133    2.203947
    136          1           0      -11.626099    1.911584    1.472201
    137          1           0      -10.652885    1.870026    3.025064
    138          1           0      -11.054475    3.363637    4.634033
    139          1           0      -12.454784    2.599923    5.440244
    140          1           0      -12.602788    4.223130    4.687569
 ---------------------------------------------------------------------

 SCF Done:  E(RCAM-B3LYP) =  -3007.14573965     A.U. after   18 cycles

 Excitation energies and oscillator strengths:

 Excited State   1:      Singlet-A      1.7849 eV  694.64 nm  f=0.3654  <S**2>=0.000
     245 -> 248        0.17638
     246 -> 247        0.68530
     245 <- 248        0.10131
 This state for optimization and/or second-order correction.
 Total Energy, E(TD-HF/TD-DFT) =  -3007.08014717
 Copying the excited state density for this state as the 1-particle RhoCI density.

 Excited State   2:      Singlet-A      2.2584 eV  548.98 nm  f=0.1209  <S**2>=0.000
     245 -> 247        0.63995
     246 -> 248       -0.28350

 Excited State   3:      Singlet-A      3.3936 eV  365.35 nm  f=0.0102  <S**2>=0.000
     241 -> 247       -0.19539
     244 -> 247        0.66467

 Excited State   4:      Singlet-A      3.5212 eV  352.11 nm  f=0.4180  <S**2>=0.000
     239 -> 247        0.17931
     241 -> 247        0.29642
     244 -> 247        0.11014
     245 -> 247        0.21153
     246 -> 248        0.54952

 Excited State   5:      Singlet-A      3.5654 eV  347.75 nm  f=0.0332  <S**2>=0.000
     240 -> 247        0.54027
     240 -> 248       -0.15662
     240 -> 249        0.31746
     240 -> 250        0.18385
     246 -> 248       -0.13655

 The electronic state is 1-A.
 Alpha  occ. eigenvalues --  -46.88125 -19.24329 -19.23655 -19.19790 -19.19312
 Alpha  occ. eigenvalues --  -19.19200 -19.19000 -14.42159 -14.41659 -14.40232
 Alpha  occ. eigenvalues --  -14.38621 -10.39797 -10.38296 -10.36307 -10.35925
 Alpha  occ. eigenvalues --  -10.32682 -10.32411 -10.31879 -10.31215 -10.31176
 Alpha  occ. eigenvalues --  -10.31023 -10.30088 -10.30065 -10.29710 -10.28764
 Alpha  occ. eigenvalues --  -10.28558 -10.28394 -10.27964 -10.27887 -10.27882
 Alpha  occ. eigenvalues --  -10.27709 -10.27694 -10.27617 -10.27521 -10.27477
 Alpha  occ. eigenvalues --  -10.27275 -10.27030 -10.26808 -10.26630 -10.26607
 Alpha  occ. eigenvalues --  -10.26394 -10.26234 -10.26183 -10.25897 -10.25891
 Alpha  occ. eigenvalues --  -10.25759 -10.25743 -10.25705 -10.25541 -10.25488
 Alpha  occ. eigenvalues --  -10.25241 -10.25209 -10.25208 -10.25142 -10.25060
 Alpha  occ. eigenvalues --  -10.25057 -10.24970 -10.24848 -10.24785 -10.24765
 Alpha  occ. eigenvalues --  -10.24711 -10.24706 -10.24381 -10.24341 -10.24143
 Alpha  occ. eigenvalues --  -10.23832  -3.16654  -1.91562  -1.91104  -1.90961
 Alpha  occ. eigenvalues --   -1.15860  -1.14157  -1.11420  -1.09194  -1.07415
 Alpha  occ. eigenvalues --   -1.05564  -1.03988  -1.02364  -1.01862  -1.00838
 Alpha  occ. eigenvalues --   -0.91775  -0.91528  -0.89951  -0.89059  -0.88992
 Alpha  occ. eigenvalues --   -0.88687  -0.87964  -0.87470  -0.87121  -0.86859
 Alpha  occ. eigenvalues --   -0.85576  -0.85305  -0.84447  -0.83563  -0.83394
 Alpha  occ. eigenvalues --   -0.82723  -0.81504  -0.80929  -0.80658  -0.80326
 Alpha  occ. eigenvalues --   -0.80044  -0.78336  -0.77373  -0.76859  -0.76075
 Alpha  occ. eigenvalues --   -0.75766  -0.75225  -0.74814  -0.74687  -0.73928
 Alpha  occ. eigenvalues --   -0.73088  -0.72155  -0.71265  -0.70077  -0.68803
 Alpha  occ. eigenvalues --   -0.68530  -0.68163  -0.67393  -0.67336  -0.65950
 Alpha  occ. eigenvalues --   -0.65549  -0.64744  -0.64506  -0.64277  -0.63257
 Alpha  occ. eigenvalues --   -0.62975  -0.62503  -0.61298  -0.61099  -0.59946
 Alpha  occ. eigenvalues --   -0.59434  -0.59079  -0.58869  -0.58053  -0.57787
 Alpha  occ. eigenvalues --   -0.57222  -0.56920  -0.56153  -0.55829  -0.55382
 Alpha  occ. eigenvalues --   -0.55011  -0.54690  -0.54297  -0.54132  -0.53664
 Alpha  occ. eigenvalues --   -0.53605  -0.53458  -0.53136  -0.53084  -0.52924
 Alpha  occ. eigenvalues --   -0.52777  -0.52433  -0.52301  -0.51865  -0.51841
 Alpha  occ. eigenvalues --   -0.51456  -0.51333  -0.51068  -0.50994  -0.50845
 Alpha  occ. eigenvalues --   -0.50763  -0.50514  -0.50059  -0.49897  -0.49473
 Alpha  occ. eigenvalues --   -0.49411  -0.49347  -0.49058  -0.48614  -0.48545
 Alpha  occ. eigenvalues --   -0.48385  -0.48252  -0.48013  -0.47926  -0.47577
 Alpha  occ. eigenvalues --   -0.47386  -0.47344  -0.47173  -0.46709  -0.46620
 Alpha  occ. eigenvalues --   -0.46255  -0.46215  -0.45908  -0.45560  -0.45440
 Alpha  occ. eigenvalues --   -0.45302  -0.45054  -0.45019  -0.44828  -0.44813
 Alpha  occ. eigenvalues --   -0.44619  -0.44582  -0.44195  -0.43863  -0.43820
 Alpha  occ. eigenvalues --   -0.43408  -0.43362  -0.43251  -0.43204  -0.43116
 Alpha  occ. eigenvalues --   -0.42828  -0.42764  -0.42333  -0.42193  -0.42056
 Alpha  occ. eigenvalues --   -0.41789  -0.41482  -0.41284  -0.41111  -0.40912
 Alpha  occ. eigenvalues --   -0.40388  -0.40225  -0.40135  -0.40010  -0.39688
 Alpha  occ. eigenvalues --   -0.39610  -0.39550  -0.39380  -0.39111  -0.38820
 Alpha  occ. eigenvalues --   -0.38525  -0.38067  -0.37899  -0.37355  -0.37143
 Alpha  occ. eigenvalues --   -0.36939  -0.36696  -0.36432  -0.36252  -0.36151
 Alpha  occ. eigenvalues --   -0.35440  -0.35121  -0.34719  -0.34261  -0.33835
 Alpha  occ. eigenvalues --   -0.33802  -0.33478  -0.32984  -0.31562  -0.31393
 Alpha  occ. eigenvalues --   -0.30553  -0.30164  -0.29585  -0.28568  -0.23965
 Alpha  occ. eigenvalues --   -0.21220
 Alpha virt. eigenvalues --   -0.08418  -0.01677   0.00138   0.02177   0.03119
 Alpha virt. eigenvalues --    0.03746   0.05084   0.05526   0.06050   0.06805
 Alpha virt. eigenvalues --    0.08107   0.08715   0.08846   0.09162   0.09525

 Mulliken charges:
               1
     1  Mg   0.817277
     2  C    0.023782
     3  C   -0.085933
     4  C   -0.055929
     5  C   -0.058845
     6  N   -0.312533
     7  C   -0.053546
     8  C   -0.014896
     9  C   -0.108294
    10  C    0.087593
    11  C    0.071089
    12  C    0.108641
    13  C    0.002674
    14  C    0.189899
    15  O   -0.263477
    16  O   -0.354141
    17  N   -0.426339
    18  C    0.167214
    19  C   -0.153063
    20  C   -0.007929
    21  C    0.162829
    22  C    0.112268
    23  C   -0.007674
    24  O   -0.188211
    25  C    0.041639
    26  N   -0.245199
    27  C    0.014807
    28  C   -0.075017
    29  C   -0.009824
    30  C   -0.002020
    31  C    0.065624
    32  C    0.045633
    33  C    0.000097
    34  N   -0.378310
    35  C    0.150779
    36  C   -0.188424
    37  C    0.001695
    38  C    0.131699
    39  C    0.134288
    40  C    0.077487
    41  O   -0.163870
    42  C   -0.093285
    43  C    0.204926
    44  O   -0.221761
    45  O   -0.343237
    46  C    0.191084
    47  C    0.295598
    48  C   -0.097870
    49  C   -0.233905
    50  C    0.089288
    51  C    0.113893
    52  C    0.041333
    53  C    0.025253
    54  C   -0.149991
    55  C    0.063586
    56  C    0.026603
    57  C    0.053377
    58  C    0.007331
    59  C   -0.127001
    60  C    0.042441
    61  C    0.021518
    62  C    0.038130
    63  C    0.049429
    64  C   -0.182647
    65  C    0.072065
    66  C    0.033630
    67  H   -0.033590
    68  H   -0.007219
    69  H   -0.044695
    70  H    0.030406
    71  H    0.010233
    72  H    0.015782
    73  H    0.019251
    74  H    0.028487
    75  H    0.024023
    76  H    0.009079
    77  H    0.052742
    78  H    0.038933
    79  H    0.030908
    80  H    0.010172
    81  H    0.043316
    82  H    0.041307
    83  H    0.032783
    84  H    0.021070
    85  H    0.014104
    86  H    0.009636
    87  H    0.012935
    88  H    0.028766
    89  H    0.019893
    90  H    0.006355
    91  H    0.003979
    92  H    0.022047
    93  H    0.008874
    94  H    0.017984
    95  H   -0.003216
    96  H    0.047432
    97  H    0.022322
    98  H    0.051215
    99  H    0.042087
   100  H    0.033690
   101  H    0.033598
   102  H    0.030113
   103  H    0.030570
   104  H   -0.021684
   105  H    0.021663
   106  H    0.013377
   107  H    0.039516
   108  H    0.006616
   109  H   -0.003779
   110  H    0.007813
   111  H   -0.002132
   112  H   -0.007597
   113  H   -0.011716
   114  H   -0.015395
   115  H    0.014082
   116  H    0.010348
   117  H    0.001319
   118  H   -0.000174
   119  H    0.005881
   120  H    0.001593
   121  H   -0.008980
   122  H    0.006565
   123  H    0.012760
   124  H   -0.010787
   125  H    0.018389
   126  H    0.000090
   127  H   -0.004316
   128  H   -0.005256
   129  H   -0.008440
   130  H    0.000888
   131  H    0.023767
   132  H   -0.001351
   133  H   -0.013422
   134  H   -0.006412
   135  H   -0.001305
   136  H   -0.008389
   137  H    0.004385
   138  H    0.000482
   139  H    0.002656
   140  H    0.010250
 Sum of Mulliken charges =  -0.00000

 Dipole moment (field-independent basis, Debye):
    X=             -2.6216    Y=              3.9731    Z=             -0.8649  Tot=              4.8380
 Quadrupole moment (field-independent basis, Debye-Ang):
   XX=           -360.5575   YY=           -410.3632   ZZ=           -406.6628
   XY=              9.5327   XZ=             16.8538   YZ=             -6.5242

 Normal termination of Gaussian 16 at Fri Apr 29 10:46:16 2022.
