 Gaussian 16, Revision A.03,
 Gaussian 16:  ES64L-G16RevA.03 25-Dec-2016

 ---------------------------------
 #p PBE1PBE/Def2SVP td=(nstates=5)
 ---------------------------------

 ----------------------------------------------------
 step_251_chromophore_7 TDDFT with PBE1PBE functional
 ----------------------------------------------------
 Symbolic Z-matrix:
 Charge =  0 Multiplicity = 1

                         Standard orientation:
 ---------------------------------------------------------------------
 Center     Atomic      Atomic             Coordinates (Angstroms)
 Number     Number       Type             X           Y           Z
 ---------------------------------------------------------------------
      1         12           0        6.082694    0.386765    0.234085
      2          6           0        3.578387   -2.102645    0.016750
      3          6           0        3.730151    2.742946   -0.674555
      4          6           0        8.557758    2.699946    0.164265
      5          6           0        8.479251   -2.071062    0.944720
      6          7           0        3.954270    0.209767   -0.349438
      7          6           0        3.075772   -0.853889   -0.157303
      8          6           0        1.579684   -0.429355   -0.455477
      9          6           0        1.754570    1.037834   -0.930120
     10          6           0        3.245793    1.368685   -0.697330
     11          6           0        1.329053    1.397254   -2.402834
     12          6           0        0.518038   -0.718706    0.683331
     13          6           0       -0.608543   -1.625804    0.290455
     14          6           0       -2.023300   -1.281098    0.903751
     15          8           0       -2.199501   -0.447815    1.817752
     16          8           0       -3.086001   -2.022110    0.432737
     17          7           0        6.085981    2.381407   -0.202249
     18          6           0        5.025308    3.215960   -0.490760
     19          6           0        5.519536    4.564572   -0.720289
     20          6           0        6.923103    4.608211   -0.486000
     21          6           0        7.260606    3.181270   -0.128726
     22          6           0        4.612611    5.780645   -0.996553
     23          6           0        7.890621    5.786705   -0.525485
     24          8           0        9.062390    5.709922   -0.218182
     25          6           0        7.468644    7.274542   -0.866456
     26          7           0        8.257282    0.297059    0.425527
     27          6           0        9.028058    1.374795    0.360170
     28          6           0       10.540651    1.033381    0.608388
     29          6           0       10.477313   -0.481322    1.053241
     30          6           0        8.967321   -0.792155    0.823917
     31          6           0       11.428783    1.394579   -0.617257
     32          6           0       10.993731   -0.685450    2.463765
     33          6           0       11.871122   -1.924495    2.633117
     34          7           0        6.164661   -1.692699    0.325887
     35          6           0        7.170634   -2.554949    0.717930
     36          6           0        6.658065   -3.885840    0.606080
     37          6           0        5.262227   -3.788405    0.382773
     38          6           0        4.975311   -2.406274    0.204547
     39          6           0        7.431423   -5.135906    0.792181
     40          6           0        4.006374   -4.555068    0.306886
     41          8           0        3.764454   -5.758211    0.278304
     42          6           0        2.797773   -3.358920    0.087400
     43          6           0        2.064733   -3.629773   -1.109756
     44          8           0        2.190930   -3.019135   -2.148970
     45          8           0        1.101403   -4.587574   -0.887084
     46          6           0        0.351896   -4.942466   -2.117934
     47          6           0       -4.507943   -1.924399    0.842153
     48          6           0       -5.228588   -1.713263   -0.477879
     49          6           0       -5.769491   -0.607726   -1.113550
     50          6           0       -5.308014    0.798797   -0.773132
     51          6           0       -6.713996   -0.742425   -2.221673
     52          6           0       -8.104862   -0.856746   -1.799070
     53          6           0       -9.006041    0.433227   -2.135498
     54          6           0      -10.386146    0.310839   -2.922487
     55          6           0      -10.366935    1.097335   -4.195258
     56          6           0      -11.675704    0.670809   -2.112872
     57          6           0      -12.209009   -0.487776   -1.174992
     58          6           0      -12.880082    0.039153    0.079923
     59          6           0      -14.233554   -0.622949    0.318793
     60          6           0      -15.394193   -0.237253   -0.676450
     61          6           0      -14.636464   -0.351331    1.826206
     62          6           0      -14.494422    1.124057    2.353920
     63          6           0      -13.422420    1.193059    3.437253
     64          6           0      -12.579788    2.534658    3.275700
     65          6           0      -11.395170    2.394508    2.422234
     66          6           0      -12.136833    3.239378    4.616348
     67          1           0        2.997934    3.536738   -0.837609
     68          1           0        9.399976    3.392005    0.108246
     69          1           0        9.269636   -2.757833    1.256801
     70          1           0        1.338770   -0.946622   -1.383559
     71          1           0        1.187799    1.717712   -0.293939
     72          1           0        0.840171    2.370811   -2.355349
     73          1           0        0.660810    0.617765   -2.768002
     74          1           0        2.159378    1.472406   -3.105262
     75          1           0        0.161540    0.258043    1.010692
     76          1           0        1.053814   -1.219325    1.490001
     77          1           0       -0.386144   -2.645711    0.606932
     78          1           0       -0.613685   -1.564690   -0.797453
     79          1           0        4.711528    6.410616   -0.113268
     80          1           0        3.571705    5.456749   -0.980083
     81          1           0        4.871461    6.378669   -1.871201
     82          1           0        6.686809    7.569349   -0.165679
     83          1           0        7.321826    7.438454   -1.934424
     84          1           0        8.393709    7.843460   -0.778188
     85          1           0       10.972078    1.563334    1.457340
     86          1           0       11.039153   -1.034412    0.300302
     87          1           0       12.036823    0.524681   -0.867202
     88          1           0       12.020659    2.298580   -0.471642
     89          1           0       10.795160    1.612166   -1.475508
     90          1           0       10.186983   -0.729838    3.194665
     91          1           0       11.564678    0.156720    2.857823
     92          1           0       11.840216   -2.559114    1.747392
     93          1           0       11.445345   -2.486423    3.464887
     94          1           0       12.884010   -1.677845    2.951820
     95          1           0        8.493625   -5.039810    1.016900
     96          1           0        7.130448   -5.799786   -0.019134
     97          1           0        7.110983   -5.468725    1.779716
     98          1           0        2.122929   -3.377265    0.943648
     99          1           0        1.039525   -5.326999   -2.871519
    100          1           0       -0.197888   -4.045653   -2.403410
    101          1           0       -0.368582   -5.744048   -1.959949
    102          1           0       -4.601473   -1.071435    1.515090
    103          1           0       -4.877774   -2.823109    1.336784
    104          1           0       -5.655811   -2.646972   -0.843081
    105          1           0       -4.870492    0.776574    0.225261
    106          1           0       -6.201000    1.424167   -0.768516
    107          1           0       -4.607410    1.166532   -1.523355
    108          1           0       -6.575519   -1.646866   -2.813795
    109          1           0       -6.475816    0.187915   -2.739140
    110          1           0       -8.130001   -1.122057   -0.741964
    111          1           0       -8.513374   -1.687489   -2.374649
    112          1           0       -8.498404    1.260500   -2.632877
    113          1           0       -9.360515    0.755030   -1.155757
    114          1           0      -10.346542   -0.763977   -3.093328
    115          1           0      -10.953452    0.443660   -4.841104
    116          1           0       -9.385340    1.452121   -4.511142
    117          1           0      -10.975495    1.999180   -4.126036
    118          1           0      -12.468197    0.877720   -2.832633
    119          1           0      -11.438009    1.530814   -1.487030
    120          1           0      -11.419077   -1.206691   -0.956140
    121          1           0      -12.990559   -0.963745   -1.765690
    122          1           0      -13.126213    1.094719   -0.029423
    123          1           0      -12.191144   -0.104852    0.913136
    124          1           0      -14.053885   -1.688884    0.175679
    125          1           0      -15.830843   -0.973322   -1.351960
    126          1           0      -15.155065    0.659442   -1.248084
    127          1           0      -16.228854    0.069245   -0.046239
    128          1           0      -13.987677   -1.009759    2.404355
    129          1           0      -15.653368   -0.726224    1.949836
    130          1           0      -15.445842    1.201729    2.880013
    131          1           0      -14.304714    1.912337    1.626081
    132          1           0      -12.815588    0.290124    3.504351
    133          1           0      -13.894347    1.262428    4.417213
    134          1           0      -13.208962    3.347844    2.913747
    135          1           0      -10.965275    3.372133    2.203947
    136          1           0      -11.626099    1.911584    1.472201
    137          1           0      -10.652885    1.870026    3.025064
    138          1           0      -11.054475    3.363637    4.634033
    139          1           0      -12.454784    2.599923    5.440244
    140          1           0      -12.602788    4.223130    4.687569
 ---------------------------------------------------------------------

 SCF Done:  E(RPBE1PBE) =  -3005.33288756     A.U. after   16 cycles

 Excitation energies and oscillator strengths:

 Excited State   1:      Singlet-A      1.8746 eV  661.39 nm  f=0.3547  <S**2>=0.000
     245 -> 248        0.17436
     246 -> 247        0.69065
 This state for optimization and/or second-order correction.
 Total Energy, E(TD-HF/TD-DFT) =  -3005.26399686
 Copying the excited state density for this state as the 1-particle RhoCI density.

 Excited State   2:      Singlet-A      2.2441 eV  552.48 nm  f=0.1166  <S**2>=0.000
     245 -> 247        0.65190
     246 -> 248       -0.25912

 Excited State   3:      Singlet-A      2.9707 eV  417.36 nm  f=0.0057  <S**2>=0.000
     244 -> 247        0.69655

 Excited State   4:      Singlet-A      3.0919 eV  401.00 nm  f=0.0000  <S**2>=0.000
     240 -> 247       -0.18493
     241 -> 247        0.63786
     241 -> 248       -0.10290
     241 -> 249       -0.15755

 Excited State   5:      Singlet-A      3.1395 eV  394.91 nm  f=0.0002  <S**2>=0.000
     242 -> 247        0.67572
     242 -> 249        0.15640

 The electronic state is 1-A.
 Alpha  occ. eigenvalues --  -46.91567 -19.25020 -19.24393 -19.19917 -19.19675
 Alpha  occ. eigenvalues --  -19.19496 -19.19338 -14.41705 -14.41148 -14.39786
 Alpha  occ. eigenvalues --  -14.38573 -10.36883 -10.35321 -10.33403 -10.33166
 Alpha  occ. eigenvalues --  -10.30068 -10.29858 -10.29232 -10.28629 -10.28483
 Alpha  occ. eigenvalues --  -10.28231 -10.28096 -10.27758 -10.27278 -10.26702
 Alpha  occ. eigenvalues --  -10.26655 -10.26070 -10.25621 -10.25606 -10.25464
 Alpha  occ. eigenvalues --  -10.25425 -10.25299 -10.25243 -10.25205 -10.25161
 Alpha  occ. eigenvalues --  -10.25037 -10.24997 -10.24990 -10.24259 -10.24018
 Alpha  occ. eigenvalues --  -10.23938 -10.23676 -10.23596 -10.23575 -10.23422
 Alpha  occ. eigenvalues --  -10.23341 -10.23274 -10.23200 -10.23162 -10.23158
 Alpha  occ. eigenvalues --  -10.23026 -10.22867 -10.22829 -10.22814 -10.22797
 Alpha  occ. eigenvalues --  -10.22722 -10.22598 -10.22532 -10.22454 -10.22331
 Alpha  occ. eigenvalues --  -10.22247 -10.22110 -10.21938 -10.21744 -10.21556
 Alpha  occ. eigenvalues --  -10.21183  -3.13676  -1.86524  -1.86043  -1.85907
 Alpha  occ. eigenvalues --   -1.10660  -1.08988  -1.05859  -1.04280  -1.02296
 Alpha  occ. eigenvalues --   -1.00449  -0.98615  -0.96911  -0.96551  -0.95553
 Alpha  occ. eigenvalues --   -0.86307  -0.85703  -0.84022  -0.83375  -0.83229
 Alpha  occ. eigenvalues --   -0.82796  -0.82143  -0.81593  -0.81224  -0.81099
 Alpha  occ. eigenvalues --   -0.80176  -0.79602  -0.78663  -0.77924  -0.77551
 Alpha  occ. eigenvalues --   -0.77015  -0.75824  -0.75196  -0.74936  -0.74476
 Alpha  occ. eigenvalues --   -0.74097  -0.72397  -0.71683  -0.71231  -0.70244
 Alpha  occ. eigenvalues --   -0.70124  -0.69316  -0.69088  -0.68931  -0.68106
 Alpha  occ. eigenvalues --   -0.67421  -0.66708  -0.65700  -0.64375  -0.63222
 Alpha  occ. eigenvalues --   -0.62856  -0.62431  -0.61870  -0.61641  -0.60097
 Alpha  occ. eigenvalues --   -0.59986  -0.59318  -0.58977  -0.58900  -0.57399
 Alpha  occ. eigenvalues --   -0.57133  -0.57106  -0.55753  -0.55563  -0.54326
 Alpha  occ. eigenvalues --   -0.53789  -0.53724  -0.53377  -0.52590  -0.52398
 Alpha  occ. eigenvalues --   -0.51715  -0.51651  -0.50602  -0.50348  -0.49918
 Alpha  occ. eigenvalues --   -0.49638  -0.49119  -0.48845  -0.48701  -0.48269
 Alpha  occ. eigenvalues --   -0.48030  -0.47930  -0.47625  -0.47563  -0.47306
 Alpha  occ. eigenvalues --   -0.47105  -0.47066  -0.46771  -0.46496  -0.46391
 Alpha  occ. eigenvalues --   -0.46011  -0.45958  -0.45591  -0.45533  -0.45508
 Alpha  occ. eigenvalues --   -0.45294  -0.45045  -0.44764  -0.44449  -0.44189
 Alpha  occ. eigenvalues --   -0.43942  -0.43907  -0.43643  -0.43206  -0.43139
 Alpha  occ. eigenvalues --   -0.42855  -0.42819  -0.42667  -0.42608  -0.42127
 Alpha  occ. eigenvalues --   -0.42040  -0.41861  -0.41740  -0.41388  -0.41245
 Alpha  occ. eigenvalues --   -0.41057  -0.40887  -0.40754  -0.40248  -0.40189
 Alpha  occ. eigenvalues --   -0.39965  -0.39854  -0.39696  -0.39621  -0.39423
 Alpha  occ. eigenvalues --   -0.39398  -0.39246  -0.38990  -0.38749  -0.38599
 Alpha  occ. eigenvalues --   -0.38205  -0.38102  -0.38067  -0.38035  -0.37896
 Alpha  occ. eigenvalues --   -0.37523  -0.37418  -0.37314  -0.37099  -0.36823
 Alpha  occ. eigenvalues --   -0.36661  -0.36310  -0.36013  -0.35991  -0.35784
 Alpha  occ. eigenvalues --   -0.35185  -0.35130  -0.35014  -0.34922  -0.34517
 Alpha  occ. eigenvalues --   -0.34474  -0.34403  -0.34307  -0.33902  -0.33638
 Alpha  occ. eigenvalues --   -0.33489  -0.32940  -0.32734  -0.32403  -0.32016
 Alpha  occ. eigenvalues --   -0.31986  -0.31468  -0.31300  -0.31281  -0.31181
 Alpha  occ. eigenvalues --   -0.30455  -0.30083  -0.29629  -0.29272  -0.28944
 Alpha  occ. eigenvalues --   -0.28773  -0.28638  -0.28285  -0.27047  -0.26108
 Alpha  occ. eigenvalues --   -0.25839  -0.25524  -0.24965  -0.24591  -0.20845
 Alpha  occ. eigenvalues --   -0.18791
 Alpha virt. eigenvalues --   -0.10995  -0.05236  -0.04041  -0.02278  -0.00728
 Alpha virt. eigenvalues --    0.00305   0.00567   0.00881   0.01572   0.03295
 Alpha virt. eigenvalues --    0.04312   0.04703   0.05608   0.05736   0.06080

 Mulliken charges:
               1
     1  Mg   0.967634
     2  C    0.003834
     3  C   -0.077974
     4  C   -0.042205
     5  C   -0.059644
     6  N   -0.411410
     7  C    0.027331
     8  C   -0.085869
     9  C   -0.178186
    10  C    0.119862
    11  C    0.013729
    12  C    0.058141
    13  C   -0.080714
    14  C    0.261200
    15  O   -0.295220
    16  O   -0.385853
    17  N   -0.537220
    18  C    0.182907
    19  C   -0.178448
    20  C   -0.059312
    21  C    0.184039
    22  C    0.053612
    23  C    0.040688
    24  O   -0.225045
    25  C   -0.031510
    26  N   -0.353527
    27  C    0.044364
    28  C   -0.142062
    29  C   -0.093023
    30  C    0.039741
    31  C    0.007784
    32  C   -0.008300
    33  C   -0.073379
    34  N   -0.500044
    35  C    0.185821
    36  C   -0.217381
    37  C   -0.043201
    38  C    0.180853
    39  C    0.081408
    40  C    0.170805
    41  O   -0.204588
    42  C   -0.197259
    43  C    0.295473
    44  O   -0.255484
    45  O   -0.375811
    46  C    0.133548
    47  C    0.253122
    48  C   -0.107428
    49  C   -0.272497
    50  C    0.021871
    51  C    0.044837
    52  C   -0.021459
    53  C   -0.023687
    54  C   -0.230235
    55  C   -0.000487
    56  C   -0.034563
    57  C   -0.007152
    58  C   -0.051235
    59  C   -0.210207
    60  C   -0.016657
    61  C   -0.033427
    62  C   -0.033201
    63  C   -0.000407
    64  C   -0.274451
    65  C    0.000599
    66  C   -0.026155
    67  H   -0.000378
    68  H    0.024737
    69  H   -0.007719
    70  H    0.071829
    71  H    0.047184
    72  H    0.042522
    73  H    0.045604
    74  H    0.055851
    75  H    0.055758
    76  H    0.042659
    77  H    0.085042
    78  H    0.071295
    79  H    0.057776
    80  H    0.036718
    81  H    0.068295
    82  H    0.066478
    83  H    0.058108
    84  H    0.047636
    85  H    0.050388
    86  H    0.047422
    87  H    0.039614
    88  H    0.055181
    89  H    0.048500
    90  H    0.038748
    91  H    0.036889
    92  H    0.047340
    93  H    0.036846
    94  H    0.046473
    95  H    0.026043
    96  H    0.075705
    97  H    0.053281
    98  H    0.087812
    99  H    0.064032
   100  H    0.056491
   101  H    0.055733
   102  H    0.055739
   103  H    0.055966
   104  H    0.009312
   105  H    0.049810
   106  H    0.043277
   107  H    0.067267
   108  H    0.039101
   109  H    0.029921
   110  H    0.039473
   111  H    0.029297
   112  H    0.022645
   113  H    0.023444
   114  H    0.023818
   115  H    0.042802
   116  H    0.036849
   117  H    0.029779
   118  H    0.032726
   119  H    0.038758
   120  H    0.034363
   121  H    0.026137
   122  H    0.038607
   123  H    0.046330
   124  H    0.028463
   125  H    0.044835
   126  H    0.027570
   127  H    0.023992
   128  H    0.027910
   129  H    0.024008
   130  H    0.036010
   131  H    0.054129
   132  H    0.028270
   133  H    0.019847
   134  H    0.031847
   135  H    0.028421
   136  H    0.027506
   137  H    0.033196
   138  H    0.027714
   139  H    0.030207
   140  H    0.037471
 Sum of Mulliken charges =  -0.00000

 Dipole moment (field-independent basis, Debye):
    X=             -2.6380    Y=              3.0629    Z=             -0.6852  Tot=              4.1000
 Quadrupole moment (field-independent basis, Debye-Ang):
   XX=           -354.0669   YY=           -408.2494   ZZ=           -404.1156
   XY=              3.0185   XZ=             18.7467   YZ=             -6.6582

 Normal termination of Gaussian 16 at Fri Apr 29 11:01:37 2022.
