 Gaussian 16, Revision A.03,
 Gaussian 16:  ES64L-G16RevA.03 25-Dec-2016

 --------------------------------
 #p wB97XD/Def2SVP td=(nstates=5)
 --------------------------------

 ---------------------------------------------------
 step_251_chromophore_7 TDDFT with wB97XD functional
 ---------------------------------------------------
 Symbolic Z-matrix:
 Charge =  0 Multiplicity = 1

                         Standard orientation:
 ---------------------------------------------------------------------
 Center     Atomic      Atomic             Coordinates (Angstroms)
 Number     Number       Type             X           Y           Z
 ---------------------------------------------------------------------
      1         12           0        6.082694    0.386765    0.234085
      2          6           0        3.578387   -2.102645    0.016750
      3          6           0        3.730151    2.742946   -0.674555
      4          6           0        8.557758    2.699946    0.164265
      5          6           0        8.479251   -2.071062    0.944720
      6          7           0        3.954270    0.209767   -0.349438
      7          6           0        3.075772   -0.853889   -0.157303
      8          6           0        1.579684   -0.429355   -0.455477
      9          6           0        1.754570    1.037834   -0.930120
     10          6           0        3.245793    1.368685   -0.697330
     11          6           0        1.329053    1.397254   -2.402834
     12          6           0        0.518038   -0.718706    0.683331
     13          6           0       -0.608543   -1.625804    0.290455
     14          6           0       -2.023300   -1.281098    0.903751
     15          8           0       -2.199501   -0.447815    1.817752
     16          8           0       -3.086001   -2.022110    0.432737
     17          7           0        6.085981    2.381407   -0.202249
     18          6           0        5.025308    3.215960   -0.490760
     19          6           0        5.519536    4.564572   -0.720289
     20          6           0        6.923103    4.608211   -0.486000
     21          6           0        7.260606    3.181270   -0.128726
     22          6           0        4.612611    5.780645   -0.996553
     23          6           0        7.890621    5.786705   -0.525485
     24          8           0        9.062390    5.709922   -0.218182
     25          6           0        7.468644    7.274542   -0.866456
     26          7           0        8.257282    0.297059    0.425527
     27          6           0        9.028058    1.374795    0.360170
     28          6           0       10.540651    1.033381    0.608388
     29          6           0       10.477313   -0.481322    1.053241
     30          6           0        8.967321   -0.792155    0.823917
     31          6           0       11.428783    1.394579   -0.617257
     32          6           0       10.993731   -0.685450    2.463765
     33          6           0       11.871122   -1.924495    2.633117
     34          7           0        6.164661   -1.692699    0.325887
     35          6           0        7.170634   -2.554949    0.717930
     36          6           0        6.658065   -3.885840    0.606080
     37          6           0        5.262227   -3.788405    0.382773
     38          6           0        4.975311   -2.406274    0.204547
     39          6           0        7.431423   -5.135906    0.792181
     40          6           0        4.006374   -4.555068    0.306886
     41          8           0        3.764454   -5.758211    0.278304
     42          6           0        2.797773   -3.358920    0.087400
     43          6           0        2.064733   -3.629773   -1.109756
     44          8           0        2.190930   -3.019135   -2.148970
     45          8           0        1.101403   -4.587574   -0.887084
     46          6           0        0.351896   -4.942466   -2.117934
     47          6           0       -4.507943   -1.924399    0.842153
     48          6           0       -5.228588   -1.713263   -0.477879
     49          6           0       -5.769491   -0.607726   -1.113550
     50          6           0       -5.308014    0.798797   -0.773132
     51          6           0       -6.713996   -0.742425   -2.221673
     52          6           0       -8.104862   -0.856746   -1.799070
     53          6           0       -9.006041    0.433227   -2.135498
     54          6           0      -10.386146    0.310839   -2.922487
     55          6           0      -10.366935    1.097335   -4.195258
     56          6           0      -11.675704    0.670809   -2.112872
     57          6           0      -12.209009   -0.487776   -1.174992
     58          6           0      -12.880082    0.039153    0.079923
     59          6           0      -14.233554   -0.622949    0.318793
     60          6           0      -15.394193   -0.237253   -0.676450
     61          6           0      -14.636464   -0.351331    1.826206
     62          6           0      -14.494422    1.124057    2.353920
     63          6           0      -13.422420    1.193059    3.437253
     64          6           0      -12.579788    2.534658    3.275700
     65          6           0      -11.395170    2.394508    2.422234
     66          6           0      -12.136833    3.239378    4.616348
     67          1           0        2.997934    3.536738   -0.837609
     68          1           0        9.399976    3.392005    0.108246
     69          1           0        9.269636   -2.757833    1.256801
     70          1           0        1.338770   -0.946622   -1.383559
     71          1           0        1.187799    1.717712   -0.293939
     72          1           0        0.840171    2.370811   -2.355349
     73          1           0        0.660810    0.617765   -2.768002
     74          1           0        2.159378    1.472406   -3.105262
     75          1           0        0.161540    0.258043    1.010692
     76          1           0        1.053814   -1.219325    1.490001
     77          1           0       -0.386144   -2.645711    0.606932
     78          1           0       -0.613685   -1.564690   -0.797453
     79          1           0        4.711528    6.410616   -0.113268
     80          1           0        3.571705    5.456749   -0.980083
     81          1           0        4.871461    6.378669   -1.871201
     82          1           0        6.686809    7.569349   -0.165679
     83          1           0        7.321826    7.438454   -1.934424
     84          1           0        8.393709    7.843460   -0.778188
     85          1           0       10.972078    1.563334    1.457340
     86          1           0       11.039153   -1.034412    0.300302
     87          1           0       12.036823    0.524681   -0.867202
     88          1           0       12.020659    2.298580   -0.471642
     89          1           0       10.795160    1.612166   -1.475508
     90          1           0       10.186983   -0.729838    3.194665
     91          1           0       11.564678    0.156720    2.857823
     92          1           0       11.840216   -2.559114    1.747392
     93          1           0       11.445345   -2.486423    3.464887
     94          1           0       12.884010   -1.677845    2.951820
     95          1           0        8.493625   -5.039810    1.016900
     96          1           0        7.130448   -5.799786   -0.019134
     97          1           0        7.110983   -5.468725    1.779716
     98          1           0        2.122929   -3.377265    0.943648
     99          1           0        1.039525   -5.326999   -2.871519
    100          1           0       -0.197888   -4.045653   -2.403410
    101          1           0       -0.368582   -5.744048   -1.959949
    102          1           0       -4.601473   -1.071435    1.515090
    103          1           0       -4.877774   -2.823109    1.336784
    104          1           0       -5.655811   -2.646972   -0.843081
    105          1           0       -4.870492    0.776574    0.225261
    106          1           0       -6.201000    1.424167   -0.768516
    107          1           0       -4.607410    1.166532   -1.523355
    108          1           0       -6.575519   -1.646866   -2.813795
    109          1           0       -6.475816    0.187915   -2.739140
    110          1           0       -8.130001   -1.122057   -0.741964
    111          1           0       -8.513374   -1.687489   -2.374649
    112          1           0       -8.498404    1.260500   -2.632877
    113          1           0       -9.360515    0.755030   -1.155757
    114          1           0      -10.346542   -0.763977   -3.093328
    115          1           0      -10.953452    0.443660   -4.841104
    116          1           0       -9.385340    1.452121   -4.511142
    117          1           0      -10.975495    1.999180   -4.126036
    118          1           0      -12.468197    0.877720   -2.832633
    119          1           0      -11.438009    1.530814   -1.487030
    120          1           0      -11.419077   -1.206691   -0.956140
    121          1           0      -12.990559   -0.963745   -1.765690
    122          1           0      -13.126213    1.094719   -0.029423
    123          1           0      -12.191144   -0.104852    0.913136
    124          1           0      -14.053885   -1.688884    0.175679
    125          1           0      -15.830843   -0.973322   -1.351960
    126          1           0      -15.155065    0.659442   -1.248084
    127          1           0      -16.228854    0.069245   -0.046239
    128          1           0      -13.987677   -1.009759    2.404355
    129          1           0      -15.653368   -0.726224    1.949836
    130          1           0      -15.445842    1.201729    2.880013
    131          1           0      -14.304714    1.912337    1.626081
    132          1           0      -12.815588    0.290124    3.504351
    133          1           0      -13.894347    1.262428    4.417213
    134          1           0      -13.208962    3.347844    2.913747
    135          1           0      -10.965275    3.372133    2.203947
    136          1           0      -11.626099    1.911584    1.472201
    137          1           0      -10.652885    1.870026    3.025064
    138          1           0      -11.054475    3.363637    4.634033
    139          1           0      -12.454784    2.599923    5.440244
    140          1           0      -12.602788    4.223130    4.687569
 ---------------------------------------------------------------------

 SCF Done:  E(RwB97XD) =  -3007.84393740     A.U. after   19 cycles

 Excitation energies and oscillator strengths:

 Excited State   1:      Singlet-A      1.7625 eV  703.44 nm  f=0.3648  <S**2>=0.000
     245 -> 248        0.17841
     246 -> 247        0.68337
     245 <- 248        0.10752
 This state for optimization and/or second-order correction.
 Total Energy, E(TD-HF/TD-DFT) =  -3007.77916500
 Copying the excited state density for this state as the 1-particle RhoCI density.

 Excited State   2:      Singlet-A      2.2094 eV  561.17 nm  f=0.1186  <S**2>=0.000
     245 -> 247        0.63768
     246 -> 248       -0.28356

 Excited State   3:      Singlet-A      3.4518 eV  359.19 nm  f=0.0310  <S**2>=0.000
     241 -> 247       -0.30510
     244 -> 247        0.60282

 Excited State   4:      Singlet-A      3.5297 eV  351.26 nm  f=0.3469  <S**2>=0.000
     239 -> 247        0.17109
     241 -> 247        0.26933
     244 -> 247        0.24534
     245 -> 247        0.18800
     246 -> 248        0.52043

 Excited State   5:      Singlet-A      3.5635 eV  347.92 nm  f=0.0359  <S**2>=0.000
     240 -> 247        0.52929
     240 -> 248       -0.15429
     240 -> 249        0.33432
     240 -> 250        0.18085
     246 -> 248       -0.14851

 The electronic state is 1-A.
 Alpha  occ. eigenvalues --  -46.94481 -19.29490 -19.28920 -19.24881 -19.24294
 Alpha  occ. eigenvalues --  -19.24065 -19.23966 -14.46798 -14.46245 -14.44918
 Alpha  occ. eigenvalues --  -14.43185 -10.43642 -10.42053 -10.40372 -10.39908
 Alpha  occ. eigenvalues --  -10.36574 -10.36572 -10.36084 -10.35276 -10.35191
 Alpha  occ. eigenvalues --  -10.34911 -10.34373 -10.34054 -10.33656 -10.32989
 Alpha  occ. eigenvalues --  -10.32502 -10.32293 -10.31964 -10.31910 -10.31872
 Alpha  occ. eigenvalues --  -10.31805 -10.31804 -10.31602 -10.31587 -10.31466
 Alpha  occ. eigenvalues --  -10.31315 -10.31084 -10.30794 -10.30575 -10.30572
 Alpha  occ. eigenvalues --  -10.30500 -10.30211 -10.30073 -10.29796 -10.29716
 Alpha  occ. eigenvalues --  -10.29699 -10.29688 -10.29615 -10.29483 -10.29470
 Alpha  occ. eigenvalues --  -10.29202 -10.29161 -10.29084 -10.29010 -10.28953
 Alpha  occ. eigenvalues --  -10.28896 -10.28840 -10.28795 -10.28761 -10.28693
 Alpha  occ. eigenvalues --  -10.28635 -10.28541 -10.28327 -10.28169 -10.27962
 Alpha  occ. eigenvalues --  -10.27647  -3.20446  -1.94044  -1.93562  -1.93425
 Alpha  occ. eigenvalues --   -1.17947  -1.16349  -1.13712  -1.11373  -1.09545
 Alpha  occ. eigenvalues --   -1.07773  -1.05993  -1.04447  -1.03871  -1.02847
 Alpha  occ. eigenvalues --   -0.93687  -0.93336  -0.91700  -0.90915  -0.90844
 Alpha  occ. eigenvalues --   -0.90457  -0.89945  -0.89250  -0.89169  -0.88793
 Alpha  occ. eigenvalues --   -0.87471  -0.87185  -0.86315  -0.85431  -0.85212
 Alpha  occ. eigenvalues --   -0.84642  -0.83415  -0.82855  -0.82604  -0.82150
 Alpha  occ. eigenvalues --   -0.82005  -0.80362  -0.79270  -0.78752  -0.77907
 Alpha  occ. eigenvalues --   -0.77670  -0.77018  -0.76652  -0.76618  -0.75771
 Alpha  occ. eigenvalues --   -0.75012  -0.74126  -0.73254  -0.72035  -0.70723
 Alpha  occ. eigenvalues --   -0.70515  -0.70062  -0.69347  -0.69268  -0.67781
 Alpha  occ. eigenvalues --   -0.67454  -0.66701  -0.66525  -0.66280  -0.65074
 Alpha  occ. eigenvalues --   -0.64790  -0.64515  -0.63164  -0.63080  -0.62004
 Alpha  occ. eigenvalues --   -0.61309  -0.61076  -0.60829  -0.59960  -0.59746
 Alpha  occ. eigenvalues --   -0.59115  -0.58924  -0.58030  -0.57856  -0.57265
 Alpha  occ. eigenvalues --   -0.56936  -0.56560  -0.56208  -0.56036  -0.55599
 Alpha  occ. eigenvalues --   -0.55479  -0.55352  -0.55120  -0.55042  -0.54814
 Alpha  occ. eigenvalues --   -0.54680  -0.54371  -0.54169  -0.53800  -0.53780
 Alpha  occ. eigenvalues --   -0.53351  -0.53241  -0.52988  -0.52871  -0.52775
 Alpha  occ. eigenvalues --   -0.52682  -0.52435  -0.51967  -0.51783  -0.51398
 Alpha  occ. eigenvalues --   -0.51321  -0.51238  -0.50957  -0.50568  -0.50530
 Alpha  occ. eigenvalues --   -0.50332  -0.50126  -0.49919  -0.49832  -0.49532
 Alpha  occ. eigenvalues --   -0.49313  -0.49277  -0.49056  -0.48619  -0.48481
 Alpha  occ. eigenvalues --   -0.48139  -0.48110  -0.47832  -0.47432  -0.47380
 Alpha  occ. eigenvalues --   -0.47181  -0.46965  -0.46895  -0.46755  -0.46657
 Alpha  occ. eigenvalues --   -0.46595  -0.46524  -0.46157  -0.45813  -0.45744
 Alpha  occ. eigenvalues --   -0.45272  -0.45247  -0.45165  -0.45112  -0.45061
 Alpha  occ. eigenvalues --   -0.44842  -0.44628  -0.44205  -0.44085  -0.43914
 Alpha  occ. eigenvalues --   -0.43697  -0.43381  -0.43141  -0.43054  -0.42842
 Alpha  occ. eigenvalues --   -0.42253  -0.42140  -0.42056  -0.41923  -0.41539
 Alpha  occ. eigenvalues --   -0.41495  -0.41439  -0.41266  -0.40978  -0.40696
 Alpha  occ. eigenvalues --   -0.40443  -0.39930  -0.39753  -0.39279  -0.39095
 Alpha  occ. eigenvalues --   -0.39016  -0.38530  -0.38279  -0.38217  -0.38085
 Alpha  occ. eigenvalues --   -0.37443  -0.36959  -0.36583  -0.36138  -0.35746
 Alpha  occ. eigenvalues --   -0.35679  -0.35394  -0.35237  -0.33825  -0.33410
 Alpha  occ. eigenvalues --   -0.32793  -0.32119  -0.31625  -0.30664  -0.25925
 Alpha  occ. eigenvalues --   -0.23064
 Alpha virt. eigenvalues --   -0.06741   0.00246   0.02182   0.04286   0.05969
 Alpha virt. eigenvalues --    0.06177   0.07391   0.07797   0.08312   0.09659
 Alpha virt. eigenvalues --    0.10688   0.11559   0.12293   0.12359   0.12895

 Mulliken charges:
               1
     1  Mg   0.956260
     2  C    0.012169
     3  C   -0.099513
     4  C   -0.065585
     5  C   -0.067058
     6  N   -0.380659
     7  C   -0.009731
     8  C   -0.054670
     9  C   -0.155095
    10  C    0.112683
    11  C    0.023494
    12  C    0.067815
    13  C   -0.058692
    14  C    0.249922
    15  O   -0.292773
    16  O   -0.384773
    17  N   -0.509999
    18  C    0.184629
    19  C   -0.168002
    20  C   -0.051496
    21  C    0.184844
    22  C    0.065721
    23  C    0.037439
    24  O   -0.218307
    25  C   -0.018970
    26  N   -0.317963
    27  C    0.037732
    28  C   -0.121185
    29  C   -0.060595
    30  C    0.021325
    31  C    0.018113
    32  C    0.000733
    33  C   -0.057010
    34  N   -0.463820
    35  C    0.166635
    36  C   -0.208760
    37  C   -0.042357
    38  C    0.161319
    39  C    0.091166
    40  C    0.152686
    41  O   -0.199377
    42  C   -0.164719
    43  C    0.271602
    44  O   -0.250222
    45  O   -0.373804
    46  C    0.150001
    47  C    0.266282
    48  C   -0.119351
    49  C   -0.257319
    50  C    0.039424
    51  C    0.063371
    52  C   -0.004631
    53  C   -0.010220
    54  C   -0.200964
    55  C    0.013006
    56  C   -0.013586
    57  C    0.007743
    58  C   -0.027719
    59  C   -0.181970
    60  C   -0.007841
    61  C   -0.013900
    62  C   -0.015584
    63  C    0.010042
    64  C   -0.242296
    65  C    0.022643
    66  C   -0.014293
    67  H   -0.007785
    68  H    0.020237
    69  H   -0.018447
    70  H    0.051229
    71  H    0.036806
    72  H    0.037398
    73  H    0.041476
    74  H    0.050556
    75  H    0.047804
    76  H    0.034797
    77  H    0.077791
    78  H    0.062939
    79  H    0.052925
    80  H    0.034519
    81  H    0.066054
    82  H    0.061813
    83  H    0.055409
    84  H    0.047190
    85  H    0.040352
    86  H    0.034204
    87  H    0.035053
    88  H    0.050511
    89  H    0.041393
    90  H    0.031201
    91  H    0.027898
    92  H    0.040931
    93  H    0.031136
    94  H    0.041077
    95  H    0.018946
    96  H    0.069887
    97  H    0.044852
    98  H    0.079448
    99  H    0.059814
   100  H    0.050918
   101  H    0.052403
   102  H    0.050807
   103  H    0.053524
   104  H    0.004609
   105  H    0.043486
   106  H    0.034772
   107  H    0.061906
   108  H    0.033714
   109  H    0.019324
   110  H    0.030989
   111  H    0.021408
   112  H    0.011902
   113  H    0.011743
   114  H    0.008197
   115  H    0.036503
   116  H    0.031977
   117  H    0.022778
   118  H    0.023719
   119  H    0.026999
   120  H    0.026070
   121  H    0.015618
   122  H    0.020817
   123  H    0.034291
   124  H    0.017190
   125  H    0.040873
   126  H    0.020978
   127  H    0.016914
   128  H    0.017443
   129  H    0.016099
   130  H    0.028817
   131  H    0.043207
   132  H    0.019239
   133  H    0.011621
   134  H    0.019805
   135  H    0.022375
   136  H    0.010813
   137  H    0.025165
   138  H    0.021411
   139  H    0.023635
   140  H    0.032539
 Sum of Mulliken charges =  -0.00000

 Dipole moment (field-independent basis, Debye):
    X=             -2.6451    Y=              4.3000    Z=             -0.9063  Tot=              5.1291
 Quadrupole moment (field-independent basis, Debye-Ang):
   XX=           -355.1745   YY=           -405.5834   ZZ=           -403.7498
   XY=             11.2371   XZ=             17.1403   YZ=             -6.9369

 Normal termination of Gaussian 16 at Fri Apr 29 11:27:12 2022.
