 Gaussian 16, Revision A.03,
 Gaussian 16:  ES64L-G16RevA.03 25-Dec-2016

 --------------------
 #p ZINDO=(nstates=5)
 --------------------

 ----------------------------
 step_251_chromophore_7 ZINDO
 ----------------------------
 Symbolic Z-matrix:
 Charge =  0 Multiplicity = 1

                         Standard orientation:
 ---------------------------------------------------------------------
 Center     Atomic      Atomic             Coordinates (Angstroms)
 Number     Number       Type             X           Y           Z
 ---------------------------------------------------------------------
      1         12           0        6.082694    0.386765    0.234085
      2          6           0        3.578387   -2.102645    0.016750
      3          6           0        3.730151    2.742946   -0.674555
      4          6           0        8.557758    2.699946    0.164265
      5          6           0        8.479251   -2.071062    0.944720
      6          7           0        3.954270    0.209767   -0.349438
      7          6           0        3.075772   -0.853889   -0.157303
      8          6           0        1.579684   -0.429355   -0.455477
      9          6           0        1.754570    1.037834   -0.930120
     10          6           0        3.245793    1.368685   -0.697330
     11          6           0        1.329053    1.397254   -2.402834
     12          6           0        0.518038   -0.718706    0.683331
     13          6           0       -0.608543   -1.625804    0.290455
     14          6           0       -2.023300   -1.281098    0.903751
     15          8           0       -2.199501   -0.447815    1.817752
     16          8           0       -3.086001   -2.022110    0.432737
     17          7           0        6.085981    2.381407   -0.202249
     18          6           0        5.025308    3.215960   -0.490760
     19          6           0        5.519536    4.564572   -0.720289
     20          6           0        6.923103    4.608211   -0.486000
     21          6           0        7.260606    3.181270   -0.128726
     22          6           0        4.612611    5.780645   -0.996553
     23          6           0        7.890621    5.786705   -0.525485
     24          8           0        9.062390    5.709922   -0.218182
     25          6           0        7.468644    7.274542   -0.866456
     26          7           0        8.257282    0.297059    0.425527
     27          6           0        9.028058    1.374795    0.360170
     28          6           0       10.540651    1.033381    0.608388
     29          6           0       10.477313   -0.481322    1.053241
     30          6           0        8.967321   -0.792155    0.823917
     31          6           0       11.428783    1.394579   -0.617257
     32          6           0       10.993731   -0.685450    2.463765
     33          6           0       11.871122   -1.924495    2.633117
     34          7           0        6.164661   -1.692699    0.325887
     35          6           0        7.170634   -2.554949    0.717930
     36          6           0        6.658065   -3.885840    0.606080
     37          6           0        5.262227   -3.788405    0.382773
     38          6           0        4.975311   -2.406274    0.204547
     39          6           0        7.431423   -5.135906    0.792181
     40          6           0        4.006374   -4.555068    0.306886
     41          8           0        3.764454   -5.758211    0.278304
     42          6           0        2.797773   -3.358920    0.087400
     43          6           0        2.064733   -3.629773   -1.109756
     44          8           0        2.190930   -3.019135   -2.148970
     45          8           0        1.101403   -4.587574   -0.887084
     46          6           0        0.351896   -4.942466   -2.117934
     47          6           0       -4.507943   -1.924399    0.842153
     48          6           0       -5.228588   -1.713263   -0.477879
     49          6           0       -5.769491   -0.607726   -1.113550
     50          6           0       -5.308014    0.798797   -0.773132
     51          6           0       -6.713996   -0.742425   -2.221673
     52          6           0       -8.104862   -0.856746   -1.799070
     53          6           0       -9.006041    0.433227   -2.135498
     54          6           0      -10.386146    0.310839   -2.922487
     55          6           0      -10.366935    1.097335   -4.195258
     56          6           0      -11.675704    0.670809   -2.112872
     57          6           0      -12.209009   -0.487776   -1.174992
     58          6           0      -12.880082    0.039153    0.079923
     59          6           0      -14.233554   -0.622949    0.318793
     60          6           0      -15.394193   -0.237253   -0.676450
     61          6           0      -14.636464   -0.351331    1.826206
     62          6           0      -14.494422    1.124057    2.353920
     63          6           0      -13.422420    1.193059    3.437253
     64          6           0      -12.579788    2.534658    3.275700
     65          6           0      -11.395170    2.394508    2.422234
     66          6           0      -12.136833    3.239378    4.616348
     67          1           0        2.997934    3.536738   -0.837609
     68          1           0        9.399976    3.392005    0.108246
     69          1           0        9.269636   -2.757833    1.256801
     70          1           0        1.338770   -0.946622   -1.383559
     71          1           0        1.187799    1.717712   -0.293939
     72          1           0        0.840171    2.370811   -2.355349
     73          1           0        0.660810    0.617765   -2.768002
     74          1           0        2.159378    1.472406   -3.105262
     75          1           0        0.161540    0.258043    1.010692
     76          1           0        1.053814   -1.219325    1.490001
     77          1           0       -0.386144   -2.645711    0.606932
     78          1           0       -0.613685   -1.564690   -0.797453
     79          1           0        4.711528    6.410616   -0.113268
     80          1           0        3.571705    5.456749   -0.980083
     81          1           0        4.871461    6.378669   -1.871201
     82          1           0        6.686809    7.569349   -0.165679
     83          1           0        7.321826    7.438454   -1.934424
     84          1           0        8.393709    7.843460   -0.778188
     85          1           0       10.972078    1.563334    1.457340
     86          1           0       11.039153   -1.034412    0.300302
     87          1           0       12.036823    0.524681   -0.867202
     88          1           0       12.020659    2.298580   -0.471642
     89          1           0       10.795160    1.612166   -1.475508
     90          1           0       10.186983   -0.729838    3.194665
     91          1           0       11.564678    0.156720    2.857823
     92          1           0       11.840216   -2.559114    1.747392
     93          1           0       11.445345   -2.486423    3.464887
     94          1           0       12.884010   -1.677845    2.951820
     95          1           0        8.493625   -5.039810    1.016900
     96          1           0        7.130448   -5.799786   -0.019134
     97          1           0        7.110983   -5.468725    1.779716
     98          1           0        2.122929   -3.377265    0.943648
     99          1           0        1.039525   -5.326999   -2.871519
    100          1           0       -0.197888   -4.045653   -2.403410
    101          1           0       -0.368582   -5.744048   -1.959949
    102          1           0       -4.601473   -1.071435    1.515090
    103          1           0       -4.877774   -2.823109    1.336784
    104          1           0       -5.655811   -2.646972   -0.843081
    105          1           0       -4.870492    0.776574    0.225261
    106          1           0       -6.201000    1.424167   -0.768516
    107          1           0       -4.607410    1.166532   -1.523355
    108          1           0       -6.575519   -1.646866   -2.813795
    109          1           0       -6.475816    0.187915   -2.739140
    110          1           0       -8.130001   -1.122057   -0.741964
    111          1           0       -8.513374   -1.687489   -2.374649
    112          1           0       -8.498404    1.260500   -2.632877
    113          1           0       -9.360515    0.755030   -1.155757
    114          1           0      -10.346542   -0.763977   -3.093328
    115          1           0      -10.953452    0.443660   -4.841104
    116          1           0       -9.385340    1.452121   -4.511142
    117          1           0      -10.975495    1.999180   -4.126036
    118          1           0      -12.468197    0.877720   -2.832633
    119          1           0      -11.438009    1.530814   -1.487030
    120          1           0      -11.419077   -1.206691   -0.956140
    121          1           0      -12.990559   -0.963745   -1.765690
    122          1           0      -13.126213    1.094719   -0.029423
    123          1           0      -12.191144   -0.104852    0.913136
    124          1           0      -14.053885   -1.688884    0.175679
    125          1           0      -15.830843   -0.973322   -1.351960
    126          1           0      -15.155065    0.659442   -1.248084
    127          1           0      -16.228854    0.069245   -0.046239
    128          1           0      -13.987677   -1.009759    2.404355
    129          1           0      -15.653368   -0.726224    1.949836
    130          1           0      -15.445842    1.201729    2.880013
    131          1           0      -14.304714    1.912337    1.626081
    132          1           0      -12.815588    0.290124    3.504351
    133          1           0      -13.894347    1.262428    4.417213
    134          1           0      -13.208962    3.347844    2.913747
    135          1           0      -10.965275    3.372133    2.203947
    136          1           0      -11.626099    1.911584    1.472201
    137          1           0      -10.652885    1.870026    3.025064
    138          1           0      -11.054475    3.363637    4.634033
    139          1           0      -12.454784    2.599923    5.440244
    140          1           0      -12.602788    4.223130    4.687569
 ---------------------------------------------------------------------

 SCF Done:  E(RZINDO/S) =  -473.953427429     A.U. after   18 cycles

 Excitation energies and oscillator strengths:

 Excited State   1:      Singlet-A      1.4036 eV  883.33 nm  f=0.5117  <S**2>=0.000
     175 ->178         0.15572
     176 ->177         0.67381
 This state for optimization and/or second-order correction.
 Total Energy, E(CIS/TDA) =  -473.901845977
 Copying the excited state density for this state as the 1-particle RhoCI density.

 Excited State   2:      Singlet-A      1.9724 eV  628.59 nm  f=0.0416  <S**2>=0.000
     175 ->177         0.53602
     176 ->178        -0.42410

 Excited State   3:      Singlet-A      2.8696 eV  432.07 nm  f=0.0007  <S**2>=0.000
     167 ->177         0.16625
     167 ->179        -0.22892
     167 ->180         0.10744
     167 ->186        -0.10924
     168 ->177         0.30130
     168 ->178        -0.10883
     168 ->179        -0.39126
     168 ->180         0.18114
     168 ->184        -0.13623
     168 ->186        -0.18486

 Excited State   4:      Singlet-A      3.0039 eV  412.74 nm  f=0.9252  <S**2>=0.000
     175 ->177         0.37907
     176 ->178         0.48087
     176 ->179        -0.18538
     176 ->180        -0.21662

 Excited State   5:      Singlet-A      3.0745 eV  403.27 nm  f=0.4204  <S**2>=0.000
     175 ->177         0.14469
     175 ->178        -0.11534
     176 ->178         0.22930
     176 ->179         0.52461
     176 ->180         0.29637

 The electronic state is 1-A.
 Alpha  occ. eigenvalues --   -1.81228  -1.79171  -1.77600  -1.72460  -1.69222
 Alpha  occ. eigenvalues --   -1.67906  -1.66032  -1.61876  -1.60120  -1.56356
 Alpha  occ. eigenvalues --   -1.55150  -1.52092  -1.49884  -1.49155  -1.47794
 Alpha  occ. eigenvalues --   -1.43093  -1.41205  -1.39385  -1.38708  -1.38084
 Alpha  occ. eigenvalues --   -1.35188  -1.32737  -1.32331  -1.31972  -1.28400
 Alpha  occ. eigenvalues --   -1.27950  -1.24483  -1.21121  -1.20260  -1.17548
 Alpha  occ. eigenvalues --   -1.16893  -1.15781  -1.15384  -1.14268  -1.12435
 Alpha  occ. eigenvalues --   -1.12103  -1.10472  -1.10055  -1.04475  -1.02994
 Alpha  occ. eigenvalues --   -1.02255  -1.00138  -0.98007  -0.97359  -0.96994
 Alpha  occ. eigenvalues --   -0.96616  -0.95437  -0.94190  -0.93143  -0.92314
 Alpha  occ. eigenvalues --   -0.90917  -0.90648  -0.88606  -0.87914  -0.85977
 Alpha  occ. eigenvalues --   -0.83846  -0.83774  -0.82032  -0.81250  -0.80211
 Alpha  occ. eigenvalues --   -0.79855  -0.78409  -0.77496  -0.77027  -0.76475
 Alpha  occ. eigenvalues --   -0.75320  -0.75163  -0.74593  -0.74192  -0.73304
 Alpha  occ. eigenvalues --   -0.72727  -0.72379  -0.72144  -0.71464  -0.70690
 Alpha  occ. eigenvalues --   -0.69520  -0.69311  -0.69013  -0.68332  -0.68269
 Alpha  occ. eigenvalues --   -0.67677  -0.67490  -0.66972  -0.66706  -0.66069
 Alpha  occ. eigenvalues --   -0.65448  -0.64996  -0.64739  -0.64247  -0.63965
 Alpha  occ. eigenvalues --   -0.63456  -0.63215  -0.63159  -0.62494  -0.61307
 Alpha  occ. eigenvalues --   -0.60994  -0.60832  -0.60561  -0.60019  -0.59220
 Alpha  occ. eigenvalues --   -0.59003  -0.58901  -0.58569  -0.58418  -0.58093
 Alpha  occ. eigenvalues --   -0.57501  -0.56985  -0.56891  -0.56744  -0.56398
 Alpha  occ. eigenvalues --   -0.56290  -0.55680  -0.55258  -0.54676  -0.54447
 Alpha  occ. eigenvalues --   -0.54156  -0.53606  -0.53514  -0.53140  -0.52777
 Alpha  occ. eigenvalues --   -0.52585  -0.52143  -0.51685  -0.51410  -0.51307
 Alpha  occ. eigenvalues --   -0.51267  -0.50838  -0.50388  -0.50139  -0.49930
 Alpha  occ. eigenvalues --   -0.49738  -0.49480  -0.49441  -0.49225  -0.48947
 Alpha  occ. eigenvalues --   -0.48663  -0.48189  -0.47996  -0.47833  -0.47337
 Alpha  occ. eigenvalues --   -0.47071  -0.46928  -0.46637  -0.46470  -0.46174
 Alpha  occ. eigenvalues --   -0.46039  -0.45756  -0.45451  -0.45222  -0.44846
 Alpha  occ. eigenvalues --   -0.44781  -0.44578  -0.44470  -0.44379  -0.43977
 Alpha  occ. eigenvalues --   -0.43817  -0.43265  -0.42550  -0.42494  -0.42212
 Alpha  occ. eigenvalues --   -0.41552  -0.41332  -0.41077  -0.39036  -0.38870
 Alpha  occ. eigenvalues --   -0.38256  -0.36678  -0.36173  -0.34784  -0.34444
 Alpha  occ. eigenvalues --   -0.34238  -0.32445  -0.31424  -0.30808  -0.26795
 Alpha  occ. eigenvalues --   -0.21994
 Alpha virt. eigenvalues --   -0.08051  -0.02070  -0.00746   0.01120   0.01720
 Alpha virt. eigenvalues --    0.02733   0.02893   0.03258   0.04081   0.04615
 Alpha virt. eigenvalues --    0.05687   0.06792   0.07164   0.07354   0.07879

 Mulliken charges:
               1
     1  Mg   0.424450
     2  C   -0.004633
     3  C   -0.091392
     4  C   -0.074563
     5  C   -0.048824
     6  N   -0.290648
     7  C    0.081696
     8  C   -0.009009
     9  C    0.006799
    10  C    0.177501
    11  C   -0.047651
    12  C   -0.018475
    13  C    0.016463
    14  C    0.458606
    15  O   -0.532342
    16  O   -0.283363
    17  N   -0.344729
    18  C    0.153819
    19  C    0.033281
    20  C   -0.031362
    21  C    0.147904
    22  C   -0.046490
    23  C    0.322862
    24  O   -0.499833
    25  C   -0.038839
    26  N   -0.254386
    27  C    0.180527
    28  C   -0.006856
    29  C    0.002040
    30  C    0.078290
    31  C   -0.050510
    32  C   -0.022472
    33  C   -0.059618
    34  N   -0.324326
    35  C    0.058605
    36  C    0.015933
    37  C   -0.072742
    38  C    0.082671
    39  C   -0.047808
    40  C    0.320165
    41  O   -0.517264
    42  C    0.049335
    43  C    0.497153
    44  O   -0.532792
    45  O   -0.272490
    46  C    0.074709
    47  C    0.121374
    48  C   -0.117872
    49  C    0.013633
    50  C   -0.042887
    51  C   -0.009134
    52  C   -0.020527
    53  C   -0.057900
    54  C   -0.019404
    55  C   -0.056884
    56  C   -0.037774
    57  C   -0.045025
    58  C   -0.029962
    59  C   -0.012900
    60  C   -0.062436
    61  C   -0.041075
    62  C   -0.036344
    63  C   -0.033711
    64  C   -0.019939
    65  C   -0.049392
    66  C   -0.066328
    67  H    0.026677
    68  H    0.043776
    69  H    0.020855
    70  H    0.043677
    71  H    0.026478
    72  H    0.018775
    73  H    0.027071
    74  H    0.028546
    75  H    0.037051
    76  H    0.024740
    77  H    0.049465
    78  H    0.045289
    79  H    0.028788
    80  H    0.027327
    81  H    0.040223
    82  H    0.044199
    83  H    0.040515
    84  H    0.037152
    85  H    0.032052
    86  H    0.032514
    87  H    0.023493
    88  H    0.027425
    89  H    0.020931
    90  H    0.020394
    91  H    0.015667
    92  H    0.025069
    93  H    0.013421
    94  H    0.021464
    95  H    0.022797
    96  H    0.043879
    97  H    0.026392
    98  H    0.057051
    99  H    0.049971
   100  H    0.039701
   101  H    0.030716
   102  H    0.051331
   103  H    0.048406
   104  H    0.009368
   105  H    0.030064
   106  H    0.022798
   107  H    0.035592
   108  H    0.026932
   109  H    0.023243
   110  H    0.028921
   111  H    0.016409
   112  H    0.027049
   113  H    0.009480
   114  H    0.017360
   115  H    0.020385
   116  H    0.026446
   117  H    0.011970
   118  H    0.021853
   119  H    0.023626
   120  H    0.024304
   121  H    0.016611
   122  H    0.021287
   123  H    0.022662
   124  H    0.013755
   125  H    0.027675
   126  H    0.016779
   127  H    0.010588
   128  H    0.015159
   129  H    0.013417
   130  H    0.018618
   131  H    0.039463
   132  H    0.027740
   133  H    0.011962
   134  H    0.015453
   135  H    0.010131
   136  H    0.017779
   137  H    0.019724
   138  H    0.019978
   139  H    0.018285
   140  H    0.018960
 Sum of Mulliken charges =  -0.00000

 Dipole moment (field-independent basis, Debye):
    X=             -3.6714    Y=              8.9689    Z=             -1.0836  Tot=              9.7516
 N-N= 4.220048120525D+03 E-N= 0.000000000000D+00  KE=-9.114585997851D+03
 Leave Link  601 at Fri Apr 29 11:40:14 2022, MaxMem=  6710886400 cpu:               0.8 elap:               0.1
 (Enter /sw/apps/gaussian-16.0/g16/l9999.exe)
 1\1\GINC-BP1-COMPUTE148\SP\RZINDO CIS\STO-3G\C55H74Mg1N4O6\OF15641\29-
 Apr-2022\0\\#p ZINDO=(nstates=5)\\step_251_chromophore_7 ZINDO\\0,1\Mg
 ,0,25.946,0.51,29.417\C,0,27.755,0.048,32.422\C,0,23.084,0.983,31.287\
 C,0,24.188,0.657,26.524\C,0,28.835,-0.188,27.558\N,0,25.56,0.393,31.59
 4\C,0,26.468,0.414,32.65\C,0,25.735,0.616,34.039\C,0,24.243,0.627,33.6
 12\C,0,24.259,0.616,32.067\C,0,23.304,-0.509,34.166\C,0,26.254,1.802,3
 4.951\C,0,26.764,1.394,36.3\C,0,26.453,2.387,37.489\O,0,25.999,3.54,37

 Normal termination of Gaussian 16 at Fri Apr 29 11:40:14 2022.
