 Gaussian 16, Revision A.03,
 Gaussian 16:  ES64L-G16RevA.03 25-Dec-2016

 ------------------------------
 #p blyp/Def2SVP td=(nstates=5)
 ------------------------------

 ---------------------------------------------------
 step_1351_chromophore_18 TDDFT with blyp functional
 ---------------------------------------------------
 Symbolic Z-matrix:
 Charge =  0 Multiplicity = 1

                         Standard orientation:
 ---------------------------------------------------------------------
 Center     Atomic      Atomic             Coordinates (Angstroms)
 Number     Number       Type             X           Y           Z
 ---------------------------------------------------------------------
      1         12           0        5.338198    1.220736    0.510516
      2          6           0        4.768191   -2.275250    0.239512
      3          6           0        2.052625    1.711810   -0.042259
      4          6           0        6.075359    4.470295   -0.204170
      5          6           0        8.803071    0.476886    0.012600
      6          7           0        3.582938   -0.248897    0.166836
      7          6           0        3.563537   -1.597512    0.327879
      8          6           0        2.114296   -2.058708    0.366855
      9          6           0        1.219446   -0.777882    0.098041
     10          6           0        2.321496    0.308999    0.077239
     11          6           0        0.285603   -0.736306   -1.144314
     12          6           0        1.751536   -2.913950    1.599078
     13          6           0        0.991517   -4.219308    1.315786
     14          6           0        0.105600   -4.483792    0.117743
     15          8           0        0.481818   -5.174326   -0.831793
     16          8           0       -1.067370   -3.677197    0.240197
     17          7           0        4.177376    2.908529    0.174450
     18          6           0        2.811347    2.844946    0.053955
     19          6           0        2.354056    4.233059    0.042005
     20          6           0        3.527829    5.032648   -0.149267
     21          6           0        4.683155    4.130293   -0.156097
     22          6           0        0.917683    4.560149    0.215137
     23          6           0        3.566441    6.592592   -0.352701
     24          8           0        4.655018    7.124633   -0.543482
     25          6           0        2.344211    7.409269   -0.367465
     26          7           0        7.256900    2.405955    0.056658
     27          6           0        7.240431    3.727918   -0.134284
     28          6           0        8.740517    4.231725   -0.417332
     29          6           0        9.564028    2.884589   -0.361860
     30          6           0        8.503055    1.876494   -0.058683
     31          6           0        8.995700    5.108740   -1.709906
     32          6           0       10.771072    2.884970    0.715867
     33          6           0       10.361833    2.585826    2.132251
     34          7           0        6.596903   -0.509931    0.346517
     35          6           0        7.912351   -0.610101    0.163915
     36          6           0        8.293123   -2.040648    0.073114
     37          6           0        7.082117   -2.699866    0.137473
     38          6           0        6.025433   -1.728681    0.232672
     39          6           0        9.686994   -2.626301   -0.073135
     40          6           0        6.504899   -4.012103    0.024055
     41          8           0        7.016950   -5.091031   -0.178436
     42          6           0        4.983044   -3.816525    0.082647
     43          6           0        4.351921   -4.426220   -1.064496
     44          8           0        4.153738   -3.914068   -2.143151
     45          8           0        3.985192   -5.722752   -0.793922
     46          6           0        3.212919   -6.342102   -1.917236
     47          6           0       -1.916306   -3.830109   -0.955541
     48          6           0       -3.185597   -3.032380   -0.829528
     49          6           0       -4.366544   -3.436321   -0.236251
     50          6           0       -4.615033   -4.731989    0.475294
     51          6           0       -5.448935   -2.399287   -0.342023
     52          6           0       -6.037793   -1.937181    0.951424
     53          6           0       -6.733678   -0.538420    1.012478
     54          6           0       -8.022376   -0.725570    1.792425
     55          6           0       -7.728289   -0.716645    3.358125
     56          6           0       -9.181290    0.206617    1.465185
     57          6           0       -9.799015   -0.027477    0.001340
     58          6           0      -11.306245   -0.445922    0.010674
     59          6           0      -12.295782    0.797404   -0.054390
     60          6           0      -12.553228    1.405886    1.290656
     61          6           0      -13.612742    0.469821   -0.717210
     62          6           0      -14.357683    1.807358   -1.189102
     63          6           0      -15.554742    2.180555   -0.411981
     64          6           0      -16.908822    2.550392   -1.167814
     65          6           0      -17.575669    3.769805   -0.532518
     66          6           0      -17.942496    1.380996   -1.259542
     67          1           0        0.967335    1.834308   -0.046488
     68          1           0        6.319630    5.531503   -0.281644
     69          1           0        9.891771    0.399110   -0.023917
     70          1           0        1.873303   -2.651113   -0.516172
     71          1           0        0.614057   -0.482520    0.954987
     72          1           0       -0.668893   -0.397499   -0.741732
     73          1           0        0.164977   -1.697166   -1.645512
     74          1           0        0.667002   -0.050480   -1.901084
     75          1           0        1.081647   -2.374716    2.269030
     76          1           0        2.660788   -3.175583    2.139439
     77          1           0        0.483064   -4.574788    2.212466
     78          1           0        1.793848   -4.953098    1.237807
     79          1           0        0.492488    4.705251   -0.777072
     80          1           0        0.657284    5.437821    0.805627
     81          1           0        0.592322    3.665414    0.747003
     82          1           0        1.888144    6.996516   -1.267153
     83          1           0        2.561170    8.459436   -0.564777
     84          1           0        1.733179    7.141669    0.494278
     85          1           0        8.965438    4.663816    0.558011
     86          1           0       10.087038    2.662375   -1.291635
     87          1           0        9.517235    6.052547   -1.548167
     88          1           0        8.095919    5.552229   -2.136601
     89          1           0        9.587695    4.498156   -2.391505
     90          1           0       11.338941    3.814177    0.656064
     91          1           0       11.307754    1.984068    0.421191
     92          1           0        9.294978    2.529514    2.344729
     93          1           0       10.697785    3.327889    2.858083
     94          1           0       10.828751    1.653187    2.451149
     95          1           0       10.154177   -1.900853   -0.738300
     96          1           0        9.575168   -3.563938   -0.617463
     97          1           0       10.150201   -2.654285    0.913121
     98          1           0        4.782761   -4.301597    1.038108
     99          1           0        2.675143   -7.163280   -1.444631
    100          1           0        3.836382   -6.682954   -2.743377
    101          1           0        2.514415   -5.614271   -2.329525
    102          1           0       -2.245182   -4.868887   -0.932683
    103          1           0       -1.440719   -3.511644   -1.883377
    104          1           0       -3.178322   -2.078651   -1.356689
    105          1           0       -4.945709   -5.490088   -0.236187
    106          1           0       -5.374596   -4.598839    1.246138
    107          1           0       -3.696201   -5.109478    0.924486
    108          1           0       -6.222453   -2.879912   -0.941361
    109          1           0       -5.071992   -1.606371   -0.989133
    110          1           0       -5.176269   -1.922403    1.619187
    111          1           0       -6.750053   -2.747752    1.107271
    112          1           0       -7.091996   -0.181590    0.046361
    113          1           0       -6.154821    0.203197    1.561271
    114          1           0       -8.402368   -1.718930    1.555747
    115          1           0       -6.664568   -0.902231    3.507914
    116          1           0       -8.175812   -1.626443    3.755592
    117          1           0       -8.075089    0.145453    3.928561
    118          1           0       -8.865281    1.249459    1.428186
    119          1           0       -9.906584    0.217212    2.277403
    120          1           0       -9.222796   -0.722194   -0.609883
    121          1           0       -9.739876    0.982009   -0.407270
    122          1           0      -11.445698   -0.992515    0.943313
    123          1           0      -11.457828   -1.251614   -0.707722
    124          1           0      -11.771560    1.544021   -0.651935
    125          1           0      -13.532137    1.063396    1.626366
    126          1           0      -12.431392    2.485962    1.211276
    127          1           0      -11.784463    1.166170    2.024143
    128          1           0      -14.231482   -0.145486   -0.064586
    129          1           0      -13.491243   -0.206226   -1.562900
    130          1           0      -14.603467    1.721608   -2.247834
    131          1           0      -13.793011    2.721901   -1.003598
    132          1           0      -15.310483    2.957001    0.312405
    133          1           0      -15.833895    1.300631    0.167104
    134          1           0      -16.760401    2.891042   -2.192628
    135          1           0      -17.723260    4.509644   -1.319627
    136          1           0      -16.856740    4.268982    0.117514
    137          1           0      -18.467774    3.561727    0.057678
    138          1           0      -18.958935    1.770290   -1.316226
    139          1           0      -17.831083    0.656684   -0.452233
    140          1           0      -17.722351    0.852608   -2.187005
 ---------------------------------------------------------------------

 SCF Done:  E(RB-LYP) =  -3007.35082174     A.U. after   20 cycles

 Excitation energies and oscillator strengths:

 Excited State   1:      Singlet-A      1.8655 eV  664.62 nm  f=0.2711  <S**2>=0.000
     245 -> 248       -0.22322
     246 -> 247        0.67925
     246 <- 247       -0.13121
 This state for optimization and/or second-order correction.
 Total Energy, E(TD-HF/TD-DFT) =  -3007.28226660
 Copying the excited state density for this state as the 1-particle RhoCI density.

 Excited State   2:      Singlet-A      2.0547 eV  603.43 nm  f=0.0145  <S**2>=0.000
     244 -> 247        0.53914
     245 -> 247       -0.41380
     246 -> 248       -0.17676

 Excited State   3:      Singlet-A      2.1079 eV  588.18 nm  f=0.0254  <S**2>=0.000
     243 -> 247        0.12909
     244 -> 247        0.45363
     245 -> 247        0.45609
     246 -> 248        0.25053

 Excited State   4:      Singlet-A      2.1743 eV  570.23 nm  f=0.0018  <S**2>=0.000
     243 -> 247        0.69157
     245 -> 247       -0.11061

 Excited State   5:      Singlet-A      2.5940 eV  477.96 nm  f=0.0006  <S**2>=0.000
     242 -> 247        0.68736
     246 -> 248       -0.12349

 The electronic state is 1-A.
 Alpha  occ. eigenvalues --  -46.28672 -18.82780 -18.80365 -18.78636 -18.75425
 Alpha  occ. eigenvalues --  -18.75397 -18.75075 -14.02924 -14.02321 -14.00949
 Alpha  occ. eigenvalues --  -14.00796 -10.05074 -10.02368  -9.99680  -9.99011
 Alpha  occ. eigenvalues --   -9.97647  -9.96490  -9.96184  -9.95871  -9.95777
 Alpha  occ. eigenvalues --   -9.95614  -9.95431  -9.95414  -9.95124  -9.94198
 Alpha  occ. eigenvalues --   -9.94161  -9.94079  -9.94025  -9.93933  -9.93783
 Alpha  occ. eigenvalues --   -9.93432  -9.93357  -9.93340  -9.93295  -9.93200
 Alpha  occ. eigenvalues --   -9.93107  -9.93035  -9.93000  -9.92872  -9.92757
 Alpha  occ. eigenvalues --   -9.92498  -9.92484  -9.92394  -9.92353  -9.92176
 Alpha  occ. eigenvalues --   -9.92151  -9.92133  -9.92020  -9.91996  -9.91933
 Alpha  occ. eigenvalues --   -9.91932  -9.91871  -9.91801  -9.91772  -9.91486
 Alpha  occ. eigenvalues --   -9.91380  -9.91311  -9.91260  -9.91247  -9.91207
 Alpha  occ. eigenvalues --   -9.91115  -9.90887  -9.90768  -9.90590  -9.90343
 Alpha  occ. eigenvalues --   -9.90276  -2.92963  -1.73382  -1.72872  -1.72656
 Alpha  occ. eigenvalues --   -0.96851  -0.96412  -0.91715  -0.91076  -0.90673
 Alpha  occ. eigenvalues --   -0.88224  -0.86650  -0.85519  -0.85261  -0.84601
 Alpha  occ. eigenvalues --   -0.75556  -0.74666  -0.73312  -0.72788  -0.72362
 Alpha  occ. eigenvalues --   -0.72111  -0.71390  -0.70960  -0.70387  -0.69730
 Alpha  occ. eigenvalues --   -0.69432  -0.69014  -0.68222  -0.67114  -0.66808
 Alpha  occ. eigenvalues --   -0.66617  -0.66373  -0.65548  -0.64840  -0.64477
 Alpha  occ. eigenvalues --   -0.64309  -0.62787  -0.62043  -0.61358  -0.61290
 Alpha  occ. eigenvalues --   -0.60132  -0.60091  -0.59896  -0.59647  -0.59240
 Alpha  occ. eigenvalues --   -0.58323  -0.57396  -0.56805  -0.56122  -0.54902
 Alpha  occ. eigenvalues --   -0.54016  -0.53406  -0.52356  -0.51846  -0.51396
 Alpha  occ. eigenvalues --   -0.51106  -0.50538  -0.50448  -0.50024  -0.49911
 Alpha  occ. eigenvalues --   -0.49516  -0.49237  -0.48866  -0.47316  -0.46674
 Alpha  occ. eigenvalues --   -0.45876  -0.45783  -0.45551  -0.44974  -0.44659
 Alpha  occ. eigenvalues --   -0.43967  -0.43369  -0.43100  -0.42448  -0.42359
 Alpha  occ. eigenvalues --   -0.41997  -0.41820  -0.41680  -0.41412  -0.41284
 Alpha  occ. eigenvalues --   -0.40872  -0.40530  -0.40376  -0.40226  -0.40097
 Alpha  occ. eigenvalues --   -0.39905  -0.39807  -0.39684  -0.39261  -0.39227
 Alpha  occ. eigenvalues --   -0.39065  -0.38656  -0.38585  -0.38557  -0.38294
 Alpha  occ. eigenvalues --   -0.38194  -0.38033  -0.37619  -0.37520  -0.37426
 Alpha  occ. eigenvalues --   -0.37170  -0.37149  -0.36985  -0.36612  -0.36238
 Alpha  occ. eigenvalues --   -0.36156  -0.36038  -0.35876  -0.35722  -0.35488
 Alpha  occ. eigenvalues --   -0.35244  -0.35175  -0.35048  -0.34792  -0.34655
 Alpha  occ. eigenvalues --   -0.34546  -0.34355  -0.34120  -0.33923  -0.33793
 Alpha  occ. eigenvalues --   -0.33668  -0.33498  -0.33178  -0.32989  -0.32675
 Alpha  occ. eigenvalues --   -0.32621  -0.32567  -0.32504  -0.32308  -0.32080
 Alpha  occ. eigenvalues --   -0.32009  -0.31910  -0.31458  -0.31400  -0.31262
 Alpha  occ. eigenvalues --   -0.31122  -0.31064  -0.30907  -0.30700  -0.30532
 Alpha  occ. eigenvalues --   -0.30408  -0.30273  -0.29923  -0.29728  -0.29630
 Alpha  occ. eigenvalues --   -0.29589  -0.29378  -0.28988  -0.28801  -0.28775
 Alpha  occ. eigenvalues --   -0.28607  -0.28525  -0.28002  -0.27883  -0.27593
 Alpha  occ. eigenvalues --   -0.27415  -0.27274  -0.27120  -0.26679  -0.26162
 Alpha  occ. eigenvalues --   -0.26054  -0.25990  -0.25916  -0.25602  -0.25453
 Alpha  occ. eigenvalues --   -0.25400  -0.24973  -0.23731  -0.23727  -0.23566
 Alpha  occ. eigenvalues --   -0.23135  -0.22867  -0.21655  -0.20944  -0.20662
 Alpha  occ. eigenvalues --   -0.20599  -0.19663  -0.18531  -0.18224  -0.16914
 Alpha  occ. eigenvalues --   -0.15303
 Alpha virt. eigenvalues --   -0.10667  -0.06783  -0.05704  -0.04867  -0.04041
 Alpha virt. eigenvalues --   -0.03759  -0.03482  -0.01408  -0.01374   0.00905
 Alpha virt. eigenvalues --    0.01902   0.02015   0.02149   0.02491   0.02908

 Mulliken charges:
               1
     1  Mg   0.679767
     2  C   -0.020821
     3  C   -0.028447
     4  C   -0.044582
     5  C   -0.062077
     6  N   -0.211036
     7  C   -0.095496
     8  C    0.028223
     9  C   -0.010048
    10  C   -0.075248
    11  C    0.131672
    12  C    0.171371
    13  C    0.106159
    14  C    0.110429
    15  O   -0.188148
    16  O   -0.306605
    17  N   -0.323852
    18  C    0.176194
    19  C   -0.152888
    20  C    0.007558
    21  C    0.124447
    22  C    0.157016
    23  C   -0.090899
    24  O   -0.169861
    25  C    0.176802
    26  N   -0.165855
    27  C   -0.066325
    28  C    0.126828
    29  C   -0.022809
    30  C   -0.056497
    31  C    0.131722
    32  C    0.060459
    33  C    0.062621
    34  N   -0.201354
    35  C    0.143996
    36  C   -0.232349
    37  C    0.101450
    38  C    0.121939
    39  C    0.192853
    40  C   -0.109178
    41  O   -0.110741
    42  C    0.099235
    43  C    0.123760
    44  O   -0.180738
    45  O   -0.283722
    46  C    0.226958
    47  C    0.328852
    48  C   -0.144009
    49  C   -0.162755
    50  C    0.154362
    51  C    0.149812
    52  C    0.050409
    53  C    0.166588
    54  C   -0.121852
    55  C    0.104659
    56  C    0.090452
    57  C    0.060624
    58  C    0.101357
    59  C   -0.076014
    60  C    0.137181
    61  C    0.108574
    62  C    0.100499
    63  C    0.083679
    64  C   -0.093943
    65  C    0.097180
    66  C    0.099534
    67  H   -0.071637
    68  H   -0.043143
    69  H   -0.076336
    70  H    0.001522
    71  H   -0.023107
    72  H   -0.001413
    73  H   -0.000609
    74  H   -0.000946
    75  H   -0.021858
    76  H   -0.016105
    77  H   -0.013967
    78  H   -0.013483
    79  H    0.008132
    80  H   -0.006681
    81  H    0.003706
    82  H    0.001137
    83  H    0.000112
    84  H    0.013328
    85  H   -0.031757
    86  H   -0.020206
    87  H   -0.016687
    88  H    0.004066
    89  H   -0.001750
    90  H   -0.003977
    91  H   -0.014159
    92  H    0.001040
    93  H   -0.020808
    94  H   -0.014307
    95  H   -0.006863
    96  H    0.014698
    97  H    0.016350
    98  H    0.000105
    99  H    0.008427
   100  H    0.008117
   101  H    0.023126
   102  H   -0.017743
   103  H    0.009588
   104  H   -0.032959
   105  H    0.009148
   106  H   -0.003595
   107  H    0.003555
   108  H   -0.036142
   109  H   -0.044361
   110  H   -0.016869
   111  H   -0.010910
   112  H   -0.036751
   113  H   -0.026573
   114  H   -0.038579
   115  H   -0.027969
   116  H   -0.025551
   117  H   -0.002700
   118  H   -0.049743
   119  H   -0.019565
   120  H   -0.019084
   121  H   -0.033000
   122  H   -0.043684
   123  H   -0.047940
   124  H   -0.037984
   125  H   -0.008218
   126  H   -0.020542
   127  H   -0.031579
   128  H   -0.035296
   129  H   -0.047288
   130  H   -0.029974
   131  H   -0.026324
   132  H   -0.031915
   133  H   -0.043020
   134  H   -0.036432
   135  H   -0.021719
   136  H   -0.037054
   137  H   -0.008451
   138  H   -0.011307
   139  H   -0.011908
   140  H   -0.020705
 Sum of Mulliken charges =  -0.00000

 Dipole moment (field-independent basis, Debye):
    X=             -5.2522    Y=              2.2547    Z=              3.2557  Tot=              6.5779
 Quadrupole moment (field-independent basis, Debye-Ang):
   XX=           -393.6697   YY=           -433.6183   ZZ=           -404.9779
   XY=             29.1100   XZ=             16.2783   YZ=             -6.0602

 Normal termination of Gaussian 16 at Wed May  4 04:44:19 2022.
