 Gaussian 16, Revision A.03,
 Gaussian 16:  ES64L-G16RevA.03 25-Dec-2016

 -----------------------------------
 #p cam-b3lyp/Def2SVP td=(nstates=5)
 -----------------------------------

 --------------------------------------------------------
 step_1351_chromophore_18 TDDFT with cam-b3lyp functional
 --------------------------------------------------------
 Symbolic Z-matrix:
 Charge =  0 Multiplicity = 1

                         Standard orientation:
 ---------------------------------------------------------------------
 Center     Atomic      Atomic             Coordinates (Angstroms)
 Number     Number       Type             X           Y           Z
 ---------------------------------------------------------------------
      1         12           0        5.338198    1.220736    0.510516
      2          6           0        4.768191   -2.275250    0.239512
      3          6           0        2.052625    1.711810   -0.042259
      4          6           0        6.075359    4.470295   -0.204170
      5          6           0        8.803071    0.476886    0.012600
      6          7           0        3.582938   -0.248897    0.166836
      7          6           0        3.563537   -1.597512    0.327879
      8          6           0        2.114296   -2.058708    0.366855
      9          6           0        1.219446   -0.777882    0.098041
     10          6           0        2.321496    0.308999    0.077239
     11          6           0        0.285603   -0.736306   -1.144314
     12          6           0        1.751536   -2.913950    1.599078
     13          6           0        0.991517   -4.219308    1.315786
     14          6           0        0.105600   -4.483792    0.117743
     15          8           0        0.481818   -5.174326   -0.831793
     16          8           0       -1.067370   -3.677197    0.240197
     17          7           0        4.177376    2.908529    0.174450
     18          6           0        2.811347    2.844946    0.053955
     19          6           0        2.354056    4.233059    0.042005
     20          6           0        3.527829    5.032648   -0.149267
     21          6           0        4.683155    4.130293   -0.156097
     22          6           0        0.917683    4.560149    0.215137
     23          6           0        3.566441    6.592592   -0.352701
     24          8           0        4.655018    7.124633   -0.543482
     25          6           0        2.344211    7.409269   -0.367465
     26          7           0        7.256900    2.405955    0.056658
     27          6           0        7.240431    3.727918   -0.134284
     28          6           0        8.740517    4.231725   -0.417332
     29          6           0        9.564028    2.884589   -0.361860
     30          6           0        8.503055    1.876494   -0.058683
     31          6           0        8.995700    5.108740   -1.709906
     32          6           0       10.771072    2.884970    0.715867
     33          6           0       10.361833    2.585826    2.132251
     34          7           0        6.596903   -0.509931    0.346517
     35          6           0        7.912351   -0.610101    0.163915
     36          6           0        8.293123   -2.040648    0.073114
     37          6           0        7.082117   -2.699866    0.137473
     38          6           0        6.025433   -1.728681    0.232672
     39          6           0        9.686994   -2.626301   -0.073135
     40          6           0        6.504899   -4.012103    0.024055
     41          8           0        7.016950   -5.091031   -0.178436
     42          6           0        4.983044   -3.816525    0.082647
     43          6           0        4.351921   -4.426220   -1.064496
     44          8           0        4.153738   -3.914068   -2.143151
     45          8           0        3.985192   -5.722752   -0.793922
     46          6           0        3.212919   -6.342102   -1.917236
     47          6           0       -1.916306   -3.830109   -0.955541
     48          6           0       -3.185597   -3.032380   -0.829528
     49          6           0       -4.366544   -3.436321   -0.236251
     50          6           0       -4.615033   -4.731989    0.475294
     51          6           0       -5.448935   -2.399287   -0.342023
     52          6           0       -6.037793   -1.937181    0.951424
     53          6           0       -6.733678   -0.538420    1.012478
     54          6           0       -8.022376   -0.725570    1.792425
     55          6           0       -7.728289   -0.716645    3.358125
     56          6           0       -9.181290    0.206617    1.465185
     57          6           0       -9.799015   -0.027477    0.001340
     58          6           0      -11.306245   -0.445922    0.010674
     59          6           0      -12.295782    0.797404   -0.054390
     60          6           0      -12.553228    1.405886    1.290656
     61          6           0      -13.612742    0.469821   -0.717210
     62          6           0      -14.357683    1.807358   -1.189102
     63          6           0      -15.554742    2.180555   -0.411981
     64          6           0      -16.908822    2.550392   -1.167814
     65          6           0      -17.575669    3.769805   -0.532518
     66          6           0      -17.942496    1.380996   -1.259542
     67          1           0        0.967335    1.834308   -0.046488
     68          1           0        6.319630    5.531503   -0.281644
     69          1           0        9.891771    0.399110   -0.023917
     70          1           0        1.873303   -2.651113   -0.516172
     71          1           0        0.614057   -0.482520    0.954987
     72          1           0       -0.668893   -0.397499   -0.741732
     73          1           0        0.164977   -1.697166   -1.645512
     74          1           0        0.667002   -0.050480   -1.901084
     75          1           0        1.081647   -2.374716    2.269030
     76          1           0        2.660788   -3.175583    2.139439
     77          1           0        0.483064   -4.574788    2.212466
     78          1           0        1.793848   -4.953098    1.237807
     79          1           0        0.492488    4.705251   -0.777072
     80          1           0        0.657284    5.437821    0.805627
     81          1           0        0.592322    3.665414    0.747003
     82          1           0        1.888144    6.996516   -1.267153
     83          1           0        2.561170    8.459436   -0.564777
     84          1           0        1.733179    7.141669    0.494278
     85          1           0        8.965438    4.663816    0.558011
     86          1           0       10.087038    2.662375   -1.291635
     87          1           0        9.517235    6.052547   -1.548167
     88          1           0        8.095919    5.552229   -2.136601
     89          1           0        9.587695    4.498156   -2.391505
     90          1           0       11.338941    3.814177    0.656064
     91          1           0       11.307754    1.984068    0.421191
     92          1           0        9.294978    2.529514    2.344729
     93          1           0       10.697785    3.327889    2.858083
     94          1           0       10.828751    1.653187    2.451149
     95          1           0       10.154177   -1.900853   -0.738300
     96          1           0        9.575168   -3.563938   -0.617463
     97          1           0       10.150201   -2.654285    0.913121
     98          1           0        4.782761   -4.301597    1.038108
     99          1           0        2.675143   -7.163280   -1.444631
    100          1           0        3.836382   -6.682954   -2.743377
    101          1           0        2.514415   -5.614271   -2.329525
    102          1           0       -2.245182   -4.868887   -0.932683
    103          1           0       -1.440719   -3.511644   -1.883377
    104          1           0       -3.178322   -2.078651   -1.356689
    105          1           0       -4.945709   -5.490088   -0.236187
    106          1           0       -5.374596   -4.598839    1.246138
    107          1           0       -3.696201   -5.109478    0.924486
    108          1           0       -6.222453   -2.879912   -0.941361
    109          1           0       -5.071992   -1.606371   -0.989133
    110          1           0       -5.176269   -1.922403    1.619187
    111          1           0       -6.750053   -2.747752    1.107271
    112          1           0       -7.091996   -0.181590    0.046361
    113          1           0       -6.154821    0.203197    1.561271
    114          1           0       -8.402368   -1.718930    1.555747
    115          1           0       -6.664568   -0.902231    3.507914
    116          1           0       -8.175812   -1.626443    3.755592
    117          1           0       -8.075089    0.145453    3.928561
    118          1           0       -8.865281    1.249459    1.428186
    119          1           0       -9.906584    0.217212    2.277403
    120          1           0       -9.222796   -0.722194   -0.609883
    121          1           0       -9.739876    0.982009   -0.407270
    122          1           0      -11.445698   -0.992515    0.943313
    123          1           0      -11.457828   -1.251614   -0.707722
    124          1           0      -11.771560    1.544021   -0.651935
    125          1           0      -13.532137    1.063396    1.626366
    126          1           0      -12.431392    2.485962    1.211276
    127          1           0      -11.784463    1.166170    2.024143
    128          1           0      -14.231482   -0.145486   -0.064586
    129          1           0      -13.491243   -0.206226   -1.562900
    130          1           0      -14.603467    1.721608   -2.247834
    131          1           0      -13.793011    2.721901   -1.003598
    132          1           0      -15.310483    2.957001    0.312405
    133          1           0      -15.833895    1.300631    0.167104
    134          1           0      -16.760401    2.891042   -2.192628
    135          1           0      -17.723260    4.509644   -1.319627
    136          1           0      -16.856740    4.268982    0.117514
    137          1           0      -18.467774    3.561727    0.057678
    138          1           0      -18.958935    1.770290   -1.316226
    139          1           0      -17.831083    0.656684   -0.452233
    140          1           0      -17.722351    0.852608   -2.187005
 ---------------------------------------------------------------------

 SCF Done:  E(RCAM-B3LYP) =  -3007.14409632     A.U. after   17 cycles

 Excitation energies and oscillator strengths:

 Excited State   1:      Singlet-A      1.7723 eV  699.56 nm  f=0.3404  <S**2>=0.000
     245 -> 248       -0.21107
     246 -> 247        0.67676
     245 <- 248       -0.11331
 This state for optimization and/or second-order correction.
 Total Energy, E(TD-HF/TD-DFT) =  -3007.07896527
 Copying the excited state density for this state as the 1-particle RhoCI density.

 Excited State   2:      Singlet-A      2.3043 eV  538.05 nm  f=0.0404  <S**2>=0.000
     245 -> 247        0.59705
     246 -> 248        0.37121

 Excited State   3:      Singlet-A      3.4285 eV  361.63 nm  f=0.5783  <S**2>=0.000
     243 -> 247       -0.10211
     244 -> 247       -0.34542
     245 -> 247       -0.29565
     246 -> 248        0.52120

 Excited State   4:      Singlet-A      3.5756 eV  346.75 nm  f=0.2856  <S**2>=0.000
     243 -> 247       -0.18595
     244 -> 247        0.57805
     245 -> 247       -0.18517
     246 -> 248        0.24310

 Excited State   5:      Singlet-A      3.6320 eV  341.36 nm  f=0.0112  <S**2>=0.000
     240 -> 247       -0.10850
     246 -> 249        0.40383
     246 -> 250        0.54242

 The electronic state is 1-A.
 Alpha  occ. eigenvalues --  -46.90378 -19.25741 -19.23293 -19.21759 -19.18692
 Alpha  occ. eigenvalues --  -19.18573 -19.18221 -14.41912 -14.41012 -14.39393
 Alpha  occ. eigenvalues --  -14.39188 -10.40595 -10.37830 -10.34822 -10.34365
 Alpha  occ. eigenvalues --  -10.31818 -10.30926 -10.30627 -10.30276 -10.30209
 Alpha  occ. eigenvalues --  -10.29998 -10.29736 -10.29423 -10.29311 -10.28436
 Alpha  occ. eigenvalues --  -10.28202 -10.28177 -10.28141 -10.27995 -10.27926
 Alpha  occ. eigenvalues --  -10.27721 -10.27691 -10.27564 -10.27519 -10.27346
 Alpha  occ. eigenvalues --  -10.27089 -10.26960 -10.26952 -10.26912 -10.26897
 Alpha  occ. eigenvalues --  -10.26610 -10.26382 -10.26339 -10.26199 -10.25977
 Alpha  occ. eigenvalues --  -10.25901 -10.25822 -10.25820 -10.25751 -10.25672
 Alpha  occ. eigenvalues --  -10.25595 -10.25564 -10.25517 -10.25493 -10.25353
 Alpha  occ. eigenvalues --  -10.25108 -10.24999 -10.24967 -10.24832 -10.24793
 Alpha  occ. eigenvalues --  -10.24751 -10.24509 -10.24492 -10.24347 -10.24265
 Alpha  occ. eigenvalues --  -10.23862  -3.18554  -1.93454  -1.93010  -1.92834
 Alpha  occ. eigenvalues --   -1.15341  -1.15032  -1.10238  -1.09430  -1.08585
 Alpha  occ. eigenvalues --   -1.06137  -1.04371  -1.03111  -1.02909  -1.02105
 Alpha  occ. eigenvalues --   -0.92776  -0.91603  -0.90140  -0.89578  -0.89088
 Alpha  occ. eigenvalues --   -0.88816  -0.88006  -0.87555  -0.87041  -0.86183
 Alpha  occ. eigenvalues --   -0.86015  -0.85393  -0.84512  -0.83325  -0.82973
 Alpha  occ. eigenvalues --   -0.82783  -0.82468  -0.81454  -0.80768  -0.80255
 Alpha  occ. eigenvalues --   -0.80093  -0.78490  -0.77732  -0.76811  -0.76722
 Alpha  occ. eigenvalues --   -0.75487  -0.75463  -0.75248  -0.74898  -0.74491
 Alpha  occ. eigenvalues --   -0.73394  -0.72383  -0.71704  -0.70990  -0.69510
 Alpha  occ. eigenvalues --   -0.68679  -0.67971  -0.66706  -0.66182  -0.65641
 Alpha  occ. eigenvalues --   -0.65343  -0.64574  -0.64424  -0.63974  -0.63921
 Alpha  occ. eigenvalues --   -0.63345  -0.63158  -0.62800  -0.61171  -0.60261
 Alpha  occ. eigenvalues --   -0.59469  -0.59366  -0.59066  -0.58536  -0.58032
 Alpha  occ. eigenvalues --   -0.57184  -0.56711  -0.56379  -0.55649  -0.55429
 Alpha  occ. eigenvalues --   -0.54885  -0.54765  -0.54727  -0.54522  -0.54291
 Alpha  occ. eigenvalues --   -0.53632  -0.53206  -0.53109  -0.52933  -0.52776
 Alpha  occ. eigenvalues --   -0.52728  -0.52553  -0.52241  -0.52154  -0.52002
 Alpha  occ. eigenvalues --   -0.51650  -0.51419  -0.51208  -0.50955  -0.50882
 Alpha  occ. eigenvalues --   -0.50492  -0.50377  -0.50291  -0.50041  -0.49677
 Alpha  occ. eigenvalues --   -0.49449  -0.49244  -0.49170  -0.48939  -0.48703
 Alpha  occ. eigenvalues --   -0.48533  -0.48201  -0.48118  -0.47855  -0.47639
 Alpha  occ. eigenvalues --   -0.47570  -0.47311  -0.47047  -0.46903  -0.46703
 Alpha  occ. eigenvalues --   -0.46495  -0.46080  -0.45728  -0.45628  -0.45574
 Alpha  occ. eigenvalues --   -0.45488  -0.45250  -0.45076  -0.44671  -0.44529
 Alpha  occ. eigenvalues --   -0.44367  -0.44261  -0.44158  -0.44035  -0.43826
 Alpha  occ. eigenvalues --   -0.43650  -0.43515  -0.43053  -0.42981  -0.42747
 Alpha  occ. eigenvalues --   -0.42715  -0.42574  -0.42312  -0.42026  -0.41962
 Alpha  occ. eigenvalues --   -0.41825  -0.41701  -0.41294  -0.41133  -0.41057
 Alpha  occ. eigenvalues --   -0.40812  -0.40742  -0.40489  -0.40004  -0.39915
 Alpha  occ. eigenvalues --   -0.39815  -0.39455  -0.39067  -0.38818  -0.38497
 Alpha  occ. eigenvalues --   -0.38332  -0.38041  -0.37890  -0.37495  -0.37465
 Alpha  occ. eigenvalues --   -0.36872  -0.36709  -0.36700  -0.36568  -0.36289
 Alpha  occ. eigenvalues --   -0.35986  -0.35934  -0.35363  -0.35141  -0.34023
 Alpha  occ. eigenvalues --   -0.33683  -0.33513  -0.32958  -0.30859  -0.30652
 Alpha  occ. eigenvalues --   -0.30385  -0.30278  -0.30002  -0.29085  -0.23632
 Alpha  occ. eigenvalues --   -0.20496
 Alpha virt. eigenvalues --   -0.07487  -0.01912   0.00817   0.01502   0.02785
 Alpha virt. eigenvalues --    0.03186   0.03638   0.05884   0.06206   0.07416
 Alpha virt. eigenvalues --    0.08200   0.08386   0.08777   0.09150   0.09377

 Mulliken charges:
               1
     1  Mg   0.807234
     2  C   -0.041430
     3  C   -0.047806
     4  C   -0.072264
     5  C   -0.071645
     6  N   -0.276630
     7  C   -0.053643
     8  C   -0.028638
     9  C   -0.052029
    10  C   -0.048481
    11  C    0.074179
    12  C    0.119860
    13  C    0.043117
    14  C    0.183548
    15  O   -0.228031
    16  O   -0.367439
    17  N   -0.410746
    18  C    0.176046
    19  C   -0.154833
    20  C   -0.056315
    21  C    0.152362
    22  C    0.098004
    23  C   -0.008490
    24  O   -0.212285
    25  C    0.092284
    26  N   -0.237473
    27  C   -0.034162
    28  C    0.061988
    29  C   -0.068587
    30  C   -0.037160
    31  C    0.071591
    32  C    0.009263
    33  C   -0.003220
    34  N   -0.292245
    35  C    0.150185
    36  C   -0.221702
    37  C    0.015112
    38  C    0.154776
    39  C    0.143872
    40  C   -0.002074
    41  O   -0.148331
    42  C    0.019181
    43  C    0.208434
    44  O   -0.216906
    45  O   -0.346219
    46  C    0.187908
    47  C    0.291347
    48  C   -0.160825
    49  C   -0.178739
    50  C    0.091082
    51  C    0.092472
    52  C   -0.008277
    53  C    0.107397
    54  C   -0.171293
    55  C    0.044141
    56  C    0.041738
    57  C    0.002841
    58  C    0.049682
    59  C   -0.129545
    60  C    0.075500
    61  C    0.051510
    62  C    0.039987
    63  C    0.034308
    64  C   -0.152252
    65  C    0.036659
    66  C    0.042296
    67  H   -0.036285
    68  H   -0.003984
    69  H   -0.042511
    70  H    0.032006
    71  H    0.011301
    72  H    0.020786
    73  H    0.018508
    74  H    0.026404
    75  H    0.009120
    76  H    0.014755
    77  H    0.019997
    78  H    0.017725
    79  H    0.035463
    80  H    0.020445
    81  H    0.028754
    82  H    0.027679
    83  H    0.035653
    84  H    0.037685
    85  H    0.003518
    86  H    0.015309
    87  H    0.008654
    88  H    0.029430
    89  H    0.021289
    90  H    0.024397
    91  H    0.011857
    92  H    0.023904
    93  H    0.005048
    94  H    0.010362
    95  H    0.017159
    96  H    0.042240
    97  H    0.041952
    98  H    0.042297
    99  H    0.032402
   100  H    0.031531
   101  H    0.046826
   102  H    0.012001
   103  H    0.035631
   104  H   -0.002588
   105  H    0.034915
   106  H    0.021730
   107  H    0.028447
   108  H   -0.007417
   109  H   -0.012308
   110  H    0.011305
   111  H    0.013492
   112  H   -0.008047
   113  H    0.003547
   114  H   -0.007915
   115  H   -0.003694
   116  H   -0.000378
   117  H    0.021022
   118  H   -0.020037
   119  H    0.005632
   120  H    0.007652
   121  H   -0.004137
   122  H   -0.015262
   123  H   -0.016709
   124  H   -0.006078
   125  H    0.015434
   126  H    0.003958
   127  H   -0.007657
   128  H   -0.007222
   129  H   -0.015312
   130  H    0.000029
   131  H    0.001668
   132  H   -0.004575
   133  H   -0.017209
   134  H   -0.004805
   135  H    0.003157
   136  H   -0.011661
   137  H    0.015142
   138  H    0.012691
   139  H    0.010651
   140  H    0.003038
 Sum of Mulliken charges =  -0.00000

 Dipole moment (field-independent basis, Debye):
    X=             -5.5868    Y=              2.3871    Z=              3.4068  Tot=              6.9654
 Quadrupole moment (field-independent basis, Debye-Ang):
   XX=           -393.3993   YY=           -430.5619   ZZ=           -404.9190
   XY=             29.0223   XZ=             16.9129   YZ=             -6.5023

 Normal termination of Gaussian 16 at Wed May  4 03:44:36 2022.
