 Gaussian 16, Revision A.03,
 Gaussian 16:  ES64L-G16RevA.03 25-Dec-2016

 ---------------------------------
 #p PBE1PBE/Def2SVP td=(nstates=5)
 ---------------------------------

 ------------------------------------------------------
 step_1351_chromophore_18 TDDFT with PBE1PBE functional
 ------------------------------------------------------
 Symbolic Z-matrix:
 Charge =  0 Multiplicity = 1

                         Standard orientation:
 ---------------------------------------------------------------------
 Center     Atomic      Atomic             Coordinates (Angstroms)
 Number     Number       Type             X           Y           Z
 ---------------------------------------------------------------------
      1         12           0        5.338198    1.220736    0.510516
      2          6           0        4.768191   -2.275250    0.239512
      3          6           0        2.052625    1.711810   -0.042259
      4          6           0        6.075359    4.470295   -0.204170
      5          6           0        8.803071    0.476886    0.012600
      6          7           0        3.582938   -0.248897    0.166836
      7          6           0        3.563537   -1.597512    0.327879
      8          6           0        2.114296   -2.058708    0.366855
      9          6           0        1.219446   -0.777882    0.098041
     10          6           0        2.321496    0.308999    0.077239
     11          6           0        0.285603   -0.736306   -1.144314
     12          6           0        1.751536   -2.913950    1.599078
     13          6           0        0.991517   -4.219308    1.315786
     14          6           0        0.105600   -4.483792    0.117743
     15          8           0        0.481818   -5.174326   -0.831793
     16          8           0       -1.067370   -3.677197    0.240197
     17          7           0        4.177376    2.908529    0.174450
     18          6           0        2.811347    2.844946    0.053955
     19          6           0        2.354056    4.233059    0.042005
     20          6           0        3.527829    5.032648   -0.149267
     21          6           0        4.683155    4.130293   -0.156097
     22          6           0        0.917683    4.560149    0.215137
     23          6           0        3.566441    6.592592   -0.352701
     24          8           0        4.655018    7.124633   -0.543482
     25          6           0        2.344211    7.409269   -0.367465
     26          7           0        7.256900    2.405955    0.056658
     27          6           0        7.240431    3.727918   -0.134284
     28          6           0        8.740517    4.231725   -0.417332
     29          6           0        9.564028    2.884589   -0.361860
     30          6           0        8.503055    1.876494   -0.058683
     31          6           0        8.995700    5.108740   -1.709906
     32          6           0       10.771072    2.884970    0.715867
     33          6           0       10.361833    2.585826    2.132251
     34          7           0        6.596903   -0.509931    0.346517
     35          6           0        7.912351   -0.610101    0.163915
     36          6           0        8.293123   -2.040648    0.073114
     37          6           0        7.082117   -2.699866    0.137473
     38          6           0        6.025433   -1.728681    0.232672
     39          6           0        9.686994   -2.626301   -0.073135
     40          6           0        6.504899   -4.012103    0.024055
     41          8           0        7.016950   -5.091031   -0.178436
     42          6           0        4.983044   -3.816525    0.082647
     43          6           0        4.351921   -4.426220   -1.064496
     44          8           0        4.153738   -3.914068   -2.143151
     45          8           0        3.985192   -5.722752   -0.793922
     46          6           0        3.212919   -6.342102   -1.917236
     47          6           0       -1.916306   -3.830109   -0.955541
     48          6           0       -3.185597   -3.032380   -0.829528
     49          6           0       -4.366544   -3.436321   -0.236251
     50          6           0       -4.615033   -4.731989    0.475294
     51          6           0       -5.448935   -2.399287   -0.342023
     52          6           0       -6.037793   -1.937181    0.951424
     53          6           0       -6.733678   -0.538420    1.012478
     54          6           0       -8.022376   -0.725570    1.792425
     55          6           0       -7.728289   -0.716645    3.358125
     56          6           0       -9.181290    0.206617    1.465185
     57          6           0       -9.799015   -0.027477    0.001340
     58          6           0      -11.306245   -0.445922    0.010674
     59          6           0      -12.295782    0.797404   -0.054390
     60          6           0      -12.553228    1.405886    1.290656
     61          6           0      -13.612742    0.469821   -0.717210
     62          6           0      -14.357683    1.807358   -1.189102
     63          6           0      -15.554742    2.180555   -0.411981
     64          6           0      -16.908822    2.550392   -1.167814
     65          6           0      -17.575669    3.769805   -0.532518
     66          6           0      -17.942496    1.380996   -1.259542
     67          1           0        0.967335    1.834308   -0.046488
     68          1           0        6.319630    5.531503   -0.281644
     69          1           0        9.891771    0.399110   -0.023917
     70          1           0        1.873303   -2.651113   -0.516172
     71          1           0        0.614057   -0.482520    0.954987
     72          1           0       -0.668893   -0.397499   -0.741732
     73          1           0        0.164977   -1.697166   -1.645512
     74          1           0        0.667002   -0.050480   -1.901084
     75          1           0        1.081647   -2.374716    2.269030
     76          1           0        2.660788   -3.175583    2.139439
     77          1           0        0.483064   -4.574788    2.212466
     78          1           0        1.793848   -4.953098    1.237807
     79          1           0        0.492488    4.705251   -0.777072
     80          1           0        0.657284    5.437821    0.805627
     81          1           0        0.592322    3.665414    0.747003
     82          1           0        1.888144    6.996516   -1.267153
     83          1           0        2.561170    8.459436   -0.564777
     84          1           0        1.733179    7.141669    0.494278
     85          1           0        8.965438    4.663816    0.558011
     86          1           0       10.087038    2.662375   -1.291635
     87          1           0        9.517235    6.052547   -1.548167
     88          1           0        8.095919    5.552229   -2.136601
     89          1           0        9.587695    4.498156   -2.391505
     90          1           0       11.338941    3.814177    0.656064
     91          1           0       11.307754    1.984068    0.421191
     92          1           0        9.294978    2.529514    2.344729
     93          1           0       10.697785    3.327889    2.858083
     94          1           0       10.828751    1.653187    2.451149
     95          1           0       10.154177   -1.900853   -0.738300
     96          1           0        9.575168   -3.563938   -0.617463
     97          1           0       10.150201   -2.654285    0.913121
     98          1           0        4.782761   -4.301597    1.038108
     99          1           0        2.675143   -7.163280   -1.444631
    100          1           0        3.836382   -6.682954   -2.743377
    101          1           0        2.514415   -5.614271   -2.329525
    102          1           0       -2.245182   -4.868887   -0.932683
    103          1           0       -1.440719   -3.511644   -1.883377
    104          1           0       -3.178322   -2.078651   -1.356689
    105          1           0       -4.945709   -5.490088   -0.236187
    106          1           0       -5.374596   -4.598839    1.246138
    107          1           0       -3.696201   -5.109478    0.924486
    108          1           0       -6.222453   -2.879912   -0.941361
    109          1           0       -5.071992   -1.606371   -0.989133
    110          1           0       -5.176269   -1.922403    1.619187
    111          1           0       -6.750053   -2.747752    1.107271
    112          1           0       -7.091996   -0.181590    0.046361
    113          1           0       -6.154821    0.203197    1.561271
    114          1           0       -8.402368   -1.718930    1.555747
    115          1           0       -6.664568   -0.902231    3.507914
    116          1           0       -8.175812   -1.626443    3.755592
    117          1           0       -8.075089    0.145453    3.928561
    118          1           0       -8.865281    1.249459    1.428186
    119          1           0       -9.906584    0.217212    2.277403
    120          1           0       -9.222796   -0.722194   -0.609883
    121          1           0       -9.739876    0.982009   -0.407270
    122          1           0      -11.445698   -0.992515    0.943313
    123          1           0      -11.457828   -1.251614   -0.707722
    124          1           0      -11.771560    1.544021   -0.651935
    125          1           0      -13.532137    1.063396    1.626366
    126          1           0      -12.431392    2.485962    1.211276
    127          1           0      -11.784463    1.166170    2.024143
    128          1           0      -14.231482   -0.145486   -0.064586
    129          1           0      -13.491243   -0.206226   -1.562900
    130          1           0      -14.603467    1.721608   -2.247834
    131          1           0      -13.793011    2.721901   -1.003598
    132          1           0      -15.310483    2.957001    0.312405
    133          1           0      -15.833895    1.300631    0.167104
    134          1           0      -16.760401    2.891042   -2.192628
    135          1           0      -17.723260    4.509644   -1.319627
    136          1           0      -16.856740    4.268982    0.117514
    137          1           0      -18.467774    3.561727    0.057678
    138          1           0      -18.958935    1.770290   -1.316226
    139          1           0      -17.831083    0.656684   -0.452233
    140          1           0      -17.722351    0.852608   -2.187005
 ---------------------------------------------------------------------

 SCF Done:  E(RPBE1PBE) =  -3005.33329829     A.U. after   15 cycles

 Excitation energies and oscillator strengths:

 Excited State   1:      Singlet-A      1.9273 eV  643.31 nm  f=0.3338  <S**2>=0.000
     245 -> 248       -0.20265
     246 -> 247        0.68334
 This state for optimization and/or second-order correction.
 Total Energy, E(TD-HF/TD-DFT) =  -3005.26247169
 Copying the excited state density for this state as the 1-particle RhoCI density.

 Excited State   2:      Singlet-A      2.3169 eV  535.13 nm  f=0.0487  <S**2>=0.000
     245 -> 247        0.61620
     246 -> 248        0.33882

 Excited State   3:      Singlet-A      3.1508 eV  393.50 nm  f=0.0188  <S**2>=0.000
     244 -> 247        0.66733
     246 -> 248       -0.20725

 Excited State   4:      Singlet-A      3.2017 eV  387.25 nm  f=0.0161  <S**2>=0.000
     240 -> 247        0.18426
     242 -> 247        0.62636
     242 -> 249       -0.16722
     246 -> 248       -0.12188

 Excited State   5:      Singlet-A      3.2542 eV  381.00 nm  f=0.0097  <S**2>=0.000
     243 -> 247        0.66460
     243 -> 249        0.15634

 The electronic state is 1-A.
 Alpha  occ. eigenvalues --  -46.93745 -19.26403 -19.23915 -19.21992 -19.18849
 Alpha  occ. eigenvalues --  -19.18744 -19.18460 -14.41368 -14.40567 -14.38989
 Alpha  occ. eigenvalues --  -14.38852 -10.37619 -10.34748 -10.31982 -10.31445
 Alpha  occ. eigenvalues --  -10.29172 -10.28735 -10.28361 -10.27959 -10.27924
 Alpha  occ. eigenvalues --  -10.27722 -10.27382 -10.27038 -10.26657 -10.26126
 Alpha  occ. eigenvalues --  -10.26017 -10.25929 -10.25845 -10.25843 -10.25600
 Alpha  occ. eigenvalues --  -10.25426 -10.25311 -10.25207 -10.25183 -10.25142
 Alpha  occ. eigenvalues --  -10.24653 -10.24564 -10.24541 -10.24338 -10.24337
 Alpha  occ. eigenvalues --  -10.24276 -10.24113 -10.23672 -10.23620 -10.23575
 Alpha  occ. eigenvalues --  -10.23473 -10.23398 -10.23356 -10.23313 -10.23304
 Alpha  occ. eigenvalues --  -10.23181 -10.23176 -10.23113 -10.23110 -10.23110
 Alpha  occ. eigenvalues --  -10.22701 -10.22580 -10.22561 -10.22292 -10.22260
 Alpha  occ. eigenvalues --  -10.22216 -10.22175 -10.21884 -10.21812 -10.21726
 Alpha  occ. eigenvalues --  -10.21255  -3.15511  -1.88347  -1.87883  -1.87710
 Alpha  occ. eigenvalues --   -1.10080  -1.09737  -1.04933  -1.04175  -1.03423
 Alpha  occ. eigenvalues --   -1.00928  -0.99026  -0.97767  -0.97518  -0.96777
 Alpha  occ. eigenvalues --   -0.87111  -0.85745  -0.84231  -0.83759  -0.83227
 Alpha  occ. eigenvalues --   -0.83112  -0.82310  -0.81667  -0.81296  -0.80507
 Alpha  occ. eigenvalues --   -0.80298  -0.79633  -0.78703  -0.77560  -0.77224
 Alpha  occ. eigenvalues --   -0.76955  -0.76711  -0.75697  -0.75048  -0.74502
 Alpha  occ. eigenvalues --   -0.74439  -0.72745  -0.72061  -0.71101  -0.70927
 Alpha  occ. eigenvalues --   -0.69776  -0.69579  -0.69341  -0.69236  -0.68665
 Alpha  occ. eigenvalues --   -0.67702  -0.66840  -0.66134  -0.65326  -0.63835
 Alpha  occ. eigenvalues --   -0.63147  -0.62200  -0.61105  -0.60479  -0.59963
 Alpha  occ. eigenvalues --   -0.59765  -0.59113  -0.59008  -0.58450  -0.58068
 Alpha  occ. eigenvalues --   -0.57822  -0.57320  -0.56975  -0.55675  -0.54621
 Alpha  occ. eigenvalues --   -0.54015  -0.53928  -0.53616  -0.52995  -0.52639
 Alpha  occ. eigenvalues --   -0.51508  -0.51290  -0.50913  -0.50212  -0.49928
 Alpha  occ. eigenvalues --   -0.49376  -0.49345  -0.49131  -0.49027  -0.48782
 Alpha  occ. eigenvalues --   -0.48173  -0.47674  -0.47600  -0.47437  -0.47304
 Alpha  occ. eigenvalues --   -0.47257  -0.47038  -0.46844  -0.46710  -0.46503
 Alpha  occ. eigenvalues --   -0.46139  -0.45907  -0.45694  -0.45482  -0.45410
 Alpha  occ. eigenvalues --   -0.45080  -0.44936  -0.44905  -0.44617  -0.44283
 Alpha  occ. eigenvalues --   -0.44027  -0.43864  -0.43755  -0.43517  -0.43319
 Alpha  occ. eigenvalues --   -0.43116  -0.42812  -0.42728  -0.42471  -0.42309
 Alpha  occ. eigenvalues --   -0.42234  -0.41968  -0.41641  -0.41541  -0.41401
 Alpha  occ. eigenvalues --   -0.41234  -0.40683  -0.40432  -0.40328  -0.40230
 Alpha  occ. eigenvalues --   -0.40047  -0.40040  -0.39800  -0.39425  -0.39260
 Alpha  occ. eigenvalues --   -0.39093  -0.39060  -0.38860  -0.38766  -0.38607
 Alpha  occ. eigenvalues --   -0.38456  -0.38261  -0.37850  -0.37729  -0.37535
 Alpha  occ. eigenvalues --   -0.37467  -0.37407  -0.37173  -0.36889  -0.36735
 Alpha  occ. eigenvalues --   -0.36697  -0.36556  -0.36119  -0.35992  -0.35827
 Alpha  occ. eigenvalues --   -0.35708  -0.35501  -0.35410  -0.34772  -0.34751
 Alpha  occ. eigenvalues --   -0.34599  -0.34263  -0.33975  -0.33603  -0.33389
 Alpha  occ. eigenvalues --   -0.33217  -0.33060  -0.32645  -0.32381  -0.32255
 Alpha  occ. eigenvalues --   -0.31780  -0.31729  -0.31629  -0.31526  -0.31108
 Alpha  occ. eigenvalues --   -0.31029  -0.30867  -0.30225  -0.29932  -0.29057
 Alpha  occ. eigenvalues --   -0.28903  -0.28709  -0.28052  -0.26516  -0.25741
 Alpha  occ. eigenvalues --   -0.25638  -0.25325  -0.25180  -0.24661  -0.20584
 Alpha  occ. eigenvalues --   -0.18177
 Alpha virt. eigenvalues --   -0.10096  -0.05271  -0.03358  -0.01782  -0.01453
 Alpha virt. eigenvalues --   -0.01134  -0.00844   0.01452   0.01654   0.03902
 Alpha virt. eigenvalues --    0.04715   0.04965   0.05106   0.05525   0.05783

 Mulliken charges:
               1
     1  Mg   0.938922
     2  C   -0.050593
     3  C   -0.048318
     4  C   -0.074135
     5  C   -0.055490
     6  N   -0.374370
     7  C    0.021211
     8  C   -0.101258
     9  C   -0.121353
    10  C    0.001166
    11  C    0.012591
    12  C    0.065904
    13  C   -0.027800
    14  C    0.236021
    15  O   -0.258997
    16  O   -0.391345
    17  N   -0.521380
    18  C    0.188657
    19  C   -0.177887
    20  C   -0.103788
    21  C    0.185687
    22  C    0.037193
    23  C    0.044846
    24  O   -0.248775
    25  C    0.016062
    26  N   -0.337353
    27  C    0.009757
    28  C   -0.021914
    29  C   -0.131894
    30  C    0.000682
    31  C    0.011077
    32  C   -0.057475
    33  C   -0.072311
    34  N   -0.423574
    35  C    0.168548
    36  C   -0.231552
    37  C   -0.040758
    38  C    0.197372
    39  C    0.085692
    40  C    0.099399
    41  O   -0.196508
    42  C   -0.082190
    43  C    0.296316
    44  O   -0.253122
    45  O   -0.378015
    46  C    0.131923
    47  C    0.243032
    48  C   -0.168779
    49  C   -0.219003
    50  C    0.027244
    51  C    0.032701
    52  C   -0.075282
    53  C    0.047566
    54  C   -0.256201
    55  C   -0.015547
    56  C   -0.009409
    57  C   -0.063085
    58  C   -0.002891
    59  C   -0.219120
    60  C    0.017098
    61  C   -0.005386
    62  C   -0.022561
    63  C   -0.018574
    64  C   -0.241416
    65  C   -0.023471
    66  C   -0.019081
    67  H   -0.004488
    68  H    0.029787
    69  H   -0.009635
    70  H    0.075927
    71  H    0.048401
    72  H    0.047208
    73  H    0.047880
    74  H    0.054140
    75  H    0.040869
    76  H    0.047824
    77  H    0.051676
    78  H    0.052399
    79  H    0.063969
    80  H    0.048337
    81  H    0.055231
    82  H    0.056583
    83  H    0.062642
    84  H    0.064537
    85  H    0.044208
    86  H    0.052091
    87  H    0.036262
    88  H    0.055644
    89  H    0.048107
    90  H    0.056463
    91  H    0.044876
    92  H    0.052695
    93  H    0.033764
    94  H    0.038058
    95  H    0.044599
    96  H    0.069795
    97  H    0.069475
    98  H    0.079543
    99  H    0.054088
   100  H    0.054506
   101  H    0.068945
   102  H    0.040733
   103  H    0.060860
   104  H    0.026080
   105  H    0.062716
   106  H    0.049083
   107  H    0.055981
   108  H    0.028014
   109  H    0.019135
   110  H    0.044580
   111  H    0.043786
   112  H    0.026751
   113  H    0.036916
   114  H    0.032361
   115  H    0.024659
   116  H    0.028053
   117  H    0.047325
   118  H    0.013652
   119  H    0.036557
   120  H    0.038366
   121  H    0.028943
   122  H    0.019237
   123  H    0.015087
   124  H    0.032682
   125  H    0.042629
   126  H    0.030825
   127  H    0.023488
   128  H    0.024304
   129  H    0.017600
   130  H    0.032792
   131  H    0.033665
   132  H    0.025795
   133  H    0.015913
   134  H    0.032617
   135  H    0.030946
   136  H    0.016429
   137  H    0.041735
   138  H    0.039937
   139  H    0.037104
   140  H    0.031553
 Sum of Mulliken charges =  -0.00000

 Dipole moment (field-independent basis, Debye):
    X=             -5.5660    Y=              2.4643    Z=              3.4404  Tot=              6.9921
 Quadrupole moment (field-independent basis, Debye-Ang):
   XX=           -387.3906   YY=           -427.6221   ZZ=           -402.5181
   XY=             30.1620   XZ=             17.0043   YZ=             -6.6418

 Normal termination of Gaussian 16 at Wed May  4 04:04:20 2022.
