 Gaussian 16, Revision A.03,
 Gaussian 16:  ES64L-G16RevA.03 25-Dec-2016

 --------------------------------
 #p wB97XD/Def2SVP td=(nstates=5)
 --------------------------------

 -----------------------------------------------------
 step_1351_chromophore_18 TDDFT with wB97XD functional
 -----------------------------------------------------
 Symbolic Z-matrix:
 Charge =  0 Multiplicity = 1

                         Standard orientation:
 ---------------------------------------------------------------------
 Center     Atomic      Atomic             Coordinates (Angstroms)
 Number     Number       Type             X           Y           Z
 ---------------------------------------------------------------------
      1         12           0        5.338198    1.220736    0.510516
      2          6           0        4.768191   -2.275250    0.239512
      3          6           0        2.052625    1.711810   -0.042259
      4          6           0        6.075359    4.470295   -0.204170
      5          6           0        8.803071    0.476886    0.012600
      6          7           0        3.582938   -0.248897    0.166836
      7          6           0        3.563537   -1.597512    0.327879
      8          6           0        2.114296   -2.058708    0.366855
      9          6           0        1.219446   -0.777882    0.098041
     10          6           0        2.321496    0.308999    0.077239
     11          6           0        0.285603   -0.736306   -1.144314
     12          6           0        1.751536   -2.913950    1.599078
     13          6           0        0.991517   -4.219308    1.315786
     14          6           0        0.105600   -4.483792    0.117743
     15          8           0        0.481818   -5.174326   -0.831793
     16          8           0       -1.067370   -3.677197    0.240197
     17          7           0        4.177376    2.908529    0.174450
     18          6           0        2.811347    2.844946    0.053955
     19          6           0        2.354056    4.233059    0.042005
     20          6           0        3.527829    5.032648   -0.149267
     21          6           0        4.683155    4.130293   -0.156097
     22          6           0        0.917683    4.560149    0.215137
     23          6           0        3.566441    6.592592   -0.352701
     24          8           0        4.655018    7.124633   -0.543482
     25          6           0        2.344211    7.409269   -0.367465
     26          7           0        7.256900    2.405955    0.056658
     27          6           0        7.240431    3.727918   -0.134284
     28          6           0        8.740517    4.231725   -0.417332
     29          6           0        9.564028    2.884589   -0.361860
     30          6           0        8.503055    1.876494   -0.058683
     31          6           0        8.995700    5.108740   -1.709906
     32          6           0       10.771072    2.884970    0.715867
     33          6           0       10.361833    2.585826    2.132251
     34          7           0        6.596903   -0.509931    0.346517
     35          6           0        7.912351   -0.610101    0.163915
     36          6           0        8.293123   -2.040648    0.073114
     37          6           0        7.082117   -2.699866    0.137473
     38          6           0        6.025433   -1.728681    0.232672
     39          6           0        9.686994   -2.626301   -0.073135
     40          6           0        6.504899   -4.012103    0.024055
     41          8           0        7.016950   -5.091031   -0.178436
     42          6           0        4.983044   -3.816525    0.082647
     43          6           0        4.351921   -4.426220   -1.064496
     44          8           0        4.153738   -3.914068   -2.143151
     45          8           0        3.985192   -5.722752   -0.793922
     46          6           0        3.212919   -6.342102   -1.917236
     47          6           0       -1.916306   -3.830109   -0.955541
     48          6           0       -3.185597   -3.032380   -0.829528
     49          6           0       -4.366544   -3.436321   -0.236251
     50          6           0       -4.615033   -4.731989    0.475294
     51          6           0       -5.448935   -2.399287   -0.342023
     52          6           0       -6.037793   -1.937181    0.951424
     53          6           0       -6.733678   -0.538420    1.012478
     54          6           0       -8.022376   -0.725570    1.792425
     55          6           0       -7.728289   -0.716645    3.358125
     56          6           0       -9.181290    0.206617    1.465185
     57          6           0       -9.799015   -0.027477    0.001340
     58          6           0      -11.306245   -0.445922    0.010674
     59          6           0      -12.295782    0.797404   -0.054390
     60          6           0      -12.553228    1.405886    1.290656
     61          6           0      -13.612742    0.469821   -0.717210
     62          6           0      -14.357683    1.807358   -1.189102
     63          6           0      -15.554742    2.180555   -0.411981
     64          6           0      -16.908822    2.550392   -1.167814
     65          6           0      -17.575669    3.769805   -0.532518
     66          6           0      -17.942496    1.380996   -1.259542
     67          1           0        0.967335    1.834308   -0.046488
     68          1           0        6.319630    5.531503   -0.281644
     69          1           0        9.891771    0.399110   -0.023917
     70          1           0        1.873303   -2.651113   -0.516172
     71          1           0        0.614057   -0.482520    0.954987
     72          1           0       -0.668893   -0.397499   -0.741732
     73          1           0        0.164977   -1.697166   -1.645512
     74          1           0        0.667002   -0.050480   -1.901084
     75          1           0        1.081647   -2.374716    2.269030
     76          1           0        2.660788   -3.175583    2.139439
     77          1           0        0.483064   -4.574788    2.212466
     78          1           0        1.793848   -4.953098    1.237807
     79          1           0        0.492488    4.705251   -0.777072
     80          1           0        0.657284    5.437821    0.805627
     81          1           0        0.592322    3.665414    0.747003
     82          1           0        1.888144    6.996516   -1.267153
     83          1           0        2.561170    8.459436   -0.564777
     84          1           0        1.733179    7.141669    0.494278
     85          1           0        8.965438    4.663816    0.558011
     86          1           0       10.087038    2.662375   -1.291635
     87          1           0        9.517235    6.052547   -1.548167
     88          1           0        8.095919    5.552229   -2.136601
     89          1           0        9.587695    4.498156   -2.391505
     90          1           0       11.338941    3.814177    0.656064
     91          1           0       11.307754    1.984068    0.421191
     92          1           0        9.294978    2.529514    2.344729
     93          1           0       10.697785    3.327889    2.858083
     94          1           0       10.828751    1.653187    2.451149
     95          1           0       10.154177   -1.900853   -0.738300
     96          1           0        9.575168   -3.563938   -0.617463
     97          1           0       10.150201   -2.654285    0.913121
     98          1           0        4.782761   -4.301597    1.038108
     99          1           0        2.675143   -7.163280   -1.444631
    100          1           0        3.836382   -6.682954   -2.743377
    101          1           0        2.514415   -5.614271   -2.329525
    102          1           0       -2.245182   -4.868887   -0.932683
    103          1           0       -1.440719   -3.511644   -1.883377
    104          1           0       -3.178322   -2.078651   -1.356689
    105          1           0       -4.945709   -5.490088   -0.236187
    106          1           0       -5.374596   -4.598839    1.246138
    107          1           0       -3.696201   -5.109478    0.924486
    108          1           0       -6.222453   -2.879912   -0.941361
    109          1           0       -5.071992   -1.606371   -0.989133
    110          1           0       -5.176269   -1.922403    1.619187
    111          1           0       -6.750053   -2.747752    1.107271
    112          1           0       -7.091996   -0.181590    0.046361
    113          1           0       -6.154821    0.203197    1.561271
    114          1           0       -8.402368   -1.718930    1.555747
    115          1           0       -6.664568   -0.902231    3.507914
    116          1           0       -8.175812   -1.626443    3.755592
    117          1           0       -8.075089    0.145453    3.928561
    118          1           0       -8.865281    1.249459    1.428186
    119          1           0       -9.906584    0.217212    2.277403
    120          1           0       -9.222796   -0.722194   -0.609883
    121          1           0       -9.739876    0.982009   -0.407270
    122          1           0      -11.445698   -0.992515    0.943313
    123          1           0      -11.457828   -1.251614   -0.707722
    124          1           0      -11.771560    1.544021   -0.651935
    125          1           0      -13.532137    1.063396    1.626366
    126          1           0      -12.431392    2.485962    1.211276
    127          1           0      -11.784463    1.166170    2.024143
    128          1           0      -14.231482   -0.145486   -0.064586
    129          1           0      -13.491243   -0.206226   -1.562900
    130          1           0      -14.603467    1.721608   -2.247834
    131          1           0      -13.793011    2.721901   -1.003598
    132          1           0      -15.310483    2.957001    0.312405
    133          1           0      -15.833895    1.300631    0.167104
    134          1           0      -16.760401    2.891042   -2.192628
    135          1           0      -17.723260    4.509644   -1.319627
    136          1           0      -16.856740    4.268982    0.117514
    137          1           0      -18.467774    3.561727    0.057678
    138          1           0      -18.958935    1.770290   -1.316226
    139          1           0      -17.831083    0.656684   -0.452233
    140          1           0      -17.722351    0.852608   -2.187005
 ---------------------------------------------------------------------

 SCF Done:  E(RwB97XD) =  -3007.84362037     A.U. after   17 cycles

 Excitation energies and oscillator strengths:

 Excited State   1:      Singlet-A      1.7136 eV  723.54 nm  f=0.3377  <S**2>=0.000
     245 -> 248       -0.21695
     246 -> 247        0.67490
     245 <- 248       -0.12335
 This state for optimization and/or second-order correction.
 Total Energy, E(TD-HF/TD-DFT) =  -3007.78064717
 Copying the excited state density for this state as the 1-particle RhoCI density.

 Excited State   2:      Singlet-A      2.2503 eV  550.96 nm  f=0.0401  <S**2>=0.000
     245 -> 247        0.59692
     246 -> 248        0.37084

 Excited State   3:      Singlet-A      3.4391 eV  360.51 nm  f=0.5914  <S**2>=0.000
     243 -> 247       -0.10515
     244 -> 247       -0.34824
     245 -> 247       -0.29234
     246 -> 248        0.52401
     245 <- 247        0.10276

 Excited State   4:      Singlet-A      3.5957 eV  344.81 nm  f=0.2866  <S**2>=0.000
     243 -> 247       -0.22295
     244 -> 247        0.55979
     245 -> 247       -0.18418
     246 -> 248        0.24075

 Excited State   5:      Singlet-A      3.6849 eV  336.46 nm  f=0.0882  <S**2>=0.000
     240 -> 247        0.44132
     240 -> 249       -0.31515
     240 -> 252       -0.14708
     243 -> 247        0.24936
     243 -> 249       -0.13124
     244 -> 247        0.14082
     245 -> 247       -0.10077
     246 -> 248        0.12401

 The electronic state is 1-A.
 Alpha  occ. eigenvalues --  -46.96702 -19.30966 -19.28512 -19.26671 -19.23741
 Alpha  occ. eigenvalues --  -19.23494 -19.23222 -14.46508 -14.45560 -14.43964
 Alpha  occ. eigenvalues --  -14.43762 -10.44427 -10.41644 -10.38760 -10.38369
 Alpha  occ. eigenvalues --  -10.35714 -10.34950 -10.34647 -10.34318 -10.34224
 Alpha  occ. eigenvalues --  -10.34018 -10.33765 -10.33321 -10.33196 -10.32446
 Alpha  occ. eigenvalues --  -10.32242 -10.32196 -10.32196 -10.32047 -10.32037
 Alpha  occ. eigenvalues --  -10.31823 -10.31682 -10.31649 -10.31609 -10.31385
 Alpha  occ. eigenvalues --  -10.31019 -10.30989 -10.30989 -10.30837 -10.30795
 Alpha  occ. eigenvalues --  -10.30554 -10.30420 -10.30179 -10.30060 -10.29939
 Alpha  occ. eigenvalues --  -10.29786 -10.29783 -10.29741 -10.29673 -10.29628
 Alpha  occ. eigenvalues --  -10.29544 -10.29489 -10.29469 -10.29463 -10.29384
 Alpha  occ. eigenvalues --  -10.29065 -10.28934 -10.28907 -10.28678 -10.28656
 Alpha  occ. eigenvalues --  -10.28608 -10.28564 -10.28307 -10.28182 -10.28178
 Alpha  occ. eigenvalues --  -10.27673  -3.22378  -1.95954  -1.95490  -1.95314
 Alpha  occ. eigenvalues --   -1.17481  -1.17176  -1.12478  -1.11615  -1.10778
 Alpha  occ. eigenvalues --   -1.08331  -1.06397  -1.05111  -1.04906  -1.04131
 Alpha  occ. eigenvalues --   -0.94770  -0.93412  -0.91902  -0.91405  -0.90886
 Alpha  occ. eigenvalues --   -0.90704  -0.89902  -0.89327  -0.88959  -0.88086
 Alpha  occ. eigenvalues --   -0.87958  -0.87273  -0.86363  -0.85222  -0.84871
 Alpha  occ. eigenvalues --   -0.84643  -0.84342  -0.83339  -0.82680  -0.82119
 Alpha  occ. eigenvalues --   -0.82060  -0.80398  -0.79689  -0.78706  -0.78587
 Alpha  occ. eigenvalues --   -0.77409  -0.77282  -0.77039  -0.76823  -0.76330
 Alpha  occ. eigenvalues --   -0.75313  -0.74372  -0.73662  -0.72923  -0.71400
 Alpha  occ. eigenvalues --   -0.70686  -0.69844  -0.68656  -0.68085  -0.67533
 Alpha  occ. eigenvalues --   -0.67313  -0.66562  -0.66419  -0.65907  -0.65735
 Alpha  occ. eigenvalues --   -0.65312  -0.64984  -0.64623  -0.63172  -0.62160
 Alpha  occ. eigenvalues --   -0.61462  -0.61345  -0.61041  -0.60481  -0.60009
 Alpha  occ. eigenvalues --   -0.59044  -0.58693  -0.58314  -0.57623  -0.57342
 Alpha  occ. eigenvalues --   -0.56807  -0.56731  -0.56582  -0.56441  -0.56194
 Alpha  occ. eigenvalues --   -0.55541  -0.55122  -0.54995  -0.54851  -0.54684
 Alpha  occ. eigenvalues --   -0.54622  -0.54444  -0.54129  -0.54111  -0.53922
 Alpha  occ. eigenvalues --   -0.53516  -0.53337  -0.53146  -0.52862  -0.52750
 Alpha  occ. eigenvalues --   -0.52413  -0.52254  -0.52249  -0.51994  -0.51568
 Alpha  occ. eigenvalues --   -0.51343  -0.51125  -0.51059  -0.50864  -0.50645
 Alpha  occ. eigenvalues --   -0.50441  -0.50117  -0.50000  -0.49768  -0.49541
 Alpha  occ. eigenvalues --   -0.49509  -0.49196  -0.48926  -0.48854  -0.48624
 Alpha  occ. eigenvalues --   -0.48438  -0.47926  -0.47605  -0.47532  -0.47443
 Alpha  occ. eigenvalues --   -0.47317  -0.47176  -0.46986  -0.46594  -0.46478
 Alpha  occ. eigenvalues --   -0.46248  -0.46191  -0.46025  -0.45963  -0.45757
 Alpha  occ. eigenvalues --   -0.45567  -0.45408  -0.44984  -0.44929  -0.44647
 Alpha  occ. eigenvalues --   -0.44608  -0.44498  -0.44220  -0.43944  -0.43830
 Alpha  occ. eigenvalues --   -0.43724  -0.43635  -0.43265  -0.43078  -0.43009
 Alpha  occ. eigenvalues --   -0.42725  -0.42613  -0.42375  -0.41870  -0.41772
 Alpha  occ. eigenvalues --   -0.41675  -0.41317  -0.40974  -0.40665  -0.40376
 Alpha  occ. eigenvalues --   -0.40210  -0.39961  -0.39714  -0.39459  -0.39304
 Alpha  occ. eigenvalues --   -0.38760  -0.38666  -0.38596  -0.38548  -0.38131
 Alpha  occ. eigenvalues --   -0.37938  -0.37801  -0.37358  -0.37041  -0.35861
 Alpha  occ. eigenvalues --   -0.35670  -0.35523  -0.35126  -0.33075  -0.32665
 Alpha  occ. eigenvalues --   -0.32330  -0.32307  -0.32151  -0.31234  -0.25555
 Alpha  occ. eigenvalues --   -0.22303
 Alpha virt. eigenvalues --   -0.05823  -0.00019   0.02956   0.04630   0.04999
 Alpha virt. eigenvalues --    0.05333   0.05849   0.08225   0.08383   0.10349
 Alpha virt. eigenvalues --    0.11261   0.11729   0.11834   0.12361   0.12441

 Mulliken charges:
               1
     1  Mg   0.935196
     2  C   -0.051680
     3  C   -0.061582
     4  C   -0.087739
     5  C   -0.077502
     6  N   -0.340727
     7  C   -0.011594
     8  C   -0.072501
     9  C   -0.097125
    10  C   -0.018074
    11  C    0.027211
    12  C    0.075300
    13  C   -0.008651
    14  C    0.225544
    15  O   -0.255794
    16  O   -0.390593
    17  N   -0.491894
    18  C    0.185156
    19  C   -0.168940
    20  C   -0.097742
    21  C    0.176899
    22  C    0.049389
    23  C    0.039744
    24  O   -0.243982
    25  C    0.029151
    26  N   -0.304492
    27  C   -0.006307
    28  C    0.003934
    29  C   -0.112435
    30  C   -0.009595
    31  C    0.024277
    32  C   -0.039078
    33  C   -0.058069
    34  N   -0.382805
    35  C    0.163564
    36  C   -0.231034
    37  C   -0.034373
    38  C    0.182511
    39  C    0.099979
    40  C    0.079179
    41  O   -0.185244
    42  C   -0.047264
    43  C    0.272984
    44  O   -0.246423
    45  O   -0.376158
    46  C    0.145831
    47  C    0.256172
    48  C   -0.174501
    49  C   -0.208334
    50  C    0.038783
    51  C    0.050028
    52  C   -0.053662
    53  C    0.060937
    54  C   -0.220341
    55  C   -0.005787
    56  C    0.004795
    57  C   -0.045970
    58  C    0.012361
    59  C   -0.186343
    60  C    0.028138
    61  C    0.011432
    62  C   -0.009159
    63  C    0.001466
    64  C   -0.215798
    65  C   -0.011030
    66  C   -0.006024
    67  H   -0.012095
    68  H    0.023722
    69  H   -0.019117
    70  H    0.055616
    71  H    0.037485
    72  H    0.042088
    73  H    0.037224
    74  H    0.048644
    75  H    0.034397
    76  H    0.039710
    77  H    0.047249
    78  H    0.043388
    79  H    0.059604
    80  H    0.043624
    81  H    0.048970
    82  H    0.049528
    83  H    0.062237
    84  H    0.057521
    85  H    0.031925
    86  H    0.042218
    87  H    0.030671
    88  H    0.050044
    89  H    0.042015
    90  H    0.050121
    91  H    0.035378
    92  H    0.043040
    93  H    0.028683
    94  H    0.032870
    95  H    0.037886
    96  H    0.066367
    97  H    0.065416
    98  H    0.072320
    99  H    0.052311
   100  H    0.051305
   101  H    0.063750
   102  H    0.034181
   103  H    0.057477
   104  H    0.021551
   105  H    0.058069
   106  H    0.043898
   107  H    0.050901
   108  H    0.019122
   109  H    0.011418
   110  H    0.034877
   111  H    0.031619
   112  H    0.015769
   113  H    0.029348
   114  H    0.015478
   115  H    0.017394
   116  H    0.022427
   117  H    0.042796
   118  H    0.004746
   119  H    0.024569
   120  H    0.030482
   121  H    0.019080
   122  H    0.007705
   123  H    0.008704
   124  H    0.017867
   125  H    0.035258
   126  H    0.025683
   127  H    0.014632
   128  H    0.014031
   129  H    0.010415
   130  H    0.025779
   131  H    0.024453
   132  H    0.016640
   133  H    0.000753
   134  H    0.022051
   135  H    0.025605
   136  H    0.009052
   137  H    0.036197
   138  H    0.034036
   139  H    0.030985
   140  H    0.025222
 Sum of Mulliken charges =  -0.00000

 Dipole moment (field-independent basis, Debye):
    X=             -5.6598    Y=              2.4097    Z=              3.4939  Tot=              7.0744
 Quadrupole moment (field-independent basis, Debye-Ang):
   XX=           -388.1376   YY=           -426.3268   ZZ=           -402.1309
   XY=             28.8852   XZ=             17.2827   YZ=             -6.5659

 Normal termination of Gaussian 16 at Wed May  4 04:32:02 2022.
