 Gaussian 16, Revision A.03,
 Gaussian 16:  ES64L-G16RevA.03 25-Dec-2016

 --------------------
 #p ZINDO=(nstates=5)
 --------------------

 ------------------------------
 step_1351_chromophore_18 ZINDO
 ------------------------------
 Symbolic Z-matrix:
 Charge =  0 Multiplicity = 1

                         Standard orientation:
 ---------------------------------------------------------------------
 Center     Atomic      Atomic             Coordinates (Angstroms)
 Number     Number       Type             X           Y           Z
 ---------------------------------------------------------------------
      1         12           0        5.338198    1.220736    0.510516
      2          6           0        4.768191   -2.275250    0.239512
      3          6           0        2.052625    1.711810   -0.042259
      4          6           0        6.075359    4.470295   -0.204170
      5          6           0        8.803071    0.476886    0.012600
      6          7           0        3.582938   -0.248897    0.166836
      7          6           0        3.563537   -1.597512    0.327879
      8          6           0        2.114296   -2.058708    0.366855
      9          6           0        1.219446   -0.777882    0.098041
     10          6           0        2.321496    0.308999    0.077239
     11          6           0        0.285603   -0.736306   -1.144314
     12          6           0        1.751536   -2.913950    1.599078
     13          6           0        0.991517   -4.219308    1.315786
     14          6           0        0.105600   -4.483792    0.117743
     15          8           0        0.481818   -5.174326   -0.831793
     16          8           0       -1.067370   -3.677197    0.240197
     17          7           0        4.177376    2.908529    0.174450
     18          6           0        2.811347    2.844946    0.053955
     19          6           0        2.354056    4.233059    0.042005
     20          6           0        3.527829    5.032648   -0.149267
     21          6           0        4.683155    4.130293   -0.156097
     22          6           0        0.917683    4.560149    0.215137
     23          6           0        3.566441    6.592592   -0.352701
     24          8           0        4.655018    7.124633   -0.543482
     25          6           0        2.344211    7.409269   -0.367465
     26          7           0        7.256900    2.405955    0.056658
     27          6           0        7.240431    3.727918   -0.134284
     28          6           0        8.740517    4.231725   -0.417332
     29          6           0        9.564028    2.884589   -0.361860
     30          6           0        8.503055    1.876494   -0.058683
     31          6           0        8.995700    5.108740   -1.709906
     32          6           0       10.771072    2.884970    0.715867
     33          6           0       10.361833    2.585826    2.132251
     34          7           0        6.596903   -0.509931    0.346517
     35          6           0        7.912351   -0.610101    0.163915
     36          6           0        8.293123   -2.040648    0.073114
     37          6           0        7.082117   -2.699866    0.137473
     38          6           0        6.025433   -1.728681    0.232672
     39          6           0        9.686994   -2.626301   -0.073135
     40          6           0        6.504899   -4.012103    0.024055
     41          8           0        7.016950   -5.091031   -0.178436
     42          6           0        4.983044   -3.816525    0.082647
     43          6           0        4.351921   -4.426220   -1.064496
     44          8           0        4.153738   -3.914068   -2.143151
     45          8           0        3.985192   -5.722752   -0.793922
     46          6           0        3.212919   -6.342102   -1.917236
     47          6           0       -1.916306   -3.830109   -0.955541
     48          6           0       -3.185597   -3.032380   -0.829528
     49          6           0       -4.366544   -3.436321   -0.236251
     50          6           0       -4.615033   -4.731989    0.475294
     51          6           0       -5.448935   -2.399287   -0.342023
     52          6           0       -6.037793   -1.937181    0.951424
     53          6           0       -6.733678   -0.538420    1.012478
     54          6           0       -8.022376   -0.725570    1.792425
     55          6           0       -7.728289   -0.716645    3.358125
     56          6           0       -9.181290    0.206617    1.465185
     57          6           0       -9.799015   -0.027477    0.001340
     58          6           0      -11.306245   -0.445922    0.010674
     59          6           0      -12.295782    0.797404   -0.054390
     60          6           0      -12.553228    1.405886    1.290656
     61          6           0      -13.612742    0.469821   -0.717210
     62          6           0      -14.357683    1.807358   -1.189102
     63          6           0      -15.554742    2.180555   -0.411981
     64          6           0      -16.908822    2.550392   -1.167814
     65          6           0      -17.575669    3.769805   -0.532518
     66          6           0      -17.942496    1.380996   -1.259542
     67          1           0        0.967335    1.834308   -0.046488
     68          1           0        6.319630    5.531503   -0.281644
     69          1           0        9.891771    0.399110   -0.023917
     70          1           0        1.873303   -2.651113   -0.516172
     71          1           0        0.614057   -0.482520    0.954987
     72          1           0       -0.668893   -0.397499   -0.741732
     73          1           0        0.164977   -1.697166   -1.645512
     74          1           0        0.667002   -0.050480   -1.901084
     75          1           0        1.081647   -2.374716    2.269030
     76          1           0        2.660788   -3.175583    2.139439
     77          1           0        0.483064   -4.574788    2.212466
     78          1           0        1.793848   -4.953098    1.237807
     79          1           0        0.492488    4.705251   -0.777072
     80          1           0        0.657284    5.437821    0.805627
     81          1           0        0.592322    3.665414    0.747003
     82          1           0        1.888144    6.996516   -1.267153
     83          1           0        2.561170    8.459436   -0.564777
     84          1           0        1.733179    7.141669    0.494278
     85          1           0        8.965438    4.663816    0.558011
     86          1           0       10.087038    2.662375   -1.291635
     87          1           0        9.517235    6.052547   -1.548167
     88          1           0        8.095919    5.552229   -2.136601
     89          1           0        9.587695    4.498156   -2.391505
     90          1           0       11.338941    3.814177    0.656064
     91          1           0       11.307754    1.984068    0.421191
     92          1           0        9.294978    2.529514    2.344729
     93          1           0       10.697785    3.327889    2.858083
     94          1           0       10.828751    1.653187    2.451149
     95          1           0       10.154177   -1.900853   -0.738300
     96          1           0        9.575168   -3.563938   -0.617463
     97          1           0       10.150201   -2.654285    0.913121
     98          1           0        4.782761   -4.301597    1.038108
     99          1           0        2.675143   -7.163280   -1.444631
    100          1           0        3.836382   -6.682954   -2.743377
    101          1           0        2.514415   -5.614271   -2.329525
    102          1           0       -2.245182   -4.868887   -0.932683
    103          1           0       -1.440719   -3.511644   -1.883377
    104          1           0       -3.178322   -2.078651   -1.356689
    105          1           0       -4.945709   -5.490088   -0.236187
    106          1           0       -5.374596   -4.598839    1.246138
    107          1           0       -3.696201   -5.109478    0.924486
    108          1           0       -6.222453   -2.879912   -0.941361
    109          1           0       -5.071992   -1.606371   -0.989133
    110          1           0       -5.176269   -1.922403    1.619187
    111          1           0       -6.750053   -2.747752    1.107271
    112          1           0       -7.091996   -0.181590    0.046361
    113          1           0       -6.154821    0.203197    1.561271
    114          1           0       -8.402368   -1.718930    1.555747
    115          1           0       -6.664568   -0.902231    3.507914
    116          1           0       -8.175812   -1.626443    3.755592
    117          1           0       -8.075089    0.145453    3.928561
    118          1           0       -8.865281    1.249459    1.428186
    119          1           0       -9.906584    0.217212    2.277403
    120          1           0       -9.222796   -0.722194   -0.609883
    121          1           0       -9.739876    0.982009   -0.407270
    122          1           0      -11.445698   -0.992515    0.943313
    123          1           0      -11.457828   -1.251614   -0.707722
    124          1           0      -11.771560    1.544021   -0.651935
    125          1           0      -13.532137    1.063396    1.626366
    126          1           0      -12.431392    2.485962    1.211276
    127          1           0      -11.784463    1.166170    2.024143
    128          1           0      -14.231482   -0.145486   -0.064586
    129          1           0      -13.491243   -0.206226   -1.562900
    130          1           0      -14.603467    1.721608   -2.247834
    131          1           0      -13.793011    2.721901   -1.003598
    132          1           0      -15.310483    2.957001    0.312405
    133          1           0      -15.833895    1.300631    0.167104
    134          1           0      -16.760401    2.891042   -2.192628
    135          1           0      -17.723260    4.509644   -1.319627
    136          1           0      -16.856740    4.268982    0.117514
    137          1           0      -18.467774    3.561727    0.057678
    138          1           0      -18.958935    1.770290   -1.316226
    139          1           0      -17.831083    0.656684   -0.452233
    140          1           0      -17.722351    0.852608   -2.187005
 ---------------------------------------------------------------------

 SCF Done:  E(RZINDO/S) =  -474.265034925     A.U. after   20 cycles

 Excitation energies and oscillator strengths:

 Excited State   1:      Singlet-A      1.2855 eV  964.46 nm  f=0.5517  <S**2>=0.000
     175 ->178        -0.21004
     176 ->177         0.65759
 This state for optimization and/or second-order correction.
 Total Energy, E(CIS/TDA) =  -474.217792538
 Copying the excited state density for this state as the 1-particle RhoCI density.

 Excited State   2:      Singlet-A      1.9144 eV  647.66 nm  f=0.0007  <S**2>=0.000
     175 ->177         0.47452
     176 ->178         0.50420

 Excited State   3:      Singlet-A      2.7974 eV  443.21 nm  f=0.0034  <S**2>=0.000
     176 ->179         0.22429
     176 ->181         0.66268

 Excited State   4:      Singlet-A      2.9453 eV  420.96 nm  f=0.3461  <S**2>=0.000
     168 ->177        -0.16079
     168 ->179         0.20395
     168 ->182        -0.11285
     168 ->186         0.10134
     169 ->177        -0.10664
     169 ->179         0.13624
     175 ->177        -0.25562
     176 ->178         0.27905
     176 ->179         0.34874
     176 ->181        -0.10627

 Excited State   5:      Singlet-A      2.9845 eV  415.42 nm  f=0.2545  <S**2>=0.000
     168 ->177         0.24009
     168 ->178        -0.12575
     168 ->179        -0.28616
     168 ->182         0.18880
     168 ->186        -0.13944
     169 ->177         0.10441
     169 ->179        -0.11631
     175 ->177        -0.21023
     176 ->178         0.22699
     176 ->179         0.27548

 The electronic state is 1-A.
 Alpha  occ. eigenvalues --   -1.84562  -1.79669  -1.78158  -1.72853  -1.71838
 Alpha  occ. eigenvalues --   -1.69231  -1.65989  -1.62521  -1.59693  -1.58447
 Alpha  occ. eigenvalues --   -1.55820  -1.52656  -1.48902  -1.48684  -1.47012
 Alpha  occ. eigenvalues --   -1.44585  -1.42477  -1.40242  -1.39492  -1.38014
 Alpha  occ. eigenvalues --   -1.35504  -1.33853  -1.31991  -1.30881  -1.27932
 Alpha  occ. eigenvalues --   -1.26478  -1.24502  -1.22714  -1.20617  -1.18461
 Alpha  occ. eigenvalues --   -1.17665  -1.16526  -1.15835  -1.14932  -1.14445
 Alpha  occ. eigenvalues --   -1.12464  -1.11107  -1.08973  -1.04360  -1.03428
 Alpha  occ. eigenvalues --   -1.03062  -1.00594  -0.98476  -0.97930  -0.97159
 Alpha  occ. eigenvalues --   -0.96614  -0.94237  -0.93010  -0.92272  -0.91798
 Alpha  occ. eigenvalues --   -0.90001  -0.89401  -0.88358  -0.88168  -0.87358
 Alpha  occ. eigenvalues --   -0.85268  -0.84390  -0.83287  -0.81229  -0.79609
 Alpha  occ. eigenvalues --   -0.79488  -0.78089  -0.78077  -0.77786  -0.76579
 Alpha  occ. eigenvalues --   -0.75821  -0.75545  -0.74979  -0.74543  -0.74166
 Alpha  occ. eigenvalues --   -0.72954  -0.72094  -0.71709  -0.71517  -0.70802
 Alpha  occ. eigenvalues --   -0.70218  -0.69509  -0.68679  -0.68572  -0.67868
 Alpha  occ. eigenvalues --   -0.67629  -0.67118  -0.66598  -0.66223  -0.65364
 Alpha  occ. eigenvalues --   -0.64865  -0.64601  -0.64455  -0.64060  -0.63771
 Alpha  occ. eigenvalues --   -0.62969  -0.62480  -0.62314  -0.61781  -0.61746
 Alpha  occ. eigenvalues --   -0.61460  -0.61160  -0.60797  -0.60198  -0.59872
 Alpha  occ. eigenvalues --   -0.59691  -0.58953  -0.58825  -0.58723  -0.58388
 Alpha  occ. eigenvalues --   -0.57695  -0.57253  -0.57128  -0.56648  -0.56298
 Alpha  occ. eigenvalues --   -0.56170  -0.55883  -0.55087  -0.54733  -0.54712
 Alpha  occ. eigenvalues --   -0.53776  -0.53562  -0.53362  -0.53077  -0.52990
 Alpha  occ. eigenvalues --   -0.52518  -0.52358  -0.52109  -0.51602  -0.51043
 Alpha  occ. eigenvalues --   -0.50666  -0.50548  -0.50356  -0.50059  -0.49703
 Alpha  occ. eigenvalues --   -0.49348  -0.49247  -0.48942  -0.48672  -0.48402
 Alpha  occ. eigenvalues --   -0.47923  -0.47863  -0.47655  -0.47581  -0.47486
 Alpha  occ. eigenvalues --   -0.47445  -0.47178  -0.46784  -0.46636  -0.46278
 Alpha  occ. eigenvalues --   -0.46035  -0.45815  -0.45487  -0.45300  -0.44898
 Alpha  occ. eigenvalues --   -0.44734  -0.44601  -0.44159  -0.44055  -0.43837
 Alpha  occ. eigenvalues --   -0.43599  -0.43249  -0.43150  -0.42680  -0.42577
 Alpha  occ. eigenvalues --   -0.42052  -0.41407  -0.41164  -0.39716  -0.38388
 Alpha  occ. eigenvalues --   -0.37663  -0.36597  -0.34869  -0.34549  -0.34328
 Alpha  occ. eigenvalues --   -0.33040  -0.32196  -0.32114  -0.31509  -0.26278
 Alpha  occ. eigenvalues --   -0.20940
 Alpha virt. eigenvalues --   -0.07338  -0.02224   0.00148   0.00623   0.00980
 Alpha virt. eigenvalues --    0.01975   0.03141   0.03554   0.04013   0.05476
 Alpha virt. eigenvalues --    0.06790   0.07436   0.07928   0.08083   0.08660

 Mulliken charges:
               1
     1  Mg   0.430841
     2  C   -0.033866
     3  C   -0.065972
     4  C   -0.067862
     5  C   -0.097779
     6  N   -0.282244
     7  C    0.126618
     8  C    0.013132
     9  C    0.000389
    10  C    0.098301
    11  C   -0.047474
    12  C   -0.009611
    13  C   -0.003743
    14  C    0.470434
    15  O   -0.493385
    16  O   -0.274030
    17  N   -0.319344
    18  C    0.098022
    19  C    0.001099
    20  C   -0.062231
    21  C    0.138358
    22  C   -0.045583
    23  C    0.323889
    24  O   -0.536357
    25  C   -0.026804
    26  N   -0.278441
    27  C    0.123155
    28  C   -0.003094
    29  C   -0.002024
    30  C    0.141758
    31  C   -0.053259
    32  C   -0.030142
    33  C   -0.053304
    34  N   -0.306847
    35  C    0.125645
    36  C    0.028894
    37  C   -0.052325
    38  C    0.106407
    39  C   -0.039945
    40  C    0.340311
    41  O   -0.517979
    42  C    0.052695
    43  C    0.502196
    44  O   -0.523836
    45  O   -0.273056
    46  C    0.074204
    47  C    0.098452
    48  C   -0.115891
    49  C    0.003948
    50  C   -0.033915
    51  C   -0.018662
    52  C   -0.032299
    53  C   -0.031437
    54  C   -0.013439
    55  C   -0.068578
    56  C   -0.039164
    57  C   -0.046701
    58  C   -0.044076
    59  C    0.000450
    60  C   -0.055156
    61  C   -0.030360
    62  C   -0.037407
    63  C   -0.031787
    64  C   -0.018091
    65  C   -0.060948
    66  C   -0.057197
    67  H    0.015213
    68  H    0.038524
    69  H    0.028352
    70  H    0.042307
    71  H    0.027094
    72  H    0.019533
    73  H    0.029448
    74  H    0.027913
    75  H    0.022237
    76  H    0.026477
    77  H    0.032580
    78  H    0.023431
    79  H    0.035317
    80  H    0.027481
    81  H    0.029368
    82  H    0.038269
    83  H    0.046818
    84  H    0.043553
    85  H    0.036140
    86  H    0.031190
    87  H    0.019772
    88  H    0.033460
    89  H    0.026638
    90  H    0.030702
    91  H    0.020015
    92  H    0.025289
    93  H    0.010000
    94  H    0.015115
    95  H    0.026445
    96  H    0.044381
    97  H    0.044467
    98  H    0.053793
    99  H    0.031365
   100  H    0.046504
   101  H    0.052390
   102  H    0.043711
   103  H    0.053417
   104  H    0.027736
   105  H    0.033649
   106  H    0.025317
   107  H    0.026884
   108  H    0.014131
   109  H    0.018563
   110  H    0.023815
   111  H    0.030644
   112  H    0.023429
   113  H    0.028800
   114  H    0.016160
   115  H    0.013972
   116  H    0.011223
   117  H    0.030075
   118  H    0.008411
   119  H    0.024054
   120  H    0.026199
   121  H    0.016018
   122  H    0.011035
   123  H    0.018149
   124  H    0.018392
   125  H    0.027175
   126  H    0.016678
   127  H    0.015402
   128  H    0.021076
   129  H    0.009697
   130  H    0.020718
   131  H    0.023123
   132  H    0.020289
   133  H    0.010316
   134  H    0.019975
   135  H    0.015785
   136  H    0.008932
   137  H    0.025370
   138  H    0.022113
   139  H    0.023220
   140  H    0.011215
 Sum of Mulliken charges =  -0.00000

 Dipole moment (field-independent basis, Debye):
    X=             -6.6080    Y=              1.8895    Z=              5.5668  Tot=              8.8446
 N-N= 4.266363374705D+03 E-N= 0.000000000000D+00  KE=-9.207526080658D+03
 Leave Link  601 at Wed May  4 04:44:26 2022, MaxMem=  6710886400 cpu:               1.1 elap:               0.1
 (Enter /sw/apps/gaussian-16.0/g16/l9999.exe)
 1\1\GINC-BP1-COMPUTE040\SP\RZINDO CIS\STO-3G\C55H74Mg1N4O6\OF15641\04-
 May-2022\0\\#p ZINDO=(nstates=5)\\step_1351_chromophore_18 ZINDO\\0,1\
 Mg,0,34.648,49.247,25.196\C,0,34.597,47.385,28.221\C,0,32.973,51.702,2
 6.78\C,0,33.861,50.512,22.131\C,0,35.429,46.161,23.561\N,0,33.903,49.4
 64,27.377\C,0,34.199,48.691,28.454\C,0,33.801,49.445,29.714\C,0,33.105
 ,50.789,29.242\C,0,33.333,50.677,27.715\C,0,31.625,51.068,29.628\C,0,3
 4.928,49.576,30.76\C,0,34.555,49.209,32.205\C,0,33.167,49.278,32.804\O

 Normal termination of Gaussian 16 at Wed May  4 04:44:26 2022.
