 Gaussian 16, Revision A.03,
 Gaussian 16:  ES64L-G16RevA.03 25-Dec-2016

 ------------------------------
 #p blyp/Def2SVP td=(nstates=5)
 ------------------------------

 --------------------------------------------------
 step_601_chromophore_23 TDDFT with blyp functional
 --------------------------------------------------
 Symbolic Z-matrix:
 Charge =  0 Multiplicity = 1

                         Standard orientation:
 ---------------------------------------------------------------------
 Center     Atomic      Atomic             Coordinates (Angstroms)
 Number     Number       Type             X           Y           Z
 ---------------------------------------------------------------------
      1         12           0       -4.736986   -0.331105   -0.302759
      2          6           0       -3.069711    2.794965   -0.122838
      3          6           0       -2.656111   -1.269652   -2.897285
      4          6           0       -5.878190   -3.424992   -0.022378
      5          6           0       -6.493904    0.666433    2.651707
      6          7           0       -2.892707    0.524271   -1.177672
      7          6           0       -2.437095    1.845102   -0.986770
      8          6           0       -1.229828    2.017035   -1.812986
      9          6           0       -1.611441    1.111483   -3.082716
     10          6           0       -2.472220    0.026514   -2.341338
     11          6           0       -2.317887    1.780876   -4.226776
     12          6           0        0.092577    1.601083   -1.117756
     13          6           0        1.019072    2.765556   -0.797884
     14          6           0        2.285184    2.819801   -1.594222
     15          8           0        2.407186    2.659503   -2.777224
     16          8           0        3.329474    3.226350   -0.819686
     17          7           0       -4.226830   -2.073847   -1.240669
     18          6           0       -3.408428   -2.261277   -2.317836
     19          6           0       -3.463681   -3.637433   -2.783169
     20          6           0       -4.344395   -4.341576   -1.945408
     21          6           0       -4.903993   -3.296714   -1.048060
     22          6           0       -2.679235   -4.231195   -3.886122
     23          6           0       -4.732498   -5.894597   -2.153838
     24          8           0       -4.197717   -6.620144   -2.970187
     25          6           0       -5.684710   -6.513087   -1.156134
     26          7           0       -5.949700   -1.237782    1.071715
     27          6           0       -6.332618   -2.473744    0.916740
     28          6           0       -7.501438   -2.836346    1.888448
     29          6           0       -7.621819   -1.590035    2.829485
     30          6           0       -6.626671   -0.643738    2.162177
     31          6           0       -8.766764   -3.280195    1.107392
     32          6           0       -7.141527   -1.830320    4.282812
     33          6           0       -7.954000   -1.241958    5.452394
     34          7           0       -4.932396    1.414150    0.937695
     35          6           0       -5.736322    1.727818    2.003448
     36          6           0       -5.398234    2.998527    2.511610
     37          6           0       -4.537710    3.565142    1.585574
     38          6           0       -4.133953    2.484479    0.754337
     39          6           0       -5.957244    3.565988    3.760616
     40          6           0       -3.758395    4.719698    1.294616
     41          8           0       -3.680585    5.864602    1.841211
     42          6           0       -2.673648    4.211493    0.191987
     43          6           0       -2.684213    5.092246   -1.054823
     44          8           0       -3.455062    5.042835   -2.003093
     45          8           0       -1.613639    5.915969   -1.008994
     46          6           0       -1.277839    6.746890   -2.146879
     47          6           0        4.592894    3.507617   -1.556807
     48          6           0        5.804721    2.983246   -0.773907
     49          6           0        6.417348    1.732647   -0.741616
     50          6           0        6.188334    0.553771   -1.613348
     51          6           0        7.429036    1.442478    0.370160
     52          6           0        8.885047    1.839285   -0.075452
     53          6           0        9.888776    1.451928    1.014414
     54          6           0       10.430300    0.020537    0.884444
     55          6           0       11.453484   -0.265499   -0.253480
     56          6           0       10.970553   -0.690550    2.251982
     57          6           0       10.550577   -2.110178    2.282536
     58          6           0        9.474074   -2.489945    3.361432
     59          6           0        8.105339   -1.912595    3.059370
     60          6           0        7.436857   -1.280620    4.265755
     61          6           0        7.182917   -3.029759    2.490289
     62          6           0        6.339962   -2.589022    1.268832
     63          6           0        6.996197   -3.015351   -0.102494
     64          6           0        5.963334   -3.255625   -1.161951
     65          6           0        5.437037   -4.728404   -0.838861
     66          6           0        6.677243   -3.268633   -2.520857
     67          1           0       -2.196487   -1.452395   -3.870730
     68          1           0       -6.229030   -4.457806    0.035831
     69          1           0       -7.070870    1.032556    3.503816
     70          1           0       -1.129747    3.050599   -2.142357
     71          1           0       -0.762509    0.651092   -3.587310
     72          1           0       -3.142460    1.128902   -4.515937
     73          1           0       -1.655607    1.907220   -5.081758
     74          1           0       -2.832081    2.722972   -4.033941
     75          1           0        0.641037    0.852647   -1.689632
     76          1           0       -0.199917    1.212846   -0.142049
     77          1           0        1.308473    2.522449    0.224990
     78          1           0        0.518237    3.733380   -0.836566
     79          1           0       -1.887780   -3.579541   -4.257146
     80          1           0       -3.382514   -4.511009   -4.670189
     81          1           0       -2.170525   -5.120386   -3.512756
     82          1           0       -6.730748   -6.209549   -1.174898
     83          1           0       -5.293416   -6.452108   -0.140406
     84          1           0       -5.617826   -7.569230   -1.419086
     85          1           0       -7.197393   -3.678333    2.509589
     86          1           0       -8.643865   -1.229775    2.706452
     87          1           0       -8.958501   -4.326816    1.345550
     88          1           0       -8.608281   -3.174658    0.034134
     89          1           0       -9.683973   -2.757225    1.376820
     90          1           0       -6.146967   -1.427588    4.473745
     91          1           0       -7.004766   -2.882333    4.536800
     92          1           0       -7.274300   -0.828261    6.197200
     93          1           0       -8.530286   -2.054044    5.895792
     94          1           0       -8.591006   -0.404288    5.170910
     95          1           0       -5.601958    2.943942    4.581911
     96          1           0       -7.044297    3.640645    3.736831
     97          1           0       -5.552033    4.568210    3.904703
     98          1           0       -1.691712    4.215939    0.666078
     99          1           0       -0.374139    7.291745   -1.873414
    100          1           0       -2.065841    7.467765   -2.364571
    101          1           0       -1.149477    6.232771   -3.099101
    102          1           0        4.855108    4.534810   -1.811289
    103          1           0        4.666371    3.025997   -2.531973
    104          1           0        6.292185    3.680999   -0.094460
    105          1           0        7.054792    0.267340   -2.210100
    106          1           0        5.467175    0.706246   -2.415405
    107          1           0        5.964399   -0.343529   -1.036506
    108          1           0        7.377086    0.364654    0.526721
    109          1           0        7.091824    2.024850    1.227844
    110          1           0        8.947650    2.926184   -0.122696
    111          1           0        8.986755    1.284158   -1.007749
    112          1           0        9.550644    1.546315    2.046977
    113          1           0       10.644198    2.215085    0.830552
    114          1           0        9.593352   -0.508523    0.429136
    115          1           0       11.036330   -0.932090   -1.008467
    116          1           0       12.446295   -0.555287    0.090424
    117          1           0       11.480873    0.656782   -0.834146
    118          1           0       10.347544   -0.235643    3.022564
    119          1           0       12.019497   -0.446969    2.419633
    120          1           0       11.486664   -2.653733    2.407400
    121          1           0       10.225740   -2.426380    1.291262
    122          1           0        9.843587   -2.310287    4.371599
    123          1           0        9.485640   -3.574315    3.256329
    124          1           0        8.106096   -1.061179    2.378535
    125          1           0        8.148248   -1.061415    5.062461
    126          1           0        6.705701   -1.892736    4.795353
    127          1           0        6.943754   -0.352131    3.978489
    128          1           0        6.550119   -3.468475    3.261813
    129          1           0        7.848279   -3.835299    2.179954
    130          1           0        6.236376   -1.505074    1.299007
    131          1           0        5.356109   -3.026558    1.436863
    132          1           0        7.688625   -3.851113   -0.004182
    133          1           0        7.497548   -2.092959   -0.396068
    134          1           0        5.239852   -2.447866   -1.056544
    135          1           0        5.799677   -5.399448   -1.618023
    136          1           0        4.351855   -4.620933   -0.854292
    137          1           0        5.654439   -5.061578    0.175408
    138          1           0        6.017208   -3.328308   -3.387084
    139          1           0        7.390612   -4.082617   -2.644320
    140          1           0        7.281516   -2.364097   -2.596307
 ---------------------------------------------------------------------

 SCF Done:  E(RB-LYP) =  -3007.37158595     A.U. after   19 cycles

 Excitation energies and oscillator strengths:

 Excited State   1:      Singlet-A      1.7641 eV  702.81 nm  f=0.2801  <S**2>=0.000
     244 -> 247        0.12757
     245 -> 248        0.17093
     246 -> 247        0.68072
     246 <- 247       -0.14368
 This state for optimization and/or second-order correction.
 Total Energy, E(TD-HF/TD-DFT) =  -3007.30675549
 Copying the excited state density for this state as the 1-particle RhoCI density.

 Excited State   2:      Singlet-A      1.8725 eV  662.14 nm  f=0.0149  <S**2>=0.000
     244 -> 247        0.69457
     246 -> 247       -0.12242

 Excited State   3:      Singlet-A      2.0341 eV  609.52 nm  f=0.0616  <S**2>=0.000
     245 -> 247        0.63822
     246 -> 248       -0.26785

 Excited State   4:      Singlet-A      2.1655 eV  572.55 nm  f=0.0001  <S**2>=0.000
     243 -> 247        0.70685

 Excited State   5:      Singlet-A      2.3810 eV  520.72 nm  f=0.0002  <S**2>=0.000
     241 -> 247        0.13403
     242 -> 247        0.69260

 The electronic state is 1-A.
 Alpha  occ. eigenvalues --  -46.26988 -18.82224 -18.81870 -18.77492 -18.76532
 Alpha  occ. eigenvalues --  -18.76472 -18.75483 -14.03716 -14.03303 -14.01392
 Alpha  occ. eigenvalues --  -14.00655 -10.03902 -10.03605 -10.01725  -9.99644
 Alpha  occ. eigenvalues --   -9.97767  -9.97641  -9.97137  -9.96963  -9.96787
 Alpha  occ. eigenvalues --   -9.96772  -9.96530  -9.95641  -9.94628  -9.94296
 Alpha  occ. eigenvalues --   -9.94094  -9.94070  -9.94021  -9.93943  -9.93787
 Alpha  occ. eigenvalues --   -9.93483  -9.93466  -9.93449  -9.93356  -9.93237
 Alpha  occ. eigenvalues --   -9.93152  -9.93003  -9.92931  -9.92869  -9.92798
 Alpha  occ. eigenvalues --   -9.92775  -9.92696  -9.92608  -9.92248  -9.92247
 Alpha  occ. eigenvalues --   -9.92208  -9.92069  -9.92002  -9.92000  -9.91923
 Alpha  occ. eigenvalues --   -9.91878  -9.91769  -9.91533  -9.91398  -9.91332
 Alpha  occ. eigenvalues --   -9.91115  -9.91096  -9.91090  -9.91042  -9.91034
 Alpha  occ. eigenvalues --   -9.90969  -9.90771  -9.90769  -9.90762  -9.90761
 Alpha  occ. eigenvalues --   -9.90349  -2.91739  -1.72138  -1.71631  -1.71458
 Alpha  occ. eigenvalues --   -0.98237  -0.98178  -0.93371  -0.89916  -0.89645
 Alpha  occ. eigenvalues --   -0.88452  -0.86991  -0.86223  -0.85826  -0.84823
 Alpha  occ. eigenvalues --   -0.75185  -0.73786  -0.73247  -0.72842  -0.72824
 Alpha  occ. eigenvalues --   -0.72291  -0.71640  -0.70990  -0.70625  -0.70411
 Alpha  occ. eigenvalues --   -0.70158  -0.69370  -0.68269  -0.67697  -0.67500
 Alpha  occ. eigenvalues --   -0.66496  -0.66286  -0.65561  -0.65303  -0.65014
 Alpha  occ. eigenvalues --   -0.64170  -0.62726  -0.62369  -0.61817  -0.60693
 Alpha  occ. eigenvalues --   -0.60477  -0.60150  -0.59742  -0.59702  -0.58885
 Alpha  occ. eigenvalues --   -0.57990  -0.57288  -0.56588  -0.55477  -0.54497
 Alpha  occ. eigenvalues --   -0.54062  -0.53952  -0.52688  -0.52574  -0.51853
 Alpha  occ. eigenvalues --   -0.51305  -0.50689  -0.50539  -0.50369  -0.49526
 Alpha  occ. eigenvalues --   -0.49427  -0.49381  -0.48804  -0.48770  -0.46639
 Alpha  occ. eigenvalues --   -0.46351  -0.45909  -0.45631  -0.45582  -0.44611
 Alpha  occ. eigenvalues --   -0.44361  -0.43970  -0.43407  -0.42643  -0.42358
 Alpha  occ. eigenvalues --   -0.42186  -0.42000  -0.41761  -0.41641  -0.41096
 Alpha  occ. eigenvalues --   -0.40784  -0.40599  -0.40572  -0.40252  -0.40132
 Alpha  occ. eigenvalues --   -0.39888  -0.39862  -0.39714  -0.39685  -0.39511
 Alpha  occ. eigenvalues --   -0.39165  -0.38964  -0.38791  -0.38721  -0.38476
 Alpha  occ. eigenvalues --   -0.38182  -0.38058  -0.37812  -0.37670  -0.37404
 Alpha  occ. eigenvalues --   -0.37209  -0.36981  -0.36959  -0.36785  -0.36443
 Alpha  occ. eigenvalues --   -0.36187  -0.36022  -0.35923  -0.35787  -0.35512
 Alpha  occ. eigenvalues --   -0.35382  -0.35211  -0.35011  -0.34685  -0.34649
 Alpha  occ. eigenvalues --   -0.34593  -0.34483  -0.34292  -0.34169  -0.34093
 Alpha  occ. eigenvalues --   -0.33488  -0.33455  -0.33256  -0.33178  -0.33121
 Alpha  occ. eigenvalues --   -0.33005  -0.32707  -0.32612  -0.32358  -0.32211
 Alpha  occ. eigenvalues --   -0.32057  -0.31930  -0.31889  -0.31852  -0.31527
 Alpha  occ. eigenvalues --   -0.31441  -0.31403  -0.31164  -0.31083  -0.30714
 Alpha  occ. eigenvalues --   -0.30616  -0.30440  -0.30291  -0.29659  -0.29571
 Alpha  occ. eigenvalues --   -0.29476  -0.29273  -0.29130  -0.29096  -0.28947
 Alpha  occ. eigenvalues --   -0.28895  -0.28724  -0.28699  -0.28148  -0.28117
 Alpha  occ. eigenvalues --   -0.27541  -0.27462  -0.27300  -0.26688  -0.26674
 Alpha  occ. eigenvalues --   -0.26309  -0.25950  -0.25519  -0.25470  -0.25092
 Alpha  occ. eigenvalues --   -0.25003  -0.24923  -0.24574  -0.23999  -0.23495
 Alpha  occ. eigenvalues --   -0.23388  -0.22182  -0.22062  -0.21678  -0.21128
 Alpha  occ. eigenvalues --   -0.20442  -0.20270  -0.19580  -0.18386  -0.17607
 Alpha  occ. eigenvalues --   -0.15846
 Alpha virt. eigenvalues --   -0.11623  -0.07304  -0.06692  -0.05188  -0.03577
 Alpha virt. eigenvalues --   -0.03074  -0.02541  -0.02285  -0.01600  -0.00217
 Alpha virt. eigenvalues --    0.00770   0.01064   0.01566   0.02682   0.03108

 Mulliken charges:
               1
     1  Mg   0.702254
     2  C    0.031271
     3  C   -0.110673
     4  C   -0.051128
     5  C   -0.059080
     6  N   -0.211378
     7  C   -0.034540
     8  C   -0.002599
     9  C   -0.028063
    10  C    0.036807
    11  C    0.134603
    12  C    0.181389
    13  C    0.108997
    14  C    0.041792
    15  O   -0.174880
    16  O   -0.255975
    17  N   -0.312918
    18  C    0.195114
    19  C   -0.170680
    20  C    0.009790
    21  C    0.096062
    22  C    0.206347
    23  C   -0.037585
    24  O   -0.142406
    25  C    0.108880
    26  N   -0.233944
    27  C    0.054437
    28  C   -0.008899
    29  C    0.076303
    30  C    0.047959
    31  C    0.122110
    32  C    0.080666
    33  C    0.053710
    34  N   -0.222497
    35  C    0.062356
    36  C   -0.200861
    37  C    0.124988
    38  C    0.025079
    39  C    0.185006
    40  C   -0.025584
    41  O   -0.182162
    42  C    0.019426
    43  C    0.121346
    44  O   -0.186291
    45  O   -0.252896
    46  C    0.221806
    47  C    0.349814
    48  C   -0.131168
    49  C   -0.139644
    50  C    0.137693
    51  C    0.069746
    52  C    0.069448
    53  C    0.164030
    54  C   -0.142697
    55  C    0.113562
    56  C    0.132032
    57  C    0.053831
    58  C    0.137649
    59  C   -0.074656
    60  C    0.103606
    61  C    0.107892
    62  C    0.057722
    63  C    0.060501
    64  C   -0.092017
    65  C    0.107598
    66  C    0.117171
    67  H   -0.052374
    68  H   -0.095878
    69  H   -0.058216
    70  H   -0.036877
    71  H   -0.039212
    72  H   -0.028183
    73  H   -0.003905
    74  H    0.005172
    75  H   -0.012047
    76  H   -0.024717
    77  H   -0.011058
    78  H    0.025027
    79  H   -0.022743
    80  H    0.011459
    81  H    0.010678
    82  H    0.030248
    83  H    0.021385
    84  H   -0.011870
    85  H   -0.029616
    86  H   -0.021481
    87  H   -0.010047
    88  H    0.000945
    89  H   -0.010341
    90  H   -0.014055
    91  H   -0.027728
    92  H   -0.011152
    93  H   -0.003841
    94  H   -0.005217
    95  H   -0.003081
    96  H    0.006543
    97  H   -0.000921
    98  H    0.008521
    99  H    0.016869
   100  H    0.009668
   101  H    0.011011
   102  H   -0.011723
   103  H   -0.005937
   104  H   -0.043725
   105  H   -0.002841
   106  H   -0.015481
   107  H    0.003824
   108  H   -0.013964
   109  H   -0.018048
   110  H   -0.025749
   111  H   -0.025653
   112  H   -0.038650
   113  H   -0.042921
   114  H   -0.031995
   115  H   -0.022601
   116  H   -0.005879
   117  H   -0.037601
   118  H   -0.047503
   119  H   -0.017124
   120  H   -0.047758
   121  H   -0.034230
   122  H   -0.036631
   123  H   -0.037518
   124  H   -0.019614
   125  H   -0.029353
   126  H   -0.025720
   127  H   -0.018122
   128  H   -0.035532
   129  H   -0.042924
   130  H   -0.022000
   131  H   -0.038163
   132  H   -0.021347
   133  H   -0.036629
   134  H   -0.016532
   135  H   -0.008272
   136  H   -0.018820
   137  H   -0.006568
   138  H   -0.014806
   139  H   -0.021754
   140  H   -0.032672
 Sum of Mulliken charges =  -0.00000

 Dipole moment (field-independent basis, Debye):
    X=             -0.0208    Y=             -3.5709    Z=              1.2555  Tot=              3.7852
 Quadrupole moment (field-independent basis, Debye-Ang):
   XX=           -365.7525   YY=           -437.5393   ZZ=           -404.1713
   XY=             28.6966   XZ=            -15.5096   YZ=            -23.6448

 Normal termination of Gaussian 16 at Sat Apr 30 06:18:22 2022.
