 Gaussian 16, Revision A.03,
 Gaussian 16:  ES64L-G16RevA.03 25-Dec-2016

 -----------------------------------
 #p cam-b3lyp/Def2SVP td=(nstates=5)
 -----------------------------------

 -------------------------------------------------------
 step_601_chromophore_23 TDDFT with cam-b3lyp functional
 -------------------------------------------------------
 Symbolic Z-matrix:
 Charge =  0 Multiplicity = 1

                         Standard orientation:
 ---------------------------------------------------------------------
 Center     Atomic      Atomic             Coordinates (Angstroms)
 Number     Number       Type             X           Y           Z
 ---------------------------------------------------------------------
      1         12           0       -4.736986   -0.331105   -0.302759
      2          6           0       -3.069711    2.794965   -0.122838
      3          6           0       -2.656111   -1.269652   -2.897285
      4          6           0       -5.878190   -3.424992   -0.022378
      5          6           0       -6.493904    0.666433    2.651707
      6          7           0       -2.892707    0.524271   -1.177672
      7          6           0       -2.437095    1.845102   -0.986770
      8          6           0       -1.229828    2.017035   -1.812986
      9          6           0       -1.611441    1.111483   -3.082716
     10          6           0       -2.472220    0.026514   -2.341338
     11          6           0       -2.317887    1.780876   -4.226776
     12          6           0        0.092577    1.601083   -1.117756
     13          6           0        1.019072    2.765556   -0.797884
     14          6           0        2.285184    2.819801   -1.594222
     15          8           0        2.407186    2.659503   -2.777224
     16          8           0        3.329474    3.226350   -0.819686
     17          7           0       -4.226830   -2.073847   -1.240669
     18          6           0       -3.408428   -2.261277   -2.317836
     19          6           0       -3.463681   -3.637433   -2.783169
     20          6           0       -4.344395   -4.341576   -1.945408
     21          6           0       -4.903993   -3.296714   -1.048060
     22          6           0       -2.679235   -4.231195   -3.886122
     23          6           0       -4.732498   -5.894597   -2.153838
     24          8           0       -4.197717   -6.620144   -2.970187
     25          6           0       -5.684710   -6.513087   -1.156134
     26          7           0       -5.949700   -1.237782    1.071715
     27          6           0       -6.332618   -2.473744    0.916740
     28          6           0       -7.501438   -2.836346    1.888448
     29          6           0       -7.621819   -1.590035    2.829485
     30          6           0       -6.626671   -0.643738    2.162177
     31          6           0       -8.766764   -3.280195    1.107392
     32          6           0       -7.141527   -1.830320    4.282812
     33          6           0       -7.954000   -1.241958    5.452394
     34          7           0       -4.932396    1.414150    0.937695
     35          6           0       -5.736322    1.727818    2.003448
     36          6           0       -5.398234    2.998527    2.511610
     37          6           0       -4.537710    3.565142    1.585574
     38          6           0       -4.133953    2.484479    0.754337
     39          6           0       -5.957244    3.565988    3.760616
     40          6           0       -3.758395    4.719698    1.294616
     41          8           0       -3.680585    5.864602    1.841211
     42          6           0       -2.673648    4.211493    0.191987
     43          6           0       -2.684213    5.092246   -1.054823
     44          8           0       -3.455062    5.042835   -2.003093
     45          8           0       -1.613639    5.915969   -1.008994
     46          6           0       -1.277839    6.746890   -2.146879
     47          6           0        4.592894    3.507617   -1.556807
     48          6           0        5.804721    2.983246   -0.773907
     49          6           0        6.417348    1.732647   -0.741616
     50          6           0        6.188334    0.553771   -1.613348
     51          6           0        7.429036    1.442478    0.370160
     52          6           0        8.885047    1.839285   -0.075452
     53          6           0        9.888776    1.451928    1.014414
     54          6           0       10.430300    0.020537    0.884444
     55          6           0       11.453484   -0.265499   -0.253480
     56          6           0       10.970553   -0.690550    2.251982
     57          6           0       10.550577   -2.110178    2.282536
     58          6           0        9.474074   -2.489945    3.361432
     59          6           0        8.105339   -1.912595    3.059370
     60          6           0        7.436857   -1.280620    4.265755
     61          6           0        7.182917   -3.029759    2.490289
     62          6           0        6.339962   -2.589022    1.268832
     63          6           0        6.996197   -3.015351   -0.102494
     64          6           0        5.963334   -3.255625   -1.161951
     65          6           0        5.437037   -4.728404   -0.838861
     66          6           0        6.677243   -3.268633   -2.520857
     67          1           0       -2.196487   -1.452395   -3.870730
     68          1           0       -6.229030   -4.457806    0.035831
     69          1           0       -7.070870    1.032556    3.503816
     70          1           0       -1.129747    3.050599   -2.142357
     71          1           0       -0.762509    0.651092   -3.587310
     72          1           0       -3.142460    1.128902   -4.515937
     73          1           0       -1.655607    1.907220   -5.081758
     74          1           0       -2.832081    2.722972   -4.033941
     75          1           0        0.641037    0.852647   -1.689632
     76          1           0       -0.199917    1.212846   -0.142049
     77          1           0        1.308473    2.522449    0.224990
     78          1           0        0.518237    3.733380   -0.836566
     79          1           0       -1.887780   -3.579541   -4.257146
     80          1           0       -3.382514   -4.511009   -4.670189
     81          1           0       -2.170525   -5.120386   -3.512756
     82          1           0       -6.730748   -6.209549   -1.174898
     83          1           0       -5.293416   -6.452108   -0.140406
     84          1           0       -5.617826   -7.569230   -1.419086
     85          1           0       -7.197393   -3.678333    2.509589
     86          1           0       -8.643865   -1.229775    2.706452
     87          1           0       -8.958501   -4.326816    1.345550
     88          1           0       -8.608281   -3.174658    0.034134
     89          1           0       -9.683973   -2.757225    1.376820
     90          1           0       -6.146967   -1.427588    4.473745
     91          1           0       -7.004766   -2.882333    4.536800
     92          1           0       -7.274300   -0.828261    6.197200
     93          1           0       -8.530286   -2.054044    5.895792
     94          1           0       -8.591006   -0.404288    5.170910
     95          1           0       -5.601958    2.943942    4.581911
     96          1           0       -7.044297    3.640645    3.736831
     97          1           0       -5.552033    4.568210    3.904703
     98          1           0       -1.691712    4.215939    0.666078
     99          1           0       -0.374139    7.291745   -1.873414
    100          1           0       -2.065841    7.467765   -2.364571
    101          1           0       -1.149477    6.232771   -3.099101
    102          1           0        4.855108    4.534810   -1.811289
    103          1           0        4.666371    3.025997   -2.531973
    104          1           0        6.292185    3.680999   -0.094460
    105          1           0        7.054792    0.267340   -2.210100
    106          1           0        5.467175    0.706246   -2.415405
    107          1           0        5.964399   -0.343529   -1.036506
    108          1           0        7.377086    0.364654    0.526721
    109          1           0        7.091824    2.024850    1.227844
    110          1           0        8.947650    2.926184   -0.122696
    111          1           0        8.986755    1.284158   -1.007749
    112          1           0        9.550644    1.546315    2.046977
    113          1           0       10.644198    2.215085    0.830552
    114          1           0        9.593352   -0.508523    0.429136
    115          1           0       11.036330   -0.932090   -1.008467
    116          1           0       12.446295   -0.555287    0.090424
    117          1           0       11.480873    0.656782   -0.834146
    118          1           0       10.347544   -0.235643    3.022564
    119          1           0       12.019497   -0.446969    2.419633
    120          1           0       11.486664   -2.653733    2.407400
    121          1           0       10.225740   -2.426380    1.291262
    122          1           0        9.843587   -2.310287    4.371599
    123          1           0        9.485640   -3.574315    3.256329
    124          1           0        8.106096   -1.061179    2.378535
    125          1           0        8.148248   -1.061415    5.062461
    126          1           0        6.705701   -1.892736    4.795353
    127          1           0        6.943754   -0.352131    3.978489
    128          1           0        6.550119   -3.468475    3.261813
    129          1           0        7.848279   -3.835299    2.179954
    130          1           0        6.236376   -1.505074    1.299007
    131          1           0        5.356109   -3.026558    1.436863
    132          1           0        7.688625   -3.851113   -0.004182
    133          1           0        7.497548   -2.092959   -0.396068
    134          1           0        5.239852   -2.447866   -1.056544
    135          1           0        5.799677   -5.399448   -1.618023
    136          1           0        4.351855   -4.620933   -0.854292
    137          1           0        5.654439   -5.061578    0.175408
    138          1           0        6.017208   -3.328308   -3.387084
    139          1           0        7.390612   -4.082617   -2.644320
    140          1           0        7.281516   -2.364097   -2.596307
 ---------------------------------------------------------------------

 SCF Done:  E(RCAM-B3LYP) =  -3007.17026065     A.U. after   17 cycles

 Excitation energies and oscillator strengths:

 Excited State   1:      Singlet-A      1.8001 eV  688.76 nm  f=0.3548  <S**2>=0.000
     245 -> 248        0.15332
     246 -> 247        0.68993
 This state for optimization and/or second-order correction.
 Total Energy, E(TD-HF/TD-DFT) =  -3007.10410747
 Copying the excited state density for this state as the 1-particle RhoCI density.

 Excited State   2:      Singlet-A      2.3191 eV  534.62 nm  f=0.0769  <S**2>=0.000
     245 -> 247        0.61840
     246 -> 248       -0.32306

 Excited State   3:      Singlet-A      3.4533 eV  359.03 nm  f=0.3702  <S**2>=0.000
     240 -> 247        0.17694
     241 -> 247       -0.15845
     242 -> 247        0.20444
     242 -> 249       -0.11239
     244 -> 247       -0.21574
     245 -> 247        0.23310
     246 -> 248        0.50290

 Excited State   4:      Singlet-A      3.4687 eV  357.43 nm  f=0.0705  <S**2>=0.000
     240 -> 247        0.16986
     241 -> 247       -0.32168
     242 -> 249        0.19508
     242 -> 250        0.10577
     242 -> 251       -0.11905
     244 -> 247        0.47570
     244 -> 249       -0.12286
     246 -> 248        0.16172

 Excited State   5:      Singlet-A      3.5373 eV  350.50 nm  f=0.1370  <S**2>=0.000
     240 -> 247        0.16658
     241 -> 247       -0.20114
     242 -> 247        0.45352
     242 -> 249       -0.20427
     242 -> 251        0.10447
     244 -> 247        0.17119
     245 -> 247       -0.17035
     246 -> 248       -0.26429

 The electronic state is 1-A.
 Alpha  occ. eigenvalues --  -46.88578 -19.25002 -19.24711 -19.21329 -19.19436
 Alpha  occ. eigenvalues --  -19.19384 -19.17930 -14.42562 -14.42314 -14.40257
 Alpha  occ. eigenvalues --  -14.38686 -10.39182 -10.38739 -10.37594 -10.34585
 Alpha  occ. eigenvalues --  -10.32470 -10.32220 -10.31913 -10.31789 -10.31614
 Alpha  occ. eigenvalues --  -10.30915 -10.30634 -10.30551 -10.29366 -10.28773
 Alpha  occ. eigenvalues --  -10.28226 -10.28155 -10.28079 -10.27864 -10.27863
 Alpha  occ. eigenvalues --  -10.27811 -10.27661 -10.27630 -10.27385 -10.27303
 Alpha  occ. eigenvalues --  -10.27268 -10.27151 -10.27042 -10.26961 -10.26675
 Alpha  occ. eigenvalues --  -10.26612 -10.26390 -10.26318 -10.25980 -10.25961
 Alpha  occ. eigenvalues --  -10.25926 -10.25885 -10.25877 -10.25746 -10.25552
 Alpha  occ. eigenvalues --  -10.25551 -10.25206 -10.25179 -10.25050 -10.24953
 Alpha  occ. eigenvalues --  -10.24755 -10.24749 -10.24741 -10.24736 -10.24692
 Alpha  occ. eigenvalues --  -10.24644 -10.24446 -10.24393 -10.24343 -10.23963
 Alpha  occ. eigenvalues --  -10.23921  -3.17233  -1.92106  -1.91702  -1.91539
 Alpha  occ. eigenvalues --   -1.16699  -1.16558  -1.12389  -1.07704  -1.07439
 Alpha  occ. eigenvalues --   -1.06088  -1.04766  -1.03977  -1.03261  -1.02602
 Alpha  occ. eigenvalues --   -0.91968  -0.90673  -0.90065  -0.89585  -0.89494
 Alpha  occ. eigenvalues --   -0.89025  -0.88607  -0.87739  -0.87567  -0.87059
 Alpha  occ. eigenvalues --   -0.86282  -0.85793  -0.84561  -0.83957  -0.83578
 Alpha  occ. eigenvalues --   -0.82755  -0.82369  -0.81532  -0.81133  -0.80845
 Alpha  occ. eigenvalues --   -0.79941  -0.78244  -0.78084  -0.77644  -0.76029
 Alpha  occ. eigenvalues --   -0.75764  -0.75512  -0.75055  -0.74983  -0.74126
 Alpha  occ. eigenvalues --   -0.73002  -0.72122  -0.71540  -0.70246  -0.68991
 Alpha  occ. eigenvalues --   -0.68713  -0.68488  -0.67436  -0.67000  -0.65858
 Alpha  occ. eigenvalues --   -0.65253  -0.64854  -0.64807  -0.64358  -0.63429
 Alpha  occ. eigenvalues --   -0.63400  -0.63114  -0.62615  -0.62385  -0.60571
 Alpha  occ. eigenvalues --   -0.59890  -0.59449  -0.59310  -0.59024  -0.57868
 Alpha  occ. eigenvalues --   -0.57714  -0.57301  -0.56950  -0.55834  -0.55349
 Alpha  occ. eigenvalues --   -0.55305  -0.54953  -0.54575  -0.54531  -0.54042
 Alpha  occ. eigenvalues --   -0.53905  -0.53499  -0.53393  -0.53237  -0.53175
 Alpha  occ. eigenvalues --   -0.52814  -0.52539  -0.52349  -0.52173  -0.52117
 Alpha  occ. eigenvalues --   -0.51662  -0.51411  -0.51240  -0.51074  -0.50998
 Alpha  occ. eigenvalues --   -0.50809  -0.50752  -0.50396  -0.50104  -0.49831
 Alpha  occ. eigenvalues --   -0.49653  -0.49449  -0.49378  -0.49045  -0.48867
 Alpha  occ. eigenvalues --   -0.48267  -0.48100  -0.48010  -0.47965  -0.47636
 Alpha  occ. eigenvalues --   -0.47445  -0.47260  -0.47006  -0.46898  -0.46608
 Alpha  occ. eigenvalues --   -0.46493  -0.46380  -0.46296  -0.46010  -0.45878
 Alpha  occ. eigenvalues --   -0.45191  -0.45126  -0.45010  -0.44827  -0.44746
 Alpha  occ. eigenvalues --   -0.44714  -0.44535  -0.44402  -0.44140  -0.43987
 Alpha  occ. eigenvalues --   -0.43807  -0.43670  -0.43523  -0.43357  -0.43259
 Alpha  occ. eigenvalues --   -0.42942  -0.42793  -0.42534  -0.42373  -0.42046
 Alpha  occ. eigenvalues --   -0.41981  -0.41730  -0.41627  -0.41266  -0.40918
 Alpha  occ. eigenvalues --   -0.40619  -0.40545  -0.40342  -0.40241  -0.40036
 Alpha  occ. eigenvalues --   -0.39877  -0.39802  -0.39723  -0.39241  -0.39169
 Alpha  occ. eigenvalues --   -0.38442  -0.38298  -0.38260  -0.37874  -0.37444
 Alpha  occ. eigenvalues --   -0.36929  -0.36780  -0.36521  -0.36401  -0.36350
 Alpha  occ. eigenvalues --   -0.35866  -0.35530  -0.35078  -0.34371  -0.34111
 Alpha  occ. eigenvalues --   -0.34037  -0.33870  -0.33209  -0.32942  -0.31680
 Alpha  occ. eigenvalues --   -0.30799  -0.29937  -0.29077  -0.28952  -0.24667
 Alpha  occ. eigenvalues --   -0.21254
 Alpha virt. eigenvalues --   -0.08478  -0.02021  -0.00157   0.01582   0.02091
 Alpha virt. eigenvalues --    0.03765   0.04795   0.05660   0.05982   0.06650
 Alpha virt. eigenvalues --    0.07118   0.07431   0.08438   0.08916   0.09363

 Mulliken charges:
               1
     1  Mg   0.834922
     2  C    0.012233
     3  C   -0.123205
     4  C   -0.082513
     5  C   -0.060453
     6  N   -0.276611
     7  C    0.001896
     8  C   -0.055693
     9  C   -0.079079
    10  C    0.055499
    11  C    0.076578
    12  C    0.127127
    13  C    0.034997
    14  C    0.128196
    15  O   -0.218379
    16  O   -0.320909
    17  N   -0.404649
    18  C    0.207859
    19  C   -0.170008
    20  C   -0.050330
    21  C    0.134384
    22  C    0.143952
    23  C    0.045161
    24  O   -0.178188
    25  C    0.018402
    26  N   -0.310086
    27  C    0.084197
    28  C   -0.058991
    29  C    0.019027
    30  C    0.056336
    31  C    0.060966
    32  C    0.022454
    33  C   -0.004976
    34  N   -0.306927
    35  C    0.065399
    36  C   -0.198243
    37  C    0.043069
    38  C    0.051696
    39  C    0.123908
    40  C    0.070642
    41  O   -0.227411
    42  C   -0.055328
    43  C    0.207670
    44  O   -0.224058
    45  O   -0.316600
    46  C    0.181665
    47  C    0.318763
    48  C   -0.152932
    49  C   -0.154647
    50  C    0.082725
    51  C    0.021377
    52  C    0.017818
    53  C    0.107254
    54  C   -0.192127
    55  C    0.056903
    56  C    0.075724
    57  C    0.005447
    58  C    0.077582
    59  C   -0.131207
    60  C    0.050766
    61  C    0.058579
    62  C    0.010101
    63  C    0.011891
    64  C   -0.153029
    65  C    0.049140
    66  C    0.059521
    67  H   -0.014599
    68  H   -0.058469
    69  H   -0.023945
    70  H   -0.003074
    71  H   -0.001924
    72  H   -0.002830
    73  H    0.022187
    74  H    0.032302
    75  H    0.017876
    76  H    0.008870
    77  H    0.026669
    78  H    0.052363
    79  H    0.007561
    80  H    0.042157
    81  H    0.042243
    82  H    0.058107
    83  H    0.050119
    84  H    0.026675
    85  H    0.006114
    86  H    0.012928
    87  H    0.013678
    88  H    0.025982
    89  H    0.017131
    90  H    0.017380
    91  H   -0.000871
    92  H    0.013210
    93  H    0.018154
    94  H    0.015604
    95  H    0.019428
    96  H    0.028271
    97  H    0.026418
    98  H    0.049973
    99  H    0.040096
   100  H    0.033674
   101  H    0.032174
   102  H    0.015986
   103  H    0.026317
   104  H   -0.012362
   105  H    0.019632
   106  H    0.010868
   107  H    0.017642
   108  H    0.001166
   109  H    0.011926
   110  H    0.003588
   111  H   -0.000442
   112  H   -0.009476
   113  H   -0.012620
   114  H   -0.006804
   115  H    0.001159
   116  H    0.017461
   117  H   -0.012541
   118  H   -0.019676
   119  H    0.011686
   120  H   -0.016332
   121  H   -0.008610
   122  H   -0.006256
   123  H   -0.006853
   124  H    0.004202
   125  H   -0.004554
   126  H   -0.001245
   127  H    0.005420
   128  H   -0.005798
   129  H   -0.015469
   130  H    0.001026
   131  H   -0.008281
   132  H    0.005942
   133  H   -0.016815
   134  H    0.012759
   135  H    0.016031
   136  H    0.004770
   137  H    0.015918
   138  H    0.011244
   139  H    0.002798
   140  H   -0.010283
 Sum of Mulliken charges =  -0.00000

 Dipole moment (field-independent basis, Debye):
    X=              0.0449    Y=             -5.3123    Z=              0.2709  Tot=              5.3194
 Quadrupole moment (field-independent basis, Debye-Ang):
   XX=           -365.3825   YY=           -434.5457   ZZ=           -402.5090
   XY=             38.2044   XZ=            -12.0236   YZ=            -23.9339

 Normal termination of Gaussian 16 at Sat Apr 30 05:15:09 2022.
