 Gaussian 16, Revision A.03,
 Gaussian 16:  ES64L-G16RevA.03 25-Dec-2016

 ---------------------------------
 #p PBE1PBE/Def2SVP td=(nstates=5)
 ---------------------------------

 -----------------------------------------------------
 step_601_chromophore_23 TDDFT with PBE1PBE functional
 -----------------------------------------------------
 Symbolic Z-matrix:
 Charge =  0 Multiplicity = 1

                         Standard orientation:
 ---------------------------------------------------------------------
 Center     Atomic      Atomic             Coordinates (Angstroms)
 Number     Number       Type             X           Y           Z
 ---------------------------------------------------------------------
      1         12           0       -4.736986   -0.331105   -0.302759
      2          6           0       -3.069711    2.794965   -0.122838
      3          6           0       -2.656111   -1.269652   -2.897285
      4          6           0       -5.878190   -3.424992   -0.022378
      5          6           0       -6.493904    0.666433    2.651707
      6          7           0       -2.892707    0.524271   -1.177672
      7          6           0       -2.437095    1.845102   -0.986770
      8          6           0       -1.229828    2.017035   -1.812986
      9          6           0       -1.611441    1.111483   -3.082716
     10          6           0       -2.472220    0.026514   -2.341338
     11          6           0       -2.317887    1.780876   -4.226776
     12          6           0        0.092577    1.601083   -1.117756
     13          6           0        1.019072    2.765556   -0.797884
     14          6           0        2.285184    2.819801   -1.594222
     15          8           0        2.407186    2.659503   -2.777224
     16          8           0        3.329474    3.226350   -0.819686
     17          7           0       -4.226830   -2.073847   -1.240669
     18          6           0       -3.408428   -2.261277   -2.317836
     19          6           0       -3.463681   -3.637433   -2.783169
     20          6           0       -4.344395   -4.341576   -1.945408
     21          6           0       -4.903993   -3.296714   -1.048060
     22          6           0       -2.679235   -4.231195   -3.886122
     23          6           0       -4.732498   -5.894597   -2.153838
     24          8           0       -4.197717   -6.620144   -2.970187
     25          6           0       -5.684710   -6.513087   -1.156134
     26          7           0       -5.949700   -1.237782    1.071715
     27          6           0       -6.332618   -2.473744    0.916740
     28          6           0       -7.501438   -2.836346    1.888448
     29          6           0       -7.621819   -1.590035    2.829485
     30          6           0       -6.626671   -0.643738    2.162177
     31          6           0       -8.766764   -3.280195    1.107392
     32          6           0       -7.141527   -1.830320    4.282812
     33          6           0       -7.954000   -1.241958    5.452394
     34          7           0       -4.932396    1.414150    0.937695
     35          6           0       -5.736322    1.727818    2.003448
     36          6           0       -5.398234    2.998527    2.511610
     37          6           0       -4.537710    3.565142    1.585574
     38          6           0       -4.133953    2.484479    0.754337
     39          6           0       -5.957244    3.565988    3.760616
     40          6           0       -3.758395    4.719698    1.294616
     41          8           0       -3.680585    5.864602    1.841211
     42          6           0       -2.673648    4.211493    0.191987
     43          6           0       -2.684213    5.092246   -1.054823
     44          8           0       -3.455062    5.042835   -2.003093
     45          8           0       -1.613639    5.915969   -1.008994
     46          6           0       -1.277839    6.746890   -2.146879
     47          6           0        4.592894    3.507617   -1.556807
     48          6           0        5.804721    2.983246   -0.773907
     49          6           0        6.417348    1.732647   -0.741616
     50          6           0        6.188334    0.553771   -1.613348
     51          6           0        7.429036    1.442478    0.370160
     52          6           0        8.885047    1.839285   -0.075452
     53          6           0        9.888776    1.451928    1.014414
     54          6           0       10.430300    0.020537    0.884444
     55          6           0       11.453484   -0.265499   -0.253480
     56          6           0       10.970553   -0.690550    2.251982
     57          6           0       10.550577   -2.110178    2.282536
     58          6           0        9.474074   -2.489945    3.361432
     59          6           0        8.105339   -1.912595    3.059370
     60          6           0        7.436857   -1.280620    4.265755
     61          6           0        7.182917   -3.029759    2.490289
     62          6           0        6.339962   -2.589022    1.268832
     63          6           0        6.996197   -3.015351   -0.102494
     64          6           0        5.963334   -3.255625   -1.161951
     65          6           0        5.437037   -4.728404   -0.838861
     66          6           0        6.677243   -3.268633   -2.520857
     67          1           0       -2.196487   -1.452395   -3.870730
     68          1           0       -6.229030   -4.457806    0.035831
     69          1           0       -7.070870    1.032556    3.503816
     70          1           0       -1.129747    3.050599   -2.142357
     71          1           0       -0.762509    0.651092   -3.587310
     72          1           0       -3.142460    1.128902   -4.515937
     73          1           0       -1.655607    1.907220   -5.081758
     74          1           0       -2.832081    2.722972   -4.033941
     75          1           0        0.641037    0.852647   -1.689632
     76          1           0       -0.199917    1.212846   -0.142049
     77          1           0        1.308473    2.522449    0.224990
     78          1           0        0.518237    3.733380   -0.836566
     79          1           0       -1.887780   -3.579541   -4.257146
     80          1           0       -3.382514   -4.511009   -4.670189
     81          1           0       -2.170525   -5.120386   -3.512756
     82          1           0       -6.730748   -6.209549   -1.174898
     83          1           0       -5.293416   -6.452108   -0.140406
     84          1           0       -5.617826   -7.569230   -1.419086
     85          1           0       -7.197393   -3.678333    2.509589
     86          1           0       -8.643865   -1.229775    2.706452
     87          1           0       -8.958501   -4.326816    1.345550
     88          1           0       -8.608281   -3.174658    0.034134
     89          1           0       -9.683973   -2.757225    1.376820
     90          1           0       -6.146967   -1.427588    4.473745
     91          1           0       -7.004766   -2.882333    4.536800
     92          1           0       -7.274300   -0.828261    6.197200
     93          1           0       -8.530286   -2.054044    5.895792
     94          1           0       -8.591006   -0.404288    5.170910
     95          1           0       -5.601958    2.943942    4.581911
     96          1           0       -7.044297    3.640645    3.736831
     97          1           0       -5.552033    4.568210    3.904703
     98          1           0       -1.691712    4.215939    0.666078
     99          1           0       -0.374139    7.291745   -1.873414
    100          1           0       -2.065841    7.467765   -2.364571
    101          1           0       -1.149477    6.232771   -3.099101
    102          1           0        4.855108    4.534810   -1.811289
    103          1           0        4.666371    3.025997   -2.531973
    104          1           0        6.292185    3.680999   -0.094460
    105          1           0        7.054792    0.267340   -2.210100
    106          1           0        5.467175    0.706246   -2.415405
    107          1           0        5.964399   -0.343529   -1.036506
    108          1           0        7.377086    0.364654    0.526721
    109          1           0        7.091824    2.024850    1.227844
    110          1           0        8.947650    2.926184   -0.122696
    111          1           0        8.986755    1.284158   -1.007749
    112          1           0        9.550644    1.546315    2.046977
    113          1           0       10.644198    2.215085    0.830552
    114          1           0        9.593352   -0.508523    0.429136
    115          1           0       11.036330   -0.932090   -1.008467
    116          1           0       12.446295   -0.555287    0.090424
    117          1           0       11.480873    0.656782   -0.834146
    118          1           0       10.347544   -0.235643    3.022564
    119          1           0       12.019497   -0.446969    2.419633
    120          1           0       11.486664   -2.653733    2.407400
    121          1           0       10.225740   -2.426380    1.291262
    122          1           0        9.843587   -2.310287    4.371599
    123          1           0        9.485640   -3.574315    3.256329
    124          1           0        8.106096   -1.061179    2.378535
    125          1           0        8.148248   -1.061415    5.062461
    126          1           0        6.705701   -1.892736    4.795353
    127          1           0        6.943754   -0.352131    3.978489
    128          1           0        6.550119   -3.468475    3.261813
    129          1           0        7.848279   -3.835299    2.179954
    130          1           0        6.236376   -1.505074    1.299007
    131          1           0        5.356109   -3.026558    1.436863
    132          1           0        7.688625   -3.851113   -0.004182
    133          1           0        7.497548   -2.092959   -0.396068
    134          1           0        5.239852   -2.447866   -1.056544
    135          1           0        5.799677   -5.399448   -1.618023
    136          1           0        4.351855   -4.620933   -0.854292
    137          1           0        5.654439   -5.061578    0.175408
    138          1           0        6.017208   -3.328308   -3.387084
    139          1           0        7.390612   -4.082617   -2.644320
    140          1           0        7.281516   -2.364097   -2.596307
 ---------------------------------------------------------------------

 SCF Done:  E(RPBE1PBE) =  -3005.35832801     A.U. after   16 cycles

 Excitation energies and oscillator strengths:

 Excited State   1:      Singlet-A      1.8430 eV  672.74 nm  f=0.3446  <S**2>=0.000
     245 -> 248        0.15959
     246 -> 247        0.69496
     246 <- 247       -0.10119
 This state for optimization and/or second-order correction.
 Total Energy, E(TD-HF/TD-DFT) =  -3005.29059987
 Copying the excited state density for this state as the 1-particle RhoCI density.

 Excited State   2:      Singlet-A      2.2802 eV  543.74 nm  f=0.0789  <S**2>=0.000
     245 -> 247        0.63554
     246 -> 248       -0.29630

 Excited State   3:      Singlet-A      2.9264 eV  423.68 nm  f=0.0014  <S**2>=0.000
     242 -> 247       -0.19706
     242 -> 249        0.11407
     243 -> 247        0.63906
     243 -> 249       -0.13964

 Excited State   4:      Singlet-A      3.1163 eV  397.86 nm  f=0.0064  <S**2>=0.000
     241 -> 247        0.12324
     242 -> 247        0.62952
     243 -> 247        0.20741
     246 -> 248       -0.16005

 Excited State   5:      Singlet-A      3.2357 eV  383.17 nm  f=0.2324  <S**2>=0.000
     240 -> 247        0.16824
     241 -> 247        0.35526
     245 -> 247        0.20025
     246 -> 248        0.51548
     246 -> 249       -0.13580

 The electronic state is 1-A.
 Alpha  occ. eigenvalues --  -46.91939 -19.25747 -19.25412 -19.21180 -19.19720
 Alpha  occ. eigenvalues --  -19.19719 -19.18669 -14.42068 -14.41744 -14.39691
 Alpha  occ. eigenvalues --  -14.38594 -10.36306 -10.35764 -10.34412 -10.32120
 Alpha  occ. eigenvalues --  -10.29557 -10.29506 -10.29213 -10.29197 -10.28904
 Alpha  occ. eigenvalues --  -10.28790 -10.28643 -10.27936 -10.26354 -10.26193
 Alpha  occ. eigenvalues --  -10.26054 -10.26044 -10.26008 -10.25979 -10.25871
 Alpha  occ. eigenvalues --  -10.25787 -10.25347 -10.25330 -10.25122 -10.24847
 Alpha  occ. eigenvalues --  -10.24818 -10.24778 -10.24578 -10.24286 -10.24261
 Alpha  occ. eigenvalues --  -10.24231 -10.24075 -10.24051 -10.23635 -10.23517
 Alpha  occ. eigenvalues --  -10.23493 -10.23413 -10.23352 -10.23301 -10.23252
 Alpha  occ. eigenvalues --  -10.23078 -10.22891 -10.22767 -10.22602 -10.22519
 Alpha  occ. eigenvalues --  -10.22320 -10.22313 -10.22261 -10.22240 -10.22201
 Alpha  occ. eigenvalues --  -10.22127 -10.22113 -10.22020 -10.21905 -10.21744
 Alpha  occ. eigenvalues --  -10.21305  -3.14171  -1.86984  -1.86558  -1.86400
 Alpha  occ. eigenvalues --   -1.11523  -1.11452  -1.06792  -1.02595  -1.02365
 Alpha  occ. eigenvalues --   -1.01216  -0.99319  -0.98495  -0.98065  -0.97156
 Alpha  occ. eigenvalues --   -0.86553  -0.84749  -0.84189  -0.83846  -0.83772
 Alpha  occ. eigenvalues --   -0.83116  -0.82708  -0.81724  -0.81641  -0.81378
 Alpha  occ. eigenvalues --   -0.80926  -0.80014  -0.78703  -0.78108  -0.77942
 Alpha  occ. eigenvalues --   -0.76834  -0.76576  -0.75782  -0.75441  -0.75151
 Alpha  occ. eigenvalues --   -0.74103  -0.72615  -0.72263  -0.71879  -0.70329
 Alpha  occ. eigenvalues --   -0.70073  -0.69578  -0.69329  -0.69172  -0.68273
 Alpha  occ. eigenvalues --   -0.67387  -0.66625  -0.65943  -0.64538  -0.63368
 Alpha  occ. eigenvalues --   -0.63060  -0.62880  -0.61735  -0.61214  -0.60275
 Alpha  occ. eigenvalues --   -0.59806  -0.59159  -0.59066  -0.58928  -0.57698
 Alpha  occ. eigenvalues --   -0.57528  -0.57491  -0.57046  -0.56853  -0.54916
 Alpha  occ. eigenvalues --   -0.54501  -0.53832  -0.53763  -0.53567  -0.52648
 Alpha  occ. eigenvalues --   -0.52198  -0.51870  -0.51335  -0.50333  -0.49960
 Alpha  occ. eigenvalues --   -0.49816  -0.49449  -0.49095  -0.48902  -0.48627
 Alpha  occ. eigenvalues --   -0.48484  -0.48105  -0.47767  -0.47687  -0.47542
 Alpha  occ. eigenvalues --   -0.47188  -0.47085  -0.46804  -0.46731  -0.46699
 Alpha  occ. eigenvalues --   -0.46202  -0.45868  -0.45813  -0.45652  -0.45471
 Alpha  occ. eigenvalues --   -0.45311  -0.45080  -0.44968  -0.44684  -0.44621
 Alpha  occ. eigenvalues --   -0.44273  -0.44092  -0.44052  -0.43655  -0.43454
 Alpha  occ. eigenvalues --   -0.42897  -0.42774  -0.42577  -0.42544  -0.42319
 Alpha  occ. eigenvalues --   -0.42067  -0.41932  -0.41651  -0.41475  -0.41336
 Alpha  occ. eigenvalues --   -0.41176  -0.40966  -0.40945  -0.40648  -0.40625
 Alpha  occ. eigenvalues --   -0.39948  -0.39749  -0.39678  -0.39625  -0.39444
 Alpha  occ. eigenvalues --   -0.39408  -0.39342  -0.39198  -0.38841  -0.38650
 Alpha  occ. eigenvalues --   -0.38504  -0.38465  -0.38180  -0.38049  -0.37973
 Alpha  occ. eigenvalues --   -0.37906  -0.37546  -0.37394  -0.37138  -0.36996
 Alpha  occ. eigenvalues --   -0.36799  -0.36670  -0.36520  -0.36235  -0.35707
 Alpha  occ. eigenvalues --   -0.35454  -0.35332  -0.35136  -0.35038  -0.34817
 Alpha  occ. eigenvalues --   -0.34794  -0.34766  -0.34446  -0.34133  -0.33999
 Alpha  occ. eigenvalues --   -0.33281  -0.33216  -0.33062  -0.32909  -0.32272
 Alpha  occ. eigenvalues --   -0.31994  -0.31686  -0.31540  -0.31421  -0.31243
 Alpha  occ. eigenvalues --   -0.30787  -0.30404  -0.29984  -0.29515  -0.29252
 Alpha  occ. eigenvalues --   -0.28910  -0.28812  -0.28616  -0.27437  -0.27041
 Alpha  occ. eigenvalues --   -0.26261  -0.25426  -0.24812  -0.24448  -0.21392
 Alpha  occ. eigenvalues --   -0.18788
 Alpha virt. eigenvalues --   -0.11126  -0.05608  -0.04403  -0.02638  -0.00807
 Alpha virt. eigenvalues --   -0.00685   0.00365   0.00966   0.01454   0.02817
 Alpha virt. eigenvalues --    0.03557   0.03764   0.04473   0.05417   0.06087

 Mulliken charges:
               1
     1  Mg   0.981819
     2  C    0.002192
     3  C   -0.100539
     4  C   -0.074567
     5  C   -0.055262
     6  N   -0.373357
     7  C    0.081106
     8  C   -0.132691
     9  C   -0.155812
    10  C    0.083071
    11  C    0.024769
    12  C    0.082480
    13  C   -0.047198
    14  C    0.203704
    15  O   -0.252958
    16  O   -0.351467
    17  N   -0.515359
    18  C    0.219688
    19  C   -0.201990
    20  C   -0.079454
    21  C    0.149625
    22  C    0.084007
    23  C    0.093052
    24  O   -0.215014
    25  C   -0.059229
    26  N   -0.420894
    27  C    0.112244
    28  C   -0.123044
    29  C   -0.064127
    30  C    0.084505
    31  C    0.002415
    32  C   -0.033657
    33  C   -0.075283
    34  N   -0.430762
    35  C    0.109340
    36  C   -0.220915
    37  C    0.006646
    38  C    0.095288
    39  C    0.064528
    40  C    0.158475
    41  O   -0.267004
    42  C   -0.165290
    43  C    0.298627
    44  O   -0.259635
    45  O   -0.351564
    46  C    0.126501
    47  C    0.271890
    48  C   -0.163573
    49  C   -0.188492
    50  C    0.011965
    51  C   -0.055052
    52  C   -0.052443
    53  C    0.052817
    54  C   -0.280005
    55  C    0.002025
    56  C    0.014973
    57  C   -0.053612
    58  C    0.014298
    59  C   -0.229430
    60  C   -0.000296
    61  C    0.011470
    62  C   -0.056054
    63  C   -0.053681
    64  C   -0.249693
    65  C   -0.009268
    66  C   -0.000650
    67  H    0.014757
    68  H   -0.021314
    69  H    0.009034
    70  H    0.040985
    71  H    0.032954
    72  H    0.026716
    73  H    0.048735
    74  H    0.058079
    75  H    0.050224
    76  H    0.042968
    77  H    0.059643
    78  H    0.084056
    79  H    0.032476
    80  H    0.067925
    81  H    0.067848
    82  H    0.081800
    83  H    0.075729
    84  H    0.054264
    85  H    0.042350
    86  H    0.049724
    87  H    0.040618
    88  H    0.054431
    89  H    0.042879
    90  H    0.049611
    91  H    0.032507
    92  H    0.040780
    93  H    0.046801
    94  H    0.041593
    95  H    0.049711
    96  H    0.057394
    97  H    0.056711
    98  H    0.087669
    99  H    0.061965
   100  H    0.055865
   101  H    0.054136
   102  H    0.043071
   103  H    0.053591
   104  H    0.017335
   105  H    0.046956
   106  H    0.038898
   107  H    0.052763
   108  H    0.041168
   109  H    0.043894
   110  H    0.036674
   111  H    0.033702
   112  H    0.021871
   113  H    0.021059
   114  H    0.037888
   115  H    0.027727
   116  H    0.044097
   117  H    0.016150
   118  H    0.016659
   119  H    0.042480
   120  H    0.017209
   121  H    0.025427
   122  H    0.025372
   123  H    0.026302
   124  H    0.052274
   125  H    0.022163
   126  H    0.025250
   127  H    0.031777
   128  H    0.025712
   129  H    0.017278
   130  H    0.038243
   131  H    0.024629
   132  H    0.036704
   133  H    0.022621
   134  H    0.047941
   135  H    0.043252
   136  H    0.033794
   137  H    0.043457
   138  H    0.039877
   139  H    0.030182
   140  H    0.018729
 Sum of Mulliken charges =  -0.00000

 Dipole moment (field-independent basis, Debye):
    X=             -0.0646    Y=             -4.4660    Z=              0.9291  Tot=              4.5621
 Quadrupole moment (field-independent basis, Debye-Ang):
   XX=           -359.8865   YY=           -432.1963   ZZ=           -398.6122
   XY=             34.4353   XZ=            -16.1330   YZ=            -24.2696

 Normal termination of Gaussian 16 at Sat Apr 30 05:39:44 2022.
