 Gaussian 16, Revision A.03,
 Gaussian 16:  ES64L-G16RevA.03 25-Dec-2016

 --------------------------------
 #p wB97XD/Def2SVP td=(nstates=5)
 --------------------------------

 ----------------------------------------------------
 step_601_chromophore_23 TDDFT with wB97XD functional
 ----------------------------------------------------
 Symbolic Z-matrix:
 Charge =  0 Multiplicity = 1

                         Standard orientation:
 ---------------------------------------------------------------------
 Center     Atomic      Atomic             Coordinates (Angstroms)
 Number     Number       Type             X           Y           Z
 ---------------------------------------------------------------------
      1         12           0       -4.736986   -0.331105   -0.302759
      2          6           0       -3.069711    2.794965   -0.122838
      3          6           0       -2.656111   -1.269652   -2.897285
      4          6           0       -5.878190   -3.424992   -0.022378
      5          6           0       -6.493904    0.666433    2.651707
      6          7           0       -2.892707    0.524271   -1.177672
      7          6           0       -2.437095    1.845102   -0.986770
      8          6           0       -1.229828    2.017035   -1.812986
      9          6           0       -1.611441    1.111483   -3.082716
     10          6           0       -2.472220    0.026514   -2.341338
     11          6           0       -2.317887    1.780876   -4.226776
     12          6           0        0.092577    1.601083   -1.117756
     13          6           0        1.019072    2.765556   -0.797884
     14          6           0        2.285184    2.819801   -1.594222
     15          8           0        2.407186    2.659503   -2.777224
     16          8           0        3.329474    3.226350   -0.819686
     17          7           0       -4.226830   -2.073847   -1.240669
     18          6           0       -3.408428   -2.261277   -2.317836
     19          6           0       -3.463681   -3.637433   -2.783169
     20          6           0       -4.344395   -4.341576   -1.945408
     21          6           0       -4.903993   -3.296714   -1.048060
     22          6           0       -2.679235   -4.231195   -3.886122
     23          6           0       -4.732498   -5.894597   -2.153838
     24          8           0       -4.197717   -6.620144   -2.970187
     25          6           0       -5.684710   -6.513087   -1.156134
     26          7           0       -5.949700   -1.237782    1.071715
     27          6           0       -6.332618   -2.473744    0.916740
     28          6           0       -7.501438   -2.836346    1.888448
     29          6           0       -7.621819   -1.590035    2.829485
     30          6           0       -6.626671   -0.643738    2.162177
     31          6           0       -8.766764   -3.280195    1.107392
     32          6           0       -7.141527   -1.830320    4.282812
     33          6           0       -7.954000   -1.241958    5.452394
     34          7           0       -4.932396    1.414150    0.937695
     35          6           0       -5.736322    1.727818    2.003448
     36          6           0       -5.398234    2.998527    2.511610
     37          6           0       -4.537710    3.565142    1.585574
     38          6           0       -4.133953    2.484479    0.754337
     39          6           0       -5.957244    3.565988    3.760616
     40          6           0       -3.758395    4.719698    1.294616
     41          8           0       -3.680585    5.864602    1.841211
     42          6           0       -2.673648    4.211493    0.191987
     43          6           0       -2.684213    5.092246   -1.054823
     44          8           0       -3.455062    5.042835   -2.003093
     45          8           0       -1.613639    5.915969   -1.008994
     46          6           0       -1.277839    6.746890   -2.146879
     47          6           0        4.592894    3.507617   -1.556807
     48          6           0        5.804721    2.983246   -0.773907
     49          6           0        6.417348    1.732647   -0.741616
     50          6           0        6.188334    0.553771   -1.613348
     51          6           0        7.429036    1.442478    0.370160
     52          6           0        8.885047    1.839285   -0.075452
     53          6           0        9.888776    1.451928    1.014414
     54          6           0       10.430300    0.020537    0.884444
     55          6           0       11.453484   -0.265499   -0.253480
     56          6           0       10.970553   -0.690550    2.251982
     57          6           0       10.550577   -2.110178    2.282536
     58          6           0        9.474074   -2.489945    3.361432
     59          6           0        8.105339   -1.912595    3.059370
     60          6           0        7.436857   -1.280620    4.265755
     61          6           0        7.182917   -3.029759    2.490289
     62          6           0        6.339962   -2.589022    1.268832
     63          6           0        6.996197   -3.015351   -0.102494
     64          6           0        5.963334   -3.255625   -1.161951
     65          6           0        5.437037   -4.728404   -0.838861
     66          6           0        6.677243   -3.268633   -2.520857
     67          1           0       -2.196487   -1.452395   -3.870730
     68          1           0       -6.229030   -4.457806    0.035831
     69          1           0       -7.070870    1.032556    3.503816
     70          1           0       -1.129747    3.050599   -2.142357
     71          1           0       -0.762509    0.651092   -3.587310
     72          1           0       -3.142460    1.128902   -4.515937
     73          1           0       -1.655607    1.907220   -5.081758
     74          1           0       -2.832081    2.722972   -4.033941
     75          1           0        0.641037    0.852647   -1.689632
     76          1           0       -0.199917    1.212846   -0.142049
     77          1           0        1.308473    2.522449    0.224990
     78          1           0        0.518237    3.733380   -0.836566
     79          1           0       -1.887780   -3.579541   -4.257146
     80          1           0       -3.382514   -4.511009   -4.670189
     81          1           0       -2.170525   -5.120386   -3.512756
     82          1           0       -6.730748   -6.209549   -1.174898
     83          1           0       -5.293416   -6.452108   -0.140406
     84          1           0       -5.617826   -7.569230   -1.419086
     85          1           0       -7.197393   -3.678333    2.509589
     86          1           0       -8.643865   -1.229775    2.706452
     87          1           0       -8.958501   -4.326816    1.345550
     88          1           0       -8.608281   -3.174658    0.034134
     89          1           0       -9.683973   -2.757225    1.376820
     90          1           0       -6.146967   -1.427588    4.473745
     91          1           0       -7.004766   -2.882333    4.536800
     92          1           0       -7.274300   -0.828261    6.197200
     93          1           0       -8.530286   -2.054044    5.895792
     94          1           0       -8.591006   -0.404288    5.170910
     95          1           0       -5.601958    2.943942    4.581911
     96          1           0       -7.044297    3.640645    3.736831
     97          1           0       -5.552033    4.568210    3.904703
     98          1           0       -1.691712    4.215939    0.666078
     99          1           0       -0.374139    7.291745   -1.873414
    100          1           0       -2.065841    7.467765   -2.364571
    101          1           0       -1.149477    6.232771   -3.099101
    102          1           0        4.855108    4.534810   -1.811289
    103          1           0        4.666371    3.025997   -2.531973
    104          1           0        6.292185    3.680999   -0.094460
    105          1           0        7.054792    0.267340   -2.210100
    106          1           0        5.467175    0.706246   -2.415405
    107          1           0        5.964399   -0.343529   -1.036506
    108          1           0        7.377086    0.364654    0.526721
    109          1           0        7.091824    2.024850    1.227844
    110          1           0        8.947650    2.926184   -0.122696
    111          1           0        8.986755    1.284158   -1.007749
    112          1           0        9.550644    1.546315    2.046977
    113          1           0       10.644198    2.215085    0.830552
    114          1           0        9.593352   -0.508523    0.429136
    115          1           0       11.036330   -0.932090   -1.008467
    116          1           0       12.446295   -0.555287    0.090424
    117          1           0       11.480873    0.656782   -0.834146
    118          1           0       10.347544   -0.235643    3.022564
    119          1           0       12.019497   -0.446969    2.419633
    120          1           0       11.486664   -2.653733    2.407400
    121          1           0       10.225740   -2.426380    1.291262
    122          1           0        9.843587   -2.310287    4.371599
    123          1           0        9.485640   -3.574315    3.256329
    124          1           0        8.106096   -1.061179    2.378535
    125          1           0        8.148248   -1.061415    5.062461
    126          1           0        6.705701   -1.892736    4.795353
    127          1           0        6.943754   -0.352131    3.978489
    128          1           0        6.550119   -3.468475    3.261813
    129          1           0        7.848279   -3.835299    2.179954
    130          1           0        6.236376   -1.505074    1.299007
    131          1           0        5.356109   -3.026558    1.436863
    132          1           0        7.688625   -3.851113   -0.004182
    133          1           0        7.497548   -2.092959   -0.396068
    134          1           0        5.239852   -2.447866   -1.056544
    135          1           0        5.799677   -5.399448   -1.618023
    136          1           0        4.351855   -4.620933   -0.854292
    137          1           0        5.654439   -5.061578    0.175408
    138          1           0        6.017208   -3.328308   -3.387084
    139          1           0        7.390612   -4.082617   -2.644320
    140          1           0        7.281516   -2.364097   -2.596307
 ---------------------------------------------------------------------

 SCF Done:  E(RwB97XD) =  -3007.87633278     A.U. after   17 cycles

 Excitation energies and oscillator strengths:

 Excited State   1:      Singlet-A      1.8007 eV  688.52 nm  f=0.3571  <S**2>=0.000
     245 -> 248        0.15257
     246 -> 247        0.68774
 This state for optimization and/or second-order correction.
 Total Energy, E(TD-HF/TD-DFT) =  -3007.81015736
 Copying the excited state density for this state as the 1-particle RhoCI density.

 Excited State   2:      Singlet-A      2.2793 eV  543.95 nm  f=0.0758  <S**2>=0.000
     245 -> 247        0.61627
     246 -> 248       -0.32114

 Excited State   3:      Singlet-A      3.4577 eV  358.58 nm  f=0.3769  <S**2>=0.000
     240 -> 247        0.27013
     241 -> 247        0.32652
     242 -> 247        0.13603
     245 -> 247        0.21072
     246 -> 248        0.48791

 Excited State   4:      Singlet-A      3.5279 eV  351.44 nm  f=0.0286  <S**2>=0.000
     240 -> 247        0.13052
     241 -> 247        0.24650
     242 -> 249        0.19640
     242 -> 250        0.16991
     244 -> 247        0.49505
     244 -> 249       -0.18077
     246 -> 248       -0.15564

 Excited State   5:      Singlet-A      3.5863 eV  345.71 nm  f=0.2027  <S**2>=0.000
     240 -> 247        0.17063
     241 -> 247        0.18982
     242 -> 247        0.40954
     242 -> 249       -0.24241
     242 -> 250       -0.17101
     245 -> 247       -0.19582
     246 -> 248       -0.29146

 The electronic state is 1-A.
 Alpha  occ. eigenvalues --  -46.94939 -19.30169 -19.29956 -19.26426 -19.24354
 Alpha  occ. eigenvalues --  -19.24264 -19.22913 -14.47155 -14.46918 -14.44940
 Alpha  occ. eigenvalues --  -14.43215 -10.42978 -10.42506 -10.41669 -10.38542
 Alpha  occ. eigenvalues --  -10.36702 -10.36327 -10.36041 -10.35699 -10.35311
 Alpha  occ. eigenvalues --  -10.35087 -10.34602 -10.34528 -10.33628 -10.33004
 Alpha  occ. eigenvalues --  -10.32223 -10.32207 -10.32154 -10.31901 -10.31749
 Alpha  occ. eigenvalues --  -10.31700 -10.31689 -10.31678 -10.31487 -10.31410
 Alpha  occ. eigenvalues --  -10.31310 -10.31103 -10.30940 -10.30920 -10.30572
 Alpha  occ. eigenvalues --  -10.30554 -10.30397 -10.30238 -10.29940 -10.29890
 Alpha  occ. eigenvalues --  -10.29869 -10.29853 -10.29725 -10.29708 -10.29555
 Alpha  occ. eigenvalues --  -10.29348 -10.29187 -10.29038 -10.28982 -10.28724
 Alpha  occ. eigenvalues --  -10.28691 -10.28674 -10.28625 -10.28580 -10.28570
 Alpha  occ. eigenvalues --  -10.28556 -10.28385 -10.28283 -10.28166 -10.27869
 Alpha  occ. eigenvalues --  -10.27737  -3.21020  -1.94584  -1.94157  -1.93997
 Alpha  occ. eigenvalues --   -1.18862  -1.18690  -1.14693  -1.09902  -1.09574
 Alpha  occ. eigenvalues --   -1.08222  -1.06789  -1.06014  -1.05309  -1.04623
 Alpha  occ. eigenvalues --   -0.93875  -0.92428  -0.91851  -0.91480  -0.91345
 Alpha  occ. eigenvalues --   -0.90794  -0.90572  -0.89799  -0.89363  -0.88985
 Alpha  occ. eigenvalues --   -0.88139  -0.87663  -0.86387  -0.85871  -0.85441
 Alpha  occ. eigenvalues --   -0.84706  -0.84249  -0.83391  -0.83055  -0.82748
 Alpha  occ. eigenvalues --   -0.81759  -0.80185  -0.80062  -0.79539  -0.77889
 Alpha  occ. eigenvalues --   -0.77649  -0.77308  -0.76948  -0.76858  -0.75954
 Alpha  occ. eigenvalues --   -0.74938  -0.74059  -0.73532  -0.72149  -0.70907
 Alpha  occ. eigenvalues --   -0.70609  -0.70437  -0.69480  -0.68861  -0.67763
 Alpha  occ. eigenvalues --   -0.67217  -0.66825  -0.66690  -0.66342  -0.65247
 Alpha  occ. eigenvalues --   -0.65208  -0.65063  -0.64465  -0.64336  -0.62638
 Alpha  occ. eigenvalues --   -0.61827  -0.61381  -0.61282  -0.60987  -0.59840
 Alpha  occ. eigenvalues --   -0.59610  -0.59202  -0.58975  -0.57738  -0.57287
 Alpha  occ. eigenvalues --   -0.57190  -0.56871  -0.56458  -0.56384  -0.55949
 Alpha  occ. eigenvalues --   -0.55835  -0.55441  -0.55360  -0.55192  -0.55096
 Alpha  occ. eigenvalues --   -0.54765  -0.54437  -0.54208  -0.54060  -0.53998
 Alpha  occ. eigenvalues --   -0.53578  -0.53318  -0.53198  -0.53001  -0.52910
 Alpha  occ. eigenvalues --   -0.52781  -0.52676  -0.52279  -0.51982  -0.51721
 Alpha  occ. eigenvalues --   -0.51540  -0.51343  -0.51254  -0.50984  -0.50765
 Alpha  occ. eigenvalues --   -0.50203  -0.50001  -0.49965  -0.49839  -0.49530
 Alpha  occ. eigenvalues --   -0.49383  -0.49185  -0.48926  -0.48816  -0.48490
 Alpha  occ. eigenvalues --   -0.48454  -0.48249  -0.48179  -0.47873  -0.47788
 Alpha  occ. eigenvalues --   -0.47165  -0.46969  -0.46915  -0.46773  -0.46664
 Alpha  occ. eigenvalues --   -0.46574  -0.46416  -0.46284  -0.46200  -0.45931
 Alpha  occ. eigenvalues --   -0.45737  -0.45584  -0.45380  -0.45277  -0.45110
 Alpha  occ. eigenvalues --   -0.44820  -0.44655  -0.44421  -0.44230  -0.43963
 Alpha  occ. eigenvalues --   -0.43837  -0.43619  -0.43546  -0.43202  -0.42808
 Alpha  occ. eigenvalues --   -0.42478  -0.42448  -0.42204  -0.42121  -0.41872
 Alpha  occ. eigenvalues --   -0.41777  -0.41679  -0.41551  -0.41147  -0.41026
 Alpha  occ. eigenvalues --   -0.40308  -0.40219  -0.40117  -0.39773  -0.39295
 Alpha  occ. eigenvalues --   -0.39066  -0.38717  -0.38459  -0.38351  -0.38244
 Alpha  occ. eigenvalues --   -0.37726  -0.37363  -0.36908  -0.36318  -0.36076
 Alpha  occ. eigenvalues --   -0.35956  -0.35711  -0.35340  -0.34981  -0.33943
 Alpha  occ. eigenvalues --   -0.33001  -0.31885  -0.31110  -0.30987  -0.26643
 Alpha  occ. eigenvalues --   -0.23110
 Alpha virt. eigenvalues --   -0.06760  -0.00075   0.01905   0.03839   0.05080
 Alpha virt. eigenvalues --    0.05929   0.07087   0.07936   0.08329   0.09398
 Alpha virt. eigenvalues --    0.09966   0.10130   0.11259   0.11922   0.12826

 Mulliken charges:
               1
     1  Mg   0.971808
     2  C    0.005273
     3  C   -0.130102
     4  C   -0.095694
     5  C   -0.067253
     6  N   -0.342885
     7  C    0.038068
     8  C   -0.096935
     9  C   -0.128877
    10  C    0.076481
    11  C    0.029069
    12  C    0.087151
    13  C   -0.028665
    14  C    0.191560
    15  O   -0.250996
    16  O   -0.350924
    17  N   -0.488261
    18  C    0.224665
    19  C   -0.186752
    20  C   -0.082643
    21  C    0.157679
    22  C    0.093239
    23  C    0.092252
    24  O   -0.208075
    25  C   -0.048362
    26  N   -0.387080
    27  C    0.111121
    28  C   -0.105463
    29  C   -0.036727
    30  C    0.075469
    31  C    0.013923
    32  C   -0.019804
    33  C   -0.060656
    34  N   -0.392179
    35  C    0.085698
    36  C   -0.214859
    37  C    0.003944
    38  C    0.078763
    39  C    0.073498
    40  C    0.140475
    41  O   -0.262042
    42  C   -0.124694
    43  C    0.272432
    44  O   -0.253764
    45  O   -0.348649
    46  C    0.140880
    47  C    0.289572
    48  C   -0.174087
    49  C   -0.177962
    50  C    0.041063
    51  C   -0.013383
    52  C   -0.029175
    53  C    0.065633
    54  C   -0.237082
    55  C    0.009513
    56  C    0.034140
    57  C   -0.036402
    58  C    0.034169
    59  C   -0.186466
    60  C    0.009126
    61  C    0.027108
    62  C   -0.035343
    63  C   -0.019860
    64  C   -0.219574
    65  C    0.001178
    66  C    0.013137
    67  H    0.011419
    68  H   -0.034458
    69  H    0.001796
    70  H    0.021983
    71  H    0.025560
    72  H    0.018137
    73  H    0.045296
    74  H    0.056246
    75  H    0.042171
    76  H    0.035137
    77  H    0.055006
    78  H    0.076738
    79  H    0.030509
    80  H    0.066710
    81  H    0.065992
    82  H    0.079627
    83  H    0.071978
    84  H    0.053756
    85  H    0.032403
    86  H    0.039143
    87  H    0.035396
    88  H    0.046428
    89  H    0.039571
    90  H    0.040669
    91  H    0.023226
    92  H    0.035550
    93  H    0.040401
    94  H    0.035323
    95  H    0.041702
    96  H    0.050240
    97  H    0.051541
    98  H    0.079892
    99  H    0.058715
   100  H    0.051750
   101  H    0.049325
   102  H    0.039531
   103  H    0.046616
   104  H    0.013323
   105  H    0.039456
   106  H    0.034194
   107  H    0.029928
   108  H    0.008932
   109  H    0.036328
   110  H    0.029376
   111  H    0.020707
   112  H    0.013320
   113  H    0.013073
   114  H    0.009488
   115  H    0.023031
   116  H    0.039051
   117  H    0.008403
   118  H    0.000851
   119  H    0.036720
   120  H    0.010761
   121  H    0.012046
   122  H    0.018090
   123  H    0.017456
   124  H    0.020354
   125  H    0.015691
   126  H    0.019147
   127  H    0.027219
   128  H    0.018250
   129  H    0.003100
   130  H    0.024798
   131  H    0.016554
   132  H    0.026581
   133  H   -0.001678
   134  H    0.038448
   135  H    0.038026
   136  H    0.027393
   137  H    0.035816
   138  H    0.034859
   139  H    0.023455
   140  H    0.010011
 Sum of Mulliken charges =  -0.00000

 Dipole moment (field-independent basis, Debye):
    X=              0.0576    Y=             -5.6379    Z=              0.1268  Tot=              5.6396
 Quadrupole moment (field-independent basis, Debye-Ang):
   XX=           -361.1535   YY=           -430.4264   ZZ=           -398.3235
   XY=             40.0350   XZ=            -12.0355   YZ=            -23.7379

 Normal termination of Gaussian 16 at Sat Apr 30 06:06:05 2022.
