 Gaussian 16, Revision A.03,
 Gaussian 16:  ES64L-G16RevA.03 25-Dec-2016

 --------------------
 #p ZINDO=(nstates=5)
 --------------------

 -----------------------------
 step_601_chromophore_23 ZINDO
 -----------------------------
 Symbolic Z-matrix:
 Charge =  0 Multiplicity = 1

                         Standard orientation:
 ---------------------------------------------------------------------
 Center     Atomic      Atomic             Coordinates (Angstroms)
 Number     Number       Type             X           Y           Z
 ---------------------------------------------------------------------
      1         12           0       -4.736986   -0.331105   -0.302759
      2          6           0       -3.069711    2.794965   -0.122838
      3          6           0       -2.656111   -1.269652   -2.897285
      4          6           0       -5.878190   -3.424992   -0.022378
      5          6           0       -6.493904    0.666433    2.651707
      6          7           0       -2.892707    0.524271   -1.177672
      7          6           0       -2.437095    1.845102   -0.986770
      8          6           0       -1.229828    2.017035   -1.812986
      9          6           0       -1.611441    1.111483   -3.082716
     10          6           0       -2.472220    0.026514   -2.341338
     11          6           0       -2.317887    1.780876   -4.226776
     12          6           0        0.092577    1.601083   -1.117756
     13          6           0        1.019072    2.765556   -0.797884
     14          6           0        2.285184    2.819801   -1.594222
     15          8           0        2.407186    2.659503   -2.777224
     16          8           0        3.329474    3.226350   -0.819686
     17          7           0       -4.226830   -2.073847   -1.240669
     18          6           0       -3.408428   -2.261277   -2.317836
     19          6           0       -3.463681   -3.637433   -2.783169
     20          6           0       -4.344395   -4.341576   -1.945408
     21          6           0       -4.903993   -3.296714   -1.048060
     22          6           0       -2.679235   -4.231195   -3.886122
     23          6           0       -4.732498   -5.894597   -2.153838
     24          8           0       -4.197717   -6.620144   -2.970187
     25          6           0       -5.684710   -6.513087   -1.156134
     26          7           0       -5.949700   -1.237782    1.071715
     27          6           0       -6.332618   -2.473744    0.916740
     28          6           0       -7.501438   -2.836346    1.888448
     29          6           0       -7.621819   -1.590035    2.829485
     30          6           0       -6.626671   -0.643738    2.162177
     31          6           0       -8.766764   -3.280195    1.107392
     32          6           0       -7.141527   -1.830320    4.282812
     33          6           0       -7.954000   -1.241958    5.452394
     34          7           0       -4.932396    1.414150    0.937695
     35          6           0       -5.736322    1.727818    2.003448
     36          6           0       -5.398234    2.998527    2.511610
     37          6           0       -4.537710    3.565142    1.585574
     38          6           0       -4.133953    2.484479    0.754337
     39          6           0       -5.957244    3.565988    3.760616
     40          6           0       -3.758395    4.719698    1.294616
     41          8           0       -3.680585    5.864602    1.841211
     42          6           0       -2.673648    4.211493    0.191987
     43          6           0       -2.684213    5.092246   -1.054823
     44          8           0       -3.455062    5.042835   -2.003093
     45          8           0       -1.613639    5.915969   -1.008994
     46          6           0       -1.277839    6.746890   -2.146879
     47          6           0        4.592894    3.507617   -1.556807
     48          6           0        5.804721    2.983246   -0.773907
     49          6           0        6.417348    1.732647   -0.741616
     50          6           0        6.188334    0.553771   -1.613348
     51          6           0        7.429036    1.442478    0.370160
     52          6           0        8.885047    1.839285   -0.075452
     53          6           0        9.888776    1.451928    1.014414
     54          6           0       10.430300    0.020537    0.884444
     55          6           0       11.453484   -0.265499   -0.253480
     56          6           0       10.970553   -0.690550    2.251982
     57          6           0       10.550577   -2.110178    2.282536
     58          6           0        9.474074   -2.489945    3.361432
     59          6           0        8.105339   -1.912595    3.059370
     60          6           0        7.436857   -1.280620    4.265755
     61          6           0        7.182917   -3.029759    2.490289
     62          6           0        6.339962   -2.589022    1.268832
     63          6           0        6.996197   -3.015351   -0.102494
     64          6           0        5.963334   -3.255625   -1.161951
     65          6           0        5.437037   -4.728404   -0.838861
     66          6           0        6.677243   -3.268633   -2.520857
     67          1           0       -2.196487   -1.452395   -3.870730
     68          1           0       -6.229030   -4.457806    0.035831
     69          1           0       -7.070870    1.032556    3.503816
     70          1           0       -1.129747    3.050599   -2.142357
     71          1           0       -0.762509    0.651092   -3.587310
     72          1           0       -3.142460    1.128902   -4.515937
     73          1           0       -1.655607    1.907220   -5.081758
     74          1           0       -2.832081    2.722972   -4.033941
     75          1           0        0.641037    0.852647   -1.689632
     76          1           0       -0.199917    1.212846   -0.142049
     77          1           0        1.308473    2.522449    0.224990
     78          1           0        0.518237    3.733380   -0.836566
     79          1           0       -1.887780   -3.579541   -4.257146
     80          1           0       -3.382514   -4.511009   -4.670189
     81          1           0       -2.170525   -5.120386   -3.512756
     82          1           0       -6.730748   -6.209549   -1.174898
     83          1           0       -5.293416   -6.452108   -0.140406
     84          1           0       -5.617826   -7.569230   -1.419086
     85          1           0       -7.197393   -3.678333    2.509589
     86          1           0       -8.643865   -1.229775    2.706452
     87          1           0       -8.958501   -4.326816    1.345550
     88          1           0       -8.608281   -3.174658    0.034134
     89          1           0       -9.683973   -2.757225    1.376820
     90          1           0       -6.146967   -1.427588    4.473745
     91          1           0       -7.004766   -2.882333    4.536800
     92          1           0       -7.274300   -0.828261    6.197200
     93          1           0       -8.530286   -2.054044    5.895792
     94          1           0       -8.591006   -0.404288    5.170910
     95          1           0       -5.601958    2.943942    4.581911
     96          1           0       -7.044297    3.640645    3.736831
     97          1           0       -5.552033    4.568210    3.904703
     98          1           0       -1.691712    4.215939    0.666078
     99          1           0       -0.374139    7.291745   -1.873414
    100          1           0       -2.065841    7.467765   -2.364571
    101          1           0       -1.149477    6.232771   -3.099101
    102          1           0        4.855108    4.534810   -1.811289
    103          1           0        4.666371    3.025997   -2.531973
    104          1           0        6.292185    3.680999   -0.094460
    105          1           0        7.054792    0.267340   -2.210100
    106          1           0        5.467175    0.706246   -2.415405
    107          1           0        5.964399   -0.343529   -1.036506
    108          1           0        7.377086    0.364654    0.526721
    109          1           0        7.091824    2.024850    1.227844
    110          1           0        8.947650    2.926184   -0.122696
    111          1           0        8.986755    1.284158   -1.007749
    112          1           0        9.550644    1.546315    2.046977
    113          1           0       10.644198    2.215085    0.830552
    114          1           0        9.593352   -0.508523    0.429136
    115          1           0       11.036330   -0.932090   -1.008467
    116          1           0       12.446295   -0.555287    0.090424
    117          1           0       11.480873    0.656782   -0.834146
    118          1           0       10.347544   -0.235643    3.022564
    119          1           0       12.019497   -0.446969    2.419633
    120          1           0       11.486664   -2.653733    2.407400
    121          1           0       10.225740   -2.426380    1.291262
    122          1           0        9.843587   -2.310287    4.371599
    123          1           0        9.485640   -3.574315    3.256329
    124          1           0        8.106096   -1.061179    2.378535
    125          1           0        8.148248   -1.061415    5.062461
    126          1           0        6.705701   -1.892736    4.795353
    127          1           0        6.943754   -0.352131    3.978489
    128          1           0        6.550119   -3.468475    3.261813
    129          1           0        7.848279   -3.835299    2.179954
    130          1           0        6.236376   -1.505074    1.299007
    131          1           0        5.356109   -3.026558    1.436863
    132          1           0        7.688625   -3.851113   -0.004182
    133          1           0        7.497548   -2.092959   -0.396068
    134          1           0        5.239852   -2.447866   -1.056544
    135          1           0        5.799677   -5.399448   -1.618023
    136          1           0        4.351855   -4.620933   -0.854292
    137          1           0        5.654439   -5.061578    0.175408
    138          1           0        6.017208   -3.328308   -3.387084
    139          1           0        7.390612   -4.082617   -2.644320
    140          1           0        7.281516   -2.364097   -2.596307
 ---------------------------------------------------------------------

 SCF Done:  E(RZINDO/S) =  -474.353784412     A.U. after   17 cycles

 Excitation energies and oscillator strengths:

 Excited State   1:      Singlet-A      1.4386 eV  861.83 nm  f=0.4724  <S**2>=0.000
     175 ->178         0.12135
     176 ->177         0.68091
 This state for optimization and/or second-order correction.
 Total Energy, E(CIS/TDA) =  -474.300916032
 Copying the excited state density for this state as the 1-particle RhoCI density.

 Excited State   2:      Singlet-A      2.0013 eV  619.53 nm  f=0.0142  <S**2>=0.000
     175 ->177         0.49957
     176 ->178        -0.45664

 Excited State   3:      Singlet-A      2.8869 eV  429.47 nm  f=0.4305  <S**2>=0.000
     175 ->177        -0.30143
     176 ->178        -0.30956
     176 ->179         0.39700
     176 ->180         0.31861

 Excited State   4:      Singlet-A      3.0360 eV  408.38 nm  f=0.7342  <S**2>=0.000
     171 ->179        -0.13325
     171 ->180        -0.17926
     171 ->185        -0.10018
     175 ->177         0.29417
     176 ->178         0.36235
     176 ->179         0.26240
     176 ->180         0.21927

 Excited State   5:      Singlet-A      3.0676 eV  404.18 nm  f=0.1189  <S**2>=0.000
     170 ->180         0.14306
     171 ->177         0.17314
     171 ->178        -0.11838
     171 ->179         0.24237
     171 ->180         0.28621
     171 ->185         0.16373
     171 ->188         0.15244
     174 ->177         0.11951
     174 ->179         0.10932
     174 ->180         0.11302
     175 ->177         0.10325
     176 ->178         0.14704
     176 ->179         0.22019
     176 ->180         0.16463

 The electronic state is 1-A.
 Alpha  occ. eigenvalues --   -1.84036  -1.81870  -1.81432  -1.74078  -1.71794
 Alpha  occ. eigenvalues --   -1.71583  -1.68117  -1.60933  -1.60636  -1.57516
 Alpha  occ. eigenvalues --   -1.55342  -1.50986  -1.48631  -1.47348  -1.45998
 Alpha  occ. eigenvalues --   -1.43347  -1.42565  -1.40232  -1.39157  -1.38817
 Alpha  occ. eigenvalues --   -1.36587  -1.34961  -1.33085  -1.31131  -1.29276
 Alpha  occ. eigenvalues --   -1.27056  -1.26633  -1.23499  -1.22879  -1.18172
 Alpha  occ. eigenvalues --   -1.17187  -1.16220  -1.15219  -1.14748  -1.13794
 Alpha  occ. eigenvalues --   -1.13375  -1.10343  -1.10162  -1.04661  -1.03463
 Alpha  occ. eigenvalues --   -1.02664  -1.00977  -0.99981  -0.97361  -0.96635
 Alpha  occ. eigenvalues --   -0.95357  -0.94944  -0.94045  -0.93378  -0.91215
 Alpha  occ. eigenvalues --   -0.91076  -0.90687  -0.88939  -0.88220  -0.86685
 Alpha  occ. eigenvalues --   -0.86245  -0.83889  -0.83568  -0.82334  -0.80111
 Alpha  occ. eigenvalues --   -0.79897  -0.79553  -0.77767  -0.77409  -0.77199
 Alpha  occ. eigenvalues --   -0.76533  -0.75490  -0.74662  -0.74188  -0.73740
 Alpha  occ. eigenvalues --   -0.73581  -0.72779  -0.72673  -0.71655  -0.70915
 Alpha  occ. eigenvalues --   -0.70568  -0.70138  -0.69732  -0.69356  -0.68160
 Alpha  occ. eigenvalues --   -0.67630  -0.67129  -0.66652  -0.66250  -0.66215
 Alpha  occ. eigenvalues --   -0.65916  -0.64757  -0.64724  -0.64520  -0.63865
 Alpha  occ. eigenvalues --   -0.63685  -0.63154  -0.62738  -0.62608  -0.62328
 Alpha  occ. eigenvalues --   -0.61228  -0.61077  -0.60772  -0.60221  -0.59803
 Alpha  occ. eigenvalues --   -0.59547  -0.59011  -0.58883  -0.58301  -0.57952
 Alpha  occ. eigenvalues --   -0.57829  -0.57466  -0.57367  -0.57202  -0.56281
 Alpha  occ. eigenvalues --   -0.56105  -0.55730  -0.55388  -0.55068  -0.54276
 Alpha  occ. eigenvalues --   -0.54185  -0.54065  -0.53768  -0.53209  -0.52822
 Alpha  occ. eigenvalues --   -0.52696  -0.52559  -0.52227  -0.51916  -0.51382
 Alpha  occ. eigenvalues --   -0.51141  -0.50961  -0.50797  -0.50107  -0.49815
 Alpha  occ. eigenvalues --   -0.49711  -0.49289  -0.49238  -0.49215  -0.49050
 Alpha  occ. eigenvalues --   -0.48767  -0.48373  -0.48316  -0.48217  -0.48007
 Alpha  occ. eigenvalues --   -0.47836  -0.47354  -0.47086  -0.46813  -0.46556
 Alpha  occ. eigenvalues --   -0.46464  -0.46160  -0.45976  -0.45688  -0.45487
 Alpha  occ. eigenvalues --   -0.45084  -0.44533  -0.44129  -0.43711  -0.43648
 Alpha  occ. eigenvalues --   -0.43508  -0.43028  -0.42663  -0.42353  -0.42080
 Alpha  occ. eigenvalues --   -0.41985  -0.41544  -0.41080  -0.39157  -0.38859
 Alpha  occ. eigenvalues --   -0.38208  -0.37756  -0.36855  -0.35321  -0.34657
 Alpha  occ. eigenvalues --   -0.34067  -0.32460  -0.31210  -0.31160  -0.27506
 Alpha  occ. eigenvalues --   -0.22137
 Alpha virt. eigenvalues --   -0.08012  -0.02351  -0.00979   0.00911   0.01296
 Alpha virt. eigenvalues --    0.02184   0.02539   0.03137   0.03923   0.04154
 Alpha virt. eigenvalues --    0.04942   0.06052   0.07067   0.07481   0.07621

 Mulliken charges:
               1
     1  Mg   0.434062
     2  C   -0.032953
     3  C   -0.088775
     4  C   -0.115424
     5  C   -0.060959
     6  N   -0.279931
     7  C    0.087372
     8  C    0.012501
     9  C    0.002180
    10  C    0.198035
    11  C   -0.044206
    12  C   -0.018393
    13  C    0.005143
    14  C    0.475965
    15  O   -0.519208
    16  O   -0.261044
    17  N   -0.355683
    18  C    0.166777
    19  C    0.067664
    20  C   -0.058792
    21  C    0.152278
    22  C   -0.032398
    23  C    0.334821
    24  O   -0.489197
    25  C   -0.032191
    26  N   -0.252788
    27  C    0.202786
    28  C   -0.003612
    29  C    0.004910
    30  C    0.057916
    31  C   -0.049577
    32  C   -0.028218
    33  C   -0.058204
    34  N   -0.315175
    35  C    0.029563
    36  C    0.018803
    37  C   -0.063040
    38  C    0.098967
    39  C   -0.040936
    40  C    0.318488
    41  O   -0.554243
    42  C    0.057349
    43  C    0.488594
    44  O   -0.528212
    45  O   -0.264953
    46  C    0.078210
    47  C    0.102743
    48  C   -0.113802
    49  C    0.000059
    50  C   -0.041272
    51  C   -0.033024
    52  C   -0.032044
    53  C   -0.031975
    54  C   -0.032408
    55  C   -0.064492
    56  C   -0.035466
    57  C   -0.031493
    58  C   -0.026589
    59  C   -0.003104
    60  C   -0.058244
    61  C   -0.040653
    62  C   -0.044888
    63  C   -0.032358
    64  C   -0.015434
    65  C   -0.062201
    66  C   -0.055032
    67  H    0.036155
    68  H    0.024681
    69  H    0.032289
    70  H    0.025417
    71  H    0.028325
    72  H    0.012731
    73  H    0.023629
    74  H    0.034526
    75  H    0.034978
    76  H    0.022919
    77  H    0.030105
    78  H    0.058073
    79  H    0.021705
    80  H    0.047131
    81  H    0.043237
    82  H    0.045604
    83  H    0.039416
    84  H    0.031371
    85  H    0.026634
    86  H    0.037983
    87  H    0.016116
    88  H    0.024879
    89  H    0.025336
    90  H    0.022621
    91  H    0.012313
    92  H    0.018422
    93  H    0.018531
    94  H    0.021881
    95  H    0.025966
    96  H    0.029273
    97  H    0.025849
    98  H    0.053500
    99  H    0.031633
   100  H    0.042772
   101  H    0.041919
   102  H    0.046380
   103  H    0.048895
   104  H    0.022841
   105  H    0.024763
   106  H    0.019029
   107  H    0.031150
   108  H    0.027208
   109  H    0.026213
   110  H    0.025908
   111  H    0.035533
   112  H    0.024079
   113  H    0.011273
   114  H    0.018212
   115  H    0.017950
   116  H    0.027982
   117  H    0.009419
   118  H    0.010433
   119  H    0.032716
   120  H    0.006355
   121  H    0.018497
   122  H    0.023447
   123  H    0.011315
   124  H    0.028767
   125  H    0.010988
   126  H    0.015685
   127  H    0.014315
   128  H    0.019255
   129  H    0.012694
   130  H    0.020996
   131  H    0.016239
   132  H    0.030773
   133  H    0.006376
   134  H    0.034859
   135  H    0.029408
   136  H    0.010027
   137  H    0.025891
   138  H    0.014620
   139  H    0.018972
   140  H    0.010020
 Sum of Mulliken charges =  -0.00000

 Dipole moment (field-independent basis, Debye):
    X=              0.7104    Y=             -9.2613    Z=             -0.9437  Tot=              9.3363
 N-N= 4.499402590542D+03 E-N= 0.000000000000D+00  KE=-9.672776649037D+03
 Leave Link  601 at Sat Apr 30 06:18:29 2022, MaxMem=  6710886400 cpu:               0.8 elap:               0.0
 (Enter /sw/apps/gaussian-16.0/g16/l9999.exe)
 1\1\GINC-BP1-COMPUTE139\SP\RZINDO CIS\STO-3G\C55H74Mg1N4O6\OF15641\30-
 Apr-2022\0\\#p ZINDO=(nstates=5)\\step_601_chromophore_23 ZINDO\\0,1\M
 g,0,-9.484,40.656,43.624\C,0,-8.047,37.494,42.902\C,0,-6.94,42.193,41.
 861\C,0,-11.173,43.498,43.777\C,0,-12.237,38.855,45.034\N,0,-7.884,39.
 921,42.283\C,0,-7.448,38.583,42.192\C,0,-6.316,38.553,41.25\C,0,-5.621
 ,39.962,41.581\C,0,-6.913,40.774,41.954\C,0,-4.556,39.98,42.64\C,0,-6.
 719,38.384,39.762\C,0,-6.324,37.043,39.16\C,0,-5.245,37.094,38.124\O,0

 Normal termination of Gaussian 16 at Sat Apr 30 06:18:29 2022.
