 Gaussian 16, Revision A.03,
 Gaussian 16:  ES64L-G16RevA.03 25-Dec-2016

 ------------------------------
 #p blyp/Def2SVP td=(nstates=5)
 ------------------------------

 ---------------------------------------------------
 step_1501_chromophore_24 TDDFT with blyp functional
 ---------------------------------------------------
 Symbolic Z-matrix:
 Charge =  0 Multiplicity = 1

                         Standard orientation:
 ---------------------------------------------------------------------
 Center     Atomic      Atomic             Coordinates (Angstroms)
 Number     Number       Type             X           Y           Z
 ---------------------------------------------------------------------
      1         12           0       -4.853596    1.249484   -0.344309
      2          6           0       -4.491732   -2.206906    0.179445
      3          6           0       -1.316697    1.450459   -0.294643
      4          6           0       -5.074264    4.551862    0.048174
      5          6           0       -8.257008    0.958551    0.183401
      6          7           0       -3.067549   -0.250117   -0.081122
      7          6           0       -3.186109   -1.636179    0.054498
      8          6           0       -1.831923   -2.370708   -0.249392
      9          6           0       -0.852830   -1.169027   -0.179995
     10          6           0       -1.744156    0.126564   -0.163848
     11          6           0        0.183180   -1.153556    0.975473
     12          6           0       -1.963439   -3.090755   -1.637914
     13          6           0       -1.206747   -4.415055   -1.815165
     14          6           0       -0.162487   -4.813508   -0.831467
     15          8           0       -0.325664   -5.196812    0.333394
     16          8           0        1.121509   -4.700969   -1.362430
     17          7           0       -3.457679    2.712730   -0.308428
     18          6           0       -2.091415    2.592323   -0.295555
     19          6           0       -1.472238    3.954821   -0.199881
     20          6           0       -2.549292    4.854083   -0.227017
     21          6           0       -3.742913    4.025763   -0.132976
     22          6           0       -0.032232    4.281459   -0.214181
     23          6           0       -2.512444    6.376361   -0.271405
     24          8           0       -3.577449    7.011522   -0.451959
     25          6           0       -1.253550    7.255570   -0.088747
     26          7           0       -6.582319    2.642375   -0.338045
     27          6           0       -6.390340    3.921376    0.091168
     28          6           0       -7.772833    4.612197    0.432759
     29          6           0       -8.774571    3.400318    0.296607
     30          6           0       -7.756428    2.232278    0.057861
     31          6           0       -7.895133    5.259978    1.911215
     32          6           0       -9.798589    3.654810   -0.840671
     33          6           0       -9.466918    3.154138   -2.244397
     34          7           0       -6.205188   -0.260377    0.158552
     35          6           0       -7.585342   -0.289478    0.283081
     36          6           0       -8.032854   -1.605797    0.537041
     37          6           0       -6.885183   -2.371046    0.471617
     38          6           0       -5.753648   -1.474035    0.296300
     39          6           0       -9.444592   -2.134964    0.790835
     40          6           0       -6.444524   -3.703839    0.521062
     41          8           0       -7.051318   -4.750588    0.728294
     42          6           0       -4.864943   -3.679155    0.335505
     43          6           0       -4.205710   -4.447877    1.426086
     44          8           0       -4.069297   -4.109676    2.570031
     45          8           0       -3.977125   -5.706446    0.953133
     46          6           0       -3.529884   -6.679983    1.886351
     47          6           0        2.307420   -5.077332   -0.612272
     48          6           0        3.307988   -4.010294   -0.512423
     49          6           0        4.593789   -4.066386   -0.029185
     50          6           0        5.215455   -5.380889    0.443460
     51          6           0        5.450847   -2.844465    0.020933
     52          6           0        6.429724   -2.591558   -1.116161
     53          6           0        6.208376   -1.182380   -1.800739
     54          6           0        7.470338   -0.254740   -1.738274
     55          6           0        7.246406    0.864046   -2.721631
     56          6           0        7.973175    0.211899   -0.423006
     57          6           0        9.407854   -0.356130   -0.149946
     58          6           0       10.424363   -0.047083   -1.256087
     59          6           0       11.640882    0.776402   -0.768615
     60          6           0       12.534390    1.085787   -2.086368
     61          6           0       12.507523    0.083703    0.294403
     62          6           0       12.652185    0.766938    1.658367
     63          6           0       13.675427    1.918075    1.481396
     64          6           0       13.298905    3.252542    2.304406
     65          6           0       12.662915    4.308207    1.425155
     66          6           0       14.511246    3.915902    2.904583
     67          1           0       -0.229144    1.498303   -0.377622
     68          1           0       -5.095687    5.613392    0.300819
     69          1           0       -9.326911    0.878342    0.391335
     70          1           0       -1.696267   -3.134461    0.515528
     71          1           0       -0.252065   -1.050666   -1.081551
     72          1           0       -0.285606   -1.466240    1.908609
     73          1           0        0.717690   -0.212576    1.106980
     74          1           0        0.960554   -1.861062    0.684213
     75          1           0       -1.662135   -2.347948   -2.376667
     76          1           0       -3.014252   -3.321273   -1.813658
     77          1           0       -0.655709   -4.325844   -2.751035
     78          1           0       -1.923275   -5.216377   -1.993179
     79          1           0        0.318150    4.844607   -1.079219
     80          1           0        0.573130    3.375287   -0.251824
     81          1           0        0.239128    4.897959    0.642683
     82          1           0       -0.752292    7.213793   -1.055340
     83          1           0       -0.672688    6.934452    0.775556
     84          1           0       -1.424132    8.320849    0.067551
     85          1           0       -8.080589    5.360406   -0.297682
     86          1           0       -9.291247    3.119221    1.214782
     87          1           0       -7.064273    5.088517    2.595705
     88          1           0       -8.821055    4.883615    2.345153
     89          1           0       -7.945256    6.328854    1.701347
     90          1           0      -10.199535    4.664912   -0.928066
     91          1           0      -10.629064    3.027612   -0.516901
     92          1           0       -8.464425    3.292133   -2.650217
     93          1           0      -10.101736    3.791059   -2.860896
     94          1           0       -9.808438    2.134498   -2.420545
     95          1           0       -9.993630   -1.431949    1.418058
     96          1           0       -9.559627   -3.121088    1.241960
     97          1           0      -10.053565   -2.244848   -0.106349
     98          1           0       -4.757465   -4.065190   -0.677753
     99          1           0       -4.157643   -7.539192    1.649737
    100          1           0       -3.632477   -6.319479    2.909671
    101          1           0       -2.473740   -6.934474    1.790288
    102          1           0        2.676946   -5.940199   -1.167273
    103          1           0        2.076781   -5.396639    0.403880
    104          1           0        2.984685   -3.012253   -0.810323
    105          1           0        4.541359   -6.167241    0.104746
    106          1           0        5.416061   -5.411453    1.514184
    107          1           0        6.179721   -5.496140   -0.051502
    108          1           0        6.082743   -3.010496    0.894310
    109          1           0        4.816611   -2.004558    0.303061
    110          1           0        6.268303   -3.260695   -1.961501
    111          1           0        7.459505   -2.689485   -0.772671
    112          1           0        5.310741   -0.712452   -1.398399
    113          1           0        5.973459   -1.396974   -2.843703
    114          1           0        8.263695   -0.835253   -2.209476
    115          1           0        7.732790    0.666798   -3.677567
    116          1           0        7.795866    1.739165   -2.373643
    117          1           0        6.220590    1.184892   -2.903128
    118          1           0        7.369319   -0.317481    0.314392
    119          1           0        7.832667    1.266767   -0.188374
    120          1           0        9.442650   -1.422786    0.072497
    121          1           0        9.717793    0.062422    0.808036
    122          1           0        9.948679    0.614210   -1.979935
    123          1           0       10.667288   -0.996036   -1.734707
    124          1           0       11.315079    1.757628   -0.425257
    125          1           0       13.552029    0.698980   -2.045701
    126          1           0       12.469428    2.172019   -2.149595
    127          1           0       12.087834    0.620124   -2.965583
    128          1           0       13.515944   -0.139881   -0.054144
    129          1           0       12.050379   -0.862098    0.583048
    130          1           0       12.998368    0.041703    2.394853
    131          1           0       11.646243    1.026625    1.987105
    132          1           0       13.793015    2.100657    0.413523
    133          1           0       14.638450    1.482961    1.750772
    134          1           0       12.639275    2.882620    3.088584
    135          1           0       12.366258    5.254895    1.876613
    136          1           0       11.815374    3.824386    0.940613
    137          1           0       13.372663    4.495309    0.618860
    138          1           0       15.192986    4.243905    2.120477
    139          1           0       14.970202    3.309030    3.685592
    140          1           0       14.324030    4.909837    3.311878
 ---------------------------------------------------------------------

 SCF Done:  E(RB-LYP) =  -3007.38962932     A.U. after   21 cycles

 Excitation energies and oscillator strengths:

 Excited State   1:      Singlet-A      1.7414 eV  711.97 nm  f=0.2184  <S**2>=0.000
     243 -> 247       -0.16631
     245 -> 247        0.15566
     245 -> 248       -0.14545
     245 -> 249        0.10363
     246 -> 247        0.64826
     246 <- 247       -0.13581
 This state for optimization and/or second-order correction.
 Total Energy, E(TD-HF/TD-DFT) =  -3007.32563347
 Copying the excited state density for this state as the 1-particle RhoCI density.

 Excited State   2:      Singlet-A      1.8697 eV  663.13 nm  f=0.0305  <S**2>=0.000
     244 -> 247        0.67026
     245 -> 247        0.15758
     246 -> 247       -0.14052

 Excited State   3:      Singlet-A      1.8964 eV  653.77 nm  f=0.0892  <S**2>=0.000
     243 -> 247       -0.40749
     244 -> 247       -0.18965
     245 -> 247        0.48348
     246 -> 247       -0.18412
     246 -> 248        0.14408

 Excited State   4:      Singlet-A      2.0468 eV  605.74 nm  f=0.0448  <S**2>=0.000
     243 -> 247        0.54631
     245 -> 247        0.38626
     246 -> 248        0.15592
     246 -> 249       -0.11219

 Excited State   5:      Singlet-A      2.3551 eV  526.44 nm  f=0.0001  <S**2>=0.000
     242 -> 247        0.70709

 The electronic state is 1-A.
 Alpha  occ. eigenvalues --  -46.28347 -18.82331 -18.80467 -18.77491 -18.75644
 Alpha  occ. eigenvalues --  -18.75539 -18.74952 -14.03066 -14.02984 -14.01936
 Alpha  occ. eigenvalues --  -14.00951 -10.05088 -10.02609 -10.00609  -9.98570
 Alpha  occ. eigenvalues --   -9.98280  -9.97052  -9.96734  -9.96385  -9.96355
 Alpha  occ. eigenvalues --   -9.96206  -9.95452  -9.95419  -9.95082  -9.94615
 Alpha  occ. eigenvalues --   -9.94513  -9.94461  -9.94248  -9.94191  -9.94126
 Alpha  occ. eigenvalues --   -9.94080  -9.93876  -9.93273  -9.93215  -9.93121
 Alpha  occ. eigenvalues --   -9.92987  -9.92978  -9.92937  -9.92810  -9.92737
 Alpha  occ. eigenvalues --   -9.92627  -9.92487  -9.92443  -9.92354  -9.92296
 Alpha  occ. eigenvalues --   -9.92141  -9.92132  -9.92126  -9.92069  -9.92016
 Alpha  occ. eigenvalues --   -9.91967  -9.91929  -9.91776  -9.91630  -9.91524
 Alpha  occ. eigenvalues --   -9.91423  -9.91411  -9.91404  -9.91246  -9.91212
 Alpha  occ. eigenvalues --   -9.91017  -9.90932  -9.90809  -9.90676  -9.90424
 Alpha  occ. eigenvalues --   -9.90250  -2.92834  -1.73264  -1.72729  -1.72539
 Alpha  occ. eigenvalues --   -0.97624  -0.97456  -0.90352  -0.90259  -0.89762
 Alpha  occ. eigenvalues --   -0.89658  -0.87203  -0.86477  -0.86100  -0.84074
 Alpha  occ. eigenvalues --   -0.74392  -0.74299  -0.73610  -0.73031  -0.72507
 Alpha  occ. eigenvalues --   -0.71809  -0.71420  -0.71001  -0.70767  -0.70037
 Alpha  occ. eigenvalues --   -0.69958  -0.69667  -0.68539  -0.67476  -0.66845
 Alpha  occ. eigenvalues --   -0.66523  -0.65686  -0.65194  -0.64828  -0.64552
 Alpha  occ. eigenvalues --   -0.64042  -0.63041  -0.62412  -0.61218  -0.60801
 Alpha  occ. eigenvalues --   -0.60163  -0.59887  -0.59837  -0.59407  -0.59137
 Alpha  occ. eigenvalues --   -0.58726  -0.57785  -0.56396  -0.55939  -0.54459
 Alpha  occ. eigenvalues --   -0.54108  -0.53848  -0.53042  -0.52847  -0.52183
 Alpha  occ. eigenvalues --   -0.51204  -0.50991  -0.50143  -0.50109  -0.49841
 Alpha  occ. eigenvalues --   -0.49788  -0.49742  -0.48244  -0.47714  -0.47080
 Alpha  occ. eigenvalues --   -0.46882  -0.45771  -0.45578  -0.45150  -0.44661
 Alpha  occ. eigenvalues --   -0.43803  -0.43469  -0.42835  -0.42695  -0.42330
 Alpha  occ. eigenvalues --   -0.42072  -0.41680  -0.41578  -0.41193  -0.40980
 Alpha  occ. eigenvalues --   -0.40673  -0.40452  -0.40344  -0.40203  -0.39986
 Alpha  occ. eigenvalues --   -0.39956  -0.39846  -0.39769  -0.39536  -0.39148
 Alpha  occ. eigenvalues --   -0.39100  -0.39012  -0.38817  -0.38204  -0.38137
 Alpha  occ. eigenvalues --   -0.37945  -0.37798  -0.37632  -0.37561  -0.37020
 Alpha  occ. eigenvalues --   -0.36928  -0.36704  -0.36582  -0.36271  -0.36113
 Alpha  occ. eigenvalues --   -0.36059  -0.36033  -0.35806  -0.35685  -0.35480
 Alpha  occ. eigenvalues --   -0.35332  -0.35158  -0.35140  -0.34956  -0.34731
 Alpha  occ. eigenvalues --   -0.34695  -0.34489  -0.34368  -0.34076  -0.33781
 Alpha  occ. eigenvalues --   -0.33576  -0.33388  -0.33249  -0.33153  -0.32924
 Alpha  occ. eigenvalues --   -0.32807  -0.32664  -0.32458  -0.32382  -0.32326
 Alpha  occ. eigenvalues --   -0.32276  -0.32188  -0.31856  -0.31784  -0.31575
 Alpha  occ. eigenvalues --   -0.31398  -0.31097  -0.30901  -0.30839  -0.30637
 Alpha  occ. eigenvalues --   -0.30468  -0.30428  -0.30327  -0.30091  -0.29987
 Alpha  occ. eigenvalues --   -0.29630  -0.29334  -0.29260  -0.29101  -0.28962
 Alpha  occ. eigenvalues --   -0.28701  -0.28500  -0.28047  -0.27906  -0.27846
 Alpha  occ. eigenvalues --   -0.27699  -0.27371  -0.26943  -0.26837  -0.26541
 Alpha  occ. eigenvalues --   -0.26277  -0.25884  -0.25790  -0.25719  -0.25381
 Alpha  occ. eigenvalues --   -0.24883  -0.24767  -0.23965  -0.23672  -0.23550
 Alpha  occ. eigenvalues --   -0.23254  -0.22368  -0.21831  -0.21422  -0.21233
 Alpha  occ. eigenvalues --   -0.20706  -0.19998  -0.18476  -0.18092  -0.16815
 Alpha  occ. eigenvalues --   -0.15526
 Alpha virt. eigenvalues --   -0.11343  -0.06964  -0.06040  -0.04465  -0.04302
 Alpha virt. eigenvalues --   -0.02813  -0.02499  -0.01237  -0.01145   0.00034
 Alpha virt. eigenvalues --    0.01208   0.01839   0.02171   0.02284   0.02638

 Mulliken charges:
               1
     1  Mg   0.704312
     2  C   -0.043125
     3  C   -0.107788
     4  C   -0.026229
     5  C   -0.070405
     6  N   -0.214097
     7  C   -0.074686
     8  C    0.033594
     9  C    0.026558
    10  C   -0.006153
    11  C    0.113520
    12  C    0.113279
    13  C    0.173326
    14  C    0.076968
    15  O   -0.199676
    16  O   -0.283811
    17  N   -0.286376
    18  C    0.203901
    19  C   -0.151872
    20  C    0.060859
    21  C    0.084948
    22  C    0.177501
    23  C   -0.064239
    24  O   -0.199133
    25  C    0.138522
    26  N   -0.182801
    27  C    0.026102
    28  C    0.019786
    29  C    0.005965
    30  C    0.034248
    31  C    0.102061
    32  C    0.068956
    33  C    0.085015
    34  N   -0.244369
    35  C    0.072997
    36  C   -0.126887
    37  C    0.100004
    38  C    0.067072
    39  C    0.155968
    40  C   -0.092481
    41  O   -0.135565
    42  C    0.069433
    43  C    0.133884
    44  O   -0.158561
    45  O   -0.257084
    46  C    0.199332
    47  C    0.319962
    48  C   -0.103219
    49  C   -0.191757
    50  C    0.144690
    51  C    0.152763
    52  C    0.099867
    53  C    0.071670
    54  C   -0.081497
    55  C    0.119350
    56  C    0.163542
    57  C    0.035124
    58  C    0.087203
    59  C   -0.070440
    60  C    0.089965
    61  C    0.101704
    62  C    0.050990
    63  C    0.076833
    64  C   -0.032990
    65  C    0.096031
    66  C    0.111913
    67  H   -0.065974
    68  H   -0.040365
    69  H   -0.072757
    70  H    0.002556
    71  H   -0.032763
    72  H    0.009708
    73  H   -0.014735
    74  H   -0.010061
    75  H   -0.020907
    76  H   -0.018176
    77  H   -0.016076
    78  H    0.013406
    79  H   -0.001289
    80  H   -0.024628
    81  H    0.000842
    82  H    0.008930
    83  H    0.006737
    84  H   -0.009284
    85  H   -0.009620
    86  H   -0.027028
    87  H    0.002222
    88  H   -0.003874
    89  H   -0.000024
    90  H   -0.012714
    91  H   -0.031440
    92  H   -0.000711
    93  H   -0.023068
    94  H   -0.008858
    95  H   -0.012913
    96  H    0.004419
    97  H   -0.006381
    98  H   -0.005712
    99  H    0.012930
   100  H    0.013336
   101  H    0.011997
   102  H    0.008161
   103  H    0.015241
   104  H   -0.037787
   105  H   -0.018126
   106  H    0.008803
   107  H   -0.009253
   108  H   -0.047340
   109  H   -0.021885
   110  H   -0.026423
   111  H   -0.023541
   112  H   -0.035951
   113  H   -0.036540
   114  H   -0.031799
   115  H   -0.025239
   116  H   -0.035594
   117  H   -0.018613
   118  H   -0.052810
   119  H   -0.026455
   120  H   -0.026530
   121  H   -0.039730
   122  H   -0.029251
   123  H   -0.020679
   124  H   -0.029783
   125  H   -0.010996
   126  H   -0.008465
   127  H   -0.020127
   128  H   -0.033713
   129  H   -0.049816
   130  H   -0.034115
   131  H   -0.024487
   132  H   -0.031614
   133  H   -0.035519
   134  H   -0.033283
   135  H   -0.006255
   136  H   -0.026362
   137  H   -0.020444
   138  H   -0.033453
   139  H   -0.015144
   140  H   -0.037289
 Sum of Mulliken charges =  -0.00000

 Dipole moment (field-independent basis, Debye):
    X=              5.2065    Y=              1.9234    Z=             -3.1485  Tot=              6.3812
 Quadrupole moment (field-independent basis, Debye-Ang):
   XX=           -391.1948   YY=           -422.6336   ZZ=           -410.2104
   XY=            -30.0231   XZ=             11.3693   YZ=             16.2366

 Normal termination of Gaussian 16 at Thu Apr 28 08:14:55 2022.
