 Gaussian 16, Revision A.03,
 Gaussian 16:  ES64L-G16RevA.03 25-Dec-2016

 -----------------------------------
 #p cam-b3lyp/Def2SVP td=(nstates=5)
 -----------------------------------

 --------------------------------------------------------
 step_1501_chromophore_24 TDDFT with cam-b3lyp functional
 --------------------------------------------------------
 Symbolic Z-matrix:
 Charge =  0 Multiplicity = 1

                         Standard orientation:
 ---------------------------------------------------------------------
 Center     Atomic      Atomic             Coordinates (Angstroms)
 Number     Number       Type             X           Y           Z
 ---------------------------------------------------------------------
      1         12           0       -4.853596    1.249484   -0.344309
      2          6           0       -4.491732   -2.206906    0.179445
      3          6           0       -1.316697    1.450459   -0.294643
      4          6           0       -5.074264    4.551862    0.048174
      5          6           0       -8.257008    0.958551    0.183401
      6          7           0       -3.067549   -0.250117   -0.081122
      7          6           0       -3.186109   -1.636179    0.054498
      8          6           0       -1.831923   -2.370708   -0.249392
      9          6           0       -0.852830   -1.169027   -0.179995
     10          6           0       -1.744156    0.126564   -0.163848
     11          6           0        0.183180   -1.153556    0.975473
     12          6           0       -1.963439   -3.090755   -1.637914
     13          6           0       -1.206747   -4.415055   -1.815165
     14          6           0       -0.162487   -4.813508   -0.831467
     15          8           0       -0.325664   -5.196812    0.333394
     16          8           0        1.121509   -4.700969   -1.362430
     17          7           0       -3.457679    2.712730   -0.308428
     18          6           0       -2.091415    2.592323   -0.295555
     19          6           0       -1.472238    3.954821   -0.199881
     20          6           0       -2.549292    4.854083   -0.227017
     21          6           0       -3.742913    4.025763   -0.132976
     22          6           0       -0.032232    4.281459   -0.214181
     23          6           0       -2.512444    6.376361   -0.271405
     24          8           0       -3.577449    7.011522   -0.451959
     25          6           0       -1.253550    7.255570   -0.088747
     26          7           0       -6.582319    2.642375   -0.338045
     27          6           0       -6.390340    3.921376    0.091168
     28          6           0       -7.772833    4.612197    0.432759
     29          6           0       -8.774571    3.400318    0.296607
     30          6           0       -7.756428    2.232278    0.057861
     31          6           0       -7.895133    5.259978    1.911215
     32          6           0       -9.798589    3.654810   -0.840671
     33          6           0       -9.466918    3.154138   -2.244397
     34          7           0       -6.205188   -0.260377    0.158552
     35          6           0       -7.585342   -0.289478    0.283081
     36          6           0       -8.032854   -1.605797    0.537041
     37          6           0       -6.885183   -2.371046    0.471617
     38          6           0       -5.753648   -1.474035    0.296300
     39          6           0       -9.444592   -2.134964    0.790835
     40          6           0       -6.444524   -3.703839    0.521062
     41          8           0       -7.051318   -4.750588    0.728294
     42          6           0       -4.864943   -3.679155    0.335505
     43          6           0       -4.205710   -4.447877    1.426086
     44          8           0       -4.069297   -4.109676    2.570031
     45          8           0       -3.977125   -5.706446    0.953133
     46          6           0       -3.529884   -6.679983    1.886351
     47          6           0        2.307420   -5.077332   -0.612272
     48          6           0        3.307988   -4.010294   -0.512423
     49          6           0        4.593789   -4.066386   -0.029185
     50          6           0        5.215455   -5.380889    0.443460
     51          6           0        5.450847   -2.844465    0.020933
     52          6           0        6.429724   -2.591558   -1.116161
     53          6           0        6.208376   -1.182380   -1.800739
     54          6           0        7.470338   -0.254740   -1.738274
     55          6           0        7.246406    0.864046   -2.721631
     56          6           0        7.973175    0.211899   -0.423006
     57          6           0        9.407854   -0.356130   -0.149946
     58          6           0       10.424363   -0.047083   -1.256087
     59          6           0       11.640882    0.776402   -0.768615
     60          6           0       12.534390    1.085787   -2.086368
     61          6           0       12.507523    0.083703    0.294403
     62          6           0       12.652185    0.766938    1.658367
     63          6           0       13.675427    1.918075    1.481396
     64          6           0       13.298905    3.252542    2.304406
     65          6           0       12.662915    4.308207    1.425155
     66          6           0       14.511246    3.915902    2.904583
     67          1           0       -0.229144    1.498303   -0.377622
     68          1           0       -5.095687    5.613392    0.300819
     69          1           0       -9.326911    0.878342    0.391335
     70          1           0       -1.696267   -3.134461    0.515528
     71          1           0       -0.252065   -1.050666   -1.081551
     72          1           0       -0.285606   -1.466240    1.908609
     73          1           0        0.717690   -0.212576    1.106980
     74          1           0        0.960554   -1.861062    0.684213
     75          1           0       -1.662135   -2.347948   -2.376667
     76          1           0       -3.014252   -3.321273   -1.813658
     77          1           0       -0.655709   -4.325844   -2.751035
     78          1           0       -1.923275   -5.216377   -1.993179
     79          1           0        0.318150    4.844607   -1.079219
     80          1           0        0.573130    3.375287   -0.251824
     81          1           0        0.239128    4.897959    0.642683
     82          1           0       -0.752292    7.213793   -1.055340
     83          1           0       -0.672688    6.934452    0.775556
     84          1           0       -1.424132    8.320849    0.067551
     85          1           0       -8.080589    5.360406   -0.297682
     86          1           0       -9.291247    3.119221    1.214782
     87          1           0       -7.064273    5.088517    2.595705
     88          1           0       -8.821055    4.883615    2.345153
     89          1           0       -7.945256    6.328854    1.701347
     90          1           0      -10.199535    4.664912   -0.928066
     91          1           0      -10.629064    3.027612   -0.516901
     92          1           0       -8.464425    3.292133   -2.650217
     93          1           0      -10.101736    3.791059   -2.860896
     94          1           0       -9.808438    2.134498   -2.420545
     95          1           0       -9.993630   -1.431949    1.418058
     96          1           0       -9.559627   -3.121088    1.241960
     97          1           0      -10.053565   -2.244848   -0.106349
     98          1           0       -4.757465   -4.065190   -0.677753
     99          1           0       -4.157643   -7.539192    1.649737
    100          1           0       -3.632477   -6.319479    2.909671
    101          1           0       -2.473740   -6.934474    1.790288
    102          1           0        2.676946   -5.940199   -1.167273
    103          1           0        2.076781   -5.396639    0.403880
    104          1           0        2.984685   -3.012253   -0.810323
    105          1           0        4.541359   -6.167241    0.104746
    106          1           0        5.416061   -5.411453    1.514184
    107          1           0        6.179721   -5.496140   -0.051502
    108          1           0        6.082743   -3.010496    0.894310
    109          1           0        4.816611   -2.004558    0.303061
    110          1           0        6.268303   -3.260695   -1.961501
    111          1           0        7.459505   -2.689485   -0.772671
    112          1           0        5.310741   -0.712452   -1.398399
    113          1           0        5.973459   -1.396974   -2.843703
    114          1           0        8.263695   -0.835253   -2.209476
    115          1           0        7.732790    0.666798   -3.677567
    116          1           0        7.795866    1.739165   -2.373643
    117          1           0        6.220590    1.184892   -2.903128
    118          1           0        7.369319   -0.317481    0.314392
    119          1           0        7.832667    1.266767   -0.188374
    120          1           0        9.442650   -1.422786    0.072497
    121          1           0        9.717793    0.062422    0.808036
    122          1           0        9.948679    0.614210   -1.979935
    123          1           0       10.667288   -0.996036   -1.734707
    124          1           0       11.315079    1.757628   -0.425257
    125          1           0       13.552029    0.698980   -2.045701
    126          1           0       12.469428    2.172019   -2.149595
    127          1           0       12.087834    0.620124   -2.965583
    128          1           0       13.515944   -0.139881   -0.054144
    129          1           0       12.050379   -0.862098    0.583048
    130          1           0       12.998368    0.041703    2.394853
    131          1           0       11.646243    1.026625    1.987105
    132          1           0       13.793015    2.100657    0.413523
    133          1           0       14.638450    1.482961    1.750772
    134          1           0       12.639275    2.882620    3.088584
    135          1           0       12.366258    5.254895    1.876613
    136          1           0       11.815374    3.824386    0.940613
    137          1           0       13.372663    4.495309    0.618860
    138          1           0       15.192986    4.243905    2.120477
    139          1           0       14.970202    3.309030    3.685592
    140          1           0       14.324030    4.909837    3.311878
 ---------------------------------------------------------------------

 SCF Done:  E(RCAM-B3LYP) =  -3007.18143029     A.U. after   19 cycles

 Excitation energies and oscillator strengths:

 Excited State   1:      Singlet-A      1.6833 eV  736.58 nm  f=0.3574  <S**2>=0.000
     245 -> 248        0.17275
     246 -> 247        0.68594
     245 <- 248        0.10382
 This state for optimization and/or second-order correction.
 Total Energy, E(TD-HF/TD-DFT) =  -3007.11957191
 Copying the excited state density for this state as the 1-particle RhoCI density.

 Excited State   2:      Singlet-A      2.1893 eV  566.33 nm  f=0.1273  <S**2>=0.000
     245 -> 247        0.64356
     246 -> 248       -0.27704

 Excited State   3:      Singlet-A      3.4001 eV  364.65 nm  f=0.0108  <S**2>=0.000
     242 -> 247        0.20538
     242 -> 249        0.13113
     242 -> 251       -0.15087
     244 -> 247        0.56205
     244 -> 249        0.17435
     244 -> 251       -0.17338
     246 -> 248        0.11356

 Excited State   4:      Singlet-A      3.4395 eV  360.47 nm  f=0.2703  <S**2>=0.000
     239 -> 247        0.18916
     239 -> 249       -0.14311
     240 -> 247       -0.21143
     240 -> 248        0.12632
     240 -> 249        0.18977
     241 -> 247        0.17505
     241 -> 249       -0.10968
     245 -> 247        0.18642
     246 -> 248        0.45986

 Excited State   5:      Singlet-A      3.5527 eV  348.98 nm  f=0.2964  <S**2>=0.000
     239 -> 247       -0.10382
     239 -> 249        0.12610
     240 -> 247        0.26216
     240 -> 248       -0.11675
     240 -> 249       -0.19966
     241 -> 247       -0.12366
     242 -> 247       -0.26267
     245 -> 247        0.18280
     246 -> 248        0.41380

 The electronic state is 1-A.
 Alpha  occ. eigenvalues --  -46.89949 -19.25124 -19.23228 -19.20443 -19.19089
 Alpha  occ. eigenvalues --  -19.18652 -19.17701 -14.42001 -14.41765 -14.40598
 Alpha  occ. eigenvalues --  -14.39190 -10.40437 -10.37941 -10.36188 -10.33590
 Alpha  occ. eigenvalues --  -10.32219 -10.31859 -10.31186 -10.31158 -10.31118
 Alpha  occ. eigenvalues --  -10.31024 -10.29458 -10.29230 -10.29177 -10.28811
 Alpha  occ. eigenvalues --  -10.28641 -10.28595 -10.28588 -10.28144 -10.28135
 Alpha  occ. eigenvalues --  -10.28115 -10.28059 -10.27756 -10.27493 -10.27386
 Alpha  occ. eigenvalues --  -10.27136 -10.27119 -10.27102 -10.27060 -10.26840
 Alpha  occ. eigenvalues --  -10.26548 -10.26305 -10.26302 -10.26115 -10.26102
 Alpha  occ. eigenvalues --  -10.26034 -10.25876 -10.25868 -10.25774 -10.25717
 Alpha  occ. eigenvalues --  -10.25677 -10.25534 -10.25533 -10.25331 -10.25244
 Alpha  occ. eigenvalues --  -10.25153 -10.25117 -10.25090 -10.24895 -10.24720
 Alpha  occ. eigenvalues --  -10.24701 -10.24552 -10.24486 -10.24295 -10.24025
 Alpha  occ. eigenvalues --  -10.23869  -3.18335  -1.93242  -1.92782  -1.92638
 Alpha  occ. eigenvalues --   -1.16000  -1.15930  -1.08916  -1.08360  -1.07556
 Alpha  occ. eigenvalues --   -1.07527  -1.04827  -1.04061  -1.03789  -1.01704
 Alpha  occ. eigenvalues --   -0.91335  -0.91225  -0.90444  -0.89808  -0.89270
 Alpha  occ. eigenvalues --   -0.88734  -0.88094  -0.87611  -0.87579  -0.86497
 Alpha  occ. eigenvalues --   -0.86328  -0.85985  -0.84825  -0.83630  -0.82895
 Alpha  occ. eigenvalues --   -0.82671  -0.81659  -0.81462  -0.80771  -0.80374
 Alpha  occ. eigenvalues --   -0.79822  -0.79022  -0.77957  -0.76569  -0.76189
 Alpha  occ. eigenvalues --   -0.75446  -0.75232  -0.75181  -0.74628  -0.74419
 Alpha  occ. eigenvalues --   -0.73755  -0.72772  -0.71292  -0.70770  -0.69006
 Alpha  occ. eigenvalues --   -0.68732  -0.68519  -0.67596  -0.67299  -0.66512
 Alpha  occ. eigenvalues --   -0.65390  -0.65059  -0.64166  -0.64133  -0.63798
 Alpha  occ. eigenvalues --   -0.63709  -0.63456  -0.62045  -0.61367  -0.60895
 Alpha  occ. eigenvalues --   -0.60431  -0.59282  -0.59082  -0.58365  -0.58231
 Alpha  occ. eigenvalues --   -0.57084  -0.56896  -0.56095  -0.55885  -0.55176
 Alpha  occ. eigenvalues --   -0.55048  -0.54850  -0.54750  -0.54059  -0.53858
 Alpha  occ. eigenvalues --   -0.53328  -0.53197  -0.53056  -0.52967  -0.52913
 Alpha  occ. eigenvalues --   -0.52811  -0.52539  -0.52461  -0.52201  -0.51968
 Alpha  occ. eigenvalues --   -0.51698  -0.51577  -0.51292  -0.50684  -0.50611
 Alpha  occ. eigenvalues --   -0.50460  -0.50256  -0.50087  -0.49965  -0.49771
 Alpha  occ. eigenvalues --   -0.49234  -0.48750  -0.48677  -0.48653  -0.48556
 Alpha  occ. eigenvalues --   -0.48433  -0.48248  -0.48091  -0.48038  -0.47695
 Alpha  occ. eigenvalues --   -0.47314  -0.47246  -0.46964  -0.46929  -0.46877
 Alpha  occ. eigenvalues --   -0.46699  -0.46484  -0.46166  -0.45839  -0.45645
 Alpha  occ. eigenvalues --   -0.45216  -0.45155  -0.44930  -0.44830  -0.44680
 Alpha  occ. eigenvalues --   -0.44421  -0.44330  -0.44203  -0.44059  -0.43892
 Alpha  occ. eigenvalues --   -0.43778  -0.43721  -0.43621  -0.43506  -0.43292
 Alpha  occ. eigenvalues --   -0.42996  -0.42740  -0.42296  -0.42146  -0.42026
 Alpha  occ. eigenvalues --   -0.41955  -0.41896  -0.41832  -0.41451  -0.41191
 Alpha  occ. eigenvalues --   -0.40892  -0.40771  -0.40599  -0.40300  -0.40064
 Alpha  occ. eigenvalues --   -0.40046  -0.39582  -0.39471  -0.38947  -0.38750
 Alpha  occ. eigenvalues --   -0.38620  -0.38195  -0.37981  -0.37637  -0.37320
 Alpha  occ. eigenvalues --   -0.37187  -0.36788  -0.36505  -0.36421  -0.36233
 Alpha  occ. eigenvalues --   -0.35728  -0.35248  -0.34948  -0.34492  -0.34374
 Alpha  occ. eigenvalues --   -0.34191  -0.33757  -0.32759  -0.31434  -0.31097
 Alpha  occ. eigenvalues --   -0.30451  -0.30096  -0.29507  -0.29445  -0.23560
 Alpha  occ. eigenvalues --   -0.20842
 Alpha virt. eigenvalues --   -0.08401  -0.01512   0.00199   0.02272   0.02522
 Alpha virt. eigenvalues --    0.03479   0.04669   0.05934   0.06502   0.06613
 Alpha virt. eigenvalues --    0.07445   0.08290   0.08415   0.08851   0.08869

 Mulliken charges:
               1
     1  Mg   0.833127
     2  C   -0.060289
     3  C   -0.123771
     4  C   -0.046589
     5  C   -0.072665
     6  N   -0.280082
     7  C   -0.031558
     8  C   -0.022540
     9  C   -0.030066
    10  C    0.017442
    11  C    0.064341
    12  C    0.066411
    13  C    0.096714
    14  C    0.158767
    15  O   -0.241099
    16  O   -0.350772
    17  N   -0.378384
    18  C    0.217719
    19  C   -0.155444
    20  C   -0.006228
    21  C    0.113228
    22  C    0.117261
    23  C    0.008539
    24  O   -0.236669
    25  C    0.062746
    26  N   -0.249742
    27  C    0.045573
    28  C   -0.034422
    29  C   -0.041834
    30  C    0.042809
    31  C    0.048233
    32  C    0.014554
    33  C    0.023105
    34  N   -0.334008
    35  C    0.072264
    36  C   -0.125935
    37  C    0.012587
    38  C    0.105731
    39  C    0.108406
    40  C    0.008890
    41  O   -0.178450
    42  C   -0.010791
    43  C    0.214731
    44  O   -0.196483
    45  O   -0.319003
    46  C    0.160686
    47  C    0.287420
    48  C   -0.124662
    49  C   -0.210095
    50  C    0.086975
    51  C    0.089198
    52  C    0.043529
    53  C    0.027788
    54  C   -0.145114
    55  C    0.057326
    56  C    0.105432
    57  C   -0.015662
    58  C    0.033756
    59  C   -0.120640
    60  C    0.033824
    61  C    0.041398
    62  C    0.004283
    63  C    0.023535
    64  C   -0.095932
    65  C    0.038135
    66  C    0.049414
    67  H   -0.031559
    68  H   -0.001655
    69  H   -0.038710
    70  H    0.037963
    71  H    0.002288
    72  H    0.034868
    73  H    0.009222
    74  H    0.010850
    75  H    0.009318
    76  H    0.012437
    77  H    0.021542
    78  H    0.046069
    79  H    0.027747
    80  H    0.005521
    81  H    0.028161
    82  H    0.036452
    83  H    0.033001
    84  H    0.027626
    85  H    0.024884
    86  H    0.008064
    87  H    0.026891
    88  H    0.019612
    89  H    0.022608
    90  H    0.014065
    91  H   -0.002945
    92  H    0.021009
    93  H    0.000894
    94  H    0.015422
    95  H    0.009562
    96  H    0.032701
    97  H    0.018700
    98  H    0.036228
    99  H    0.034992
   100  H    0.040084
   101  H    0.032597
   102  H    0.033982
   103  H    0.047525
   104  H   -0.006994
   105  H    0.004927
   106  H    0.033122
   107  H    0.014361
   108  H   -0.016189
   109  H    0.007102
   110  H    0.004007
   111  H    0.002470
   112  H   -0.009495
   113  H   -0.005960
   114  H    0.001173
   115  H    0.000748
   116  H   -0.010956
   117  H    0.006444
   118  H   -0.022443
   119  H    0.003707
   120  H    0.000267
   121  H   -0.011431
   122  H   -0.003120
   123  H    0.007574
   124  H   -0.001678
   125  H    0.012249
   126  H    0.013681
   127  H    0.005107
   128  H   -0.005200
   129  H   -0.019220
   130  H   -0.003826
   131  H   -0.000995
   132  H   -0.006034
   133  H   -0.004460
   134  H   -0.002236
   135  H    0.019085
   136  H   -0.004178
   137  H    0.002233
   138  H   -0.008706
   139  H    0.010298
   140  H   -0.010400
 Sum of Mulliken charges =  -0.00000

 Dipole moment (field-independent basis, Debye):
    X=              6.0829    Y=              2.9327    Z=             -3.2681  Tot=              7.5022
 Quadrupole moment (field-independent basis, Debye-Ang):
   XX=           -395.4990   YY=           -417.5922   ZZ=           -410.5012
   XY=            -32.1754   XZ=             11.9123   YZ=             16.9991

 Normal termination of Gaussian 16 at Thu Apr 28 07:16:30 2022.
