 Gaussian 16, Revision A.03,
 Gaussian 16:  ES64L-G16RevA.03 25-Dec-2016

 ---------------------------------
 #p PBE1PBE/Def2SVP td=(nstates=5)
 ---------------------------------

 ------------------------------------------------------
 step_1501_chromophore_24 TDDFT with PBE1PBE functional
 ------------------------------------------------------
 Symbolic Z-matrix:
 Charge =  0 Multiplicity = 1

                         Standard orientation:
 ---------------------------------------------------------------------
 Center     Atomic      Atomic             Coordinates (Angstroms)
 Number     Number       Type             X           Y           Z
 ---------------------------------------------------------------------
      1         12           0       -4.853596    1.249484   -0.344309
      2          6           0       -4.491732   -2.206906    0.179445
      3          6           0       -1.316697    1.450459   -0.294643
      4          6           0       -5.074264    4.551862    0.048174
      5          6           0       -8.257008    0.958551    0.183401
      6          7           0       -3.067549   -0.250117   -0.081122
      7          6           0       -3.186109   -1.636179    0.054498
      8          6           0       -1.831923   -2.370708   -0.249392
      9          6           0       -0.852830   -1.169027   -0.179995
     10          6           0       -1.744156    0.126564   -0.163848
     11          6           0        0.183180   -1.153556    0.975473
     12          6           0       -1.963439   -3.090755   -1.637914
     13          6           0       -1.206747   -4.415055   -1.815165
     14          6           0       -0.162487   -4.813508   -0.831467
     15          8           0       -0.325664   -5.196812    0.333394
     16          8           0        1.121509   -4.700969   -1.362430
     17          7           0       -3.457679    2.712730   -0.308428
     18          6           0       -2.091415    2.592323   -0.295555
     19          6           0       -1.472238    3.954821   -0.199881
     20          6           0       -2.549292    4.854083   -0.227017
     21          6           0       -3.742913    4.025763   -0.132976
     22          6           0       -0.032232    4.281459   -0.214181
     23          6           0       -2.512444    6.376361   -0.271405
     24          8           0       -3.577449    7.011522   -0.451959
     25          6           0       -1.253550    7.255570   -0.088747
     26          7           0       -6.582319    2.642375   -0.338045
     27          6           0       -6.390340    3.921376    0.091168
     28          6           0       -7.772833    4.612197    0.432759
     29          6           0       -8.774571    3.400318    0.296607
     30          6           0       -7.756428    2.232278    0.057861
     31          6           0       -7.895133    5.259978    1.911215
     32          6           0       -9.798589    3.654810   -0.840671
     33          6           0       -9.466918    3.154138   -2.244397
     34          7           0       -6.205188   -0.260377    0.158552
     35          6           0       -7.585342   -0.289478    0.283081
     36          6           0       -8.032854   -1.605797    0.537041
     37          6           0       -6.885183   -2.371046    0.471617
     38          6           0       -5.753648   -1.474035    0.296300
     39          6           0       -9.444592   -2.134964    0.790835
     40          6           0       -6.444524   -3.703839    0.521062
     41          8           0       -7.051318   -4.750588    0.728294
     42          6           0       -4.864943   -3.679155    0.335505
     43          6           0       -4.205710   -4.447877    1.426086
     44          8           0       -4.069297   -4.109676    2.570031
     45          8           0       -3.977125   -5.706446    0.953133
     46          6           0       -3.529884   -6.679983    1.886351
     47          6           0        2.307420   -5.077332   -0.612272
     48          6           0        3.307988   -4.010294   -0.512423
     49          6           0        4.593789   -4.066386   -0.029185
     50          6           0        5.215455   -5.380889    0.443460
     51          6           0        5.450847   -2.844465    0.020933
     52          6           0        6.429724   -2.591558   -1.116161
     53          6           0        6.208376   -1.182380   -1.800739
     54          6           0        7.470338   -0.254740   -1.738274
     55          6           0        7.246406    0.864046   -2.721631
     56          6           0        7.973175    0.211899   -0.423006
     57          6           0        9.407854   -0.356130   -0.149946
     58          6           0       10.424363   -0.047083   -1.256087
     59          6           0       11.640882    0.776402   -0.768615
     60          6           0       12.534390    1.085787   -2.086368
     61          6           0       12.507523    0.083703    0.294403
     62          6           0       12.652185    0.766938    1.658367
     63          6           0       13.675427    1.918075    1.481396
     64          6           0       13.298905    3.252542    2.304406
     65          6           0       12.662915    4.308207    1.425155
     66          6           0       14.511246    3.915902    2.904583
     67          1           0       -0.229144    1.498303   -0.377622
     68          1           0       -5.095687    5.613392    0.300819
     69          1           0       -9.326911    0.878342    0.391335
     70          1           0       -1.696267   -3.134461    0.515528
     71          1           0       -0.252065   -1.050666   -1.081551
     72          1           0       -0.285606   -1.466240    1.908609
     73          1           0        0.717690   -0.212576    1.106980
     74          1           0        0.960554   -1.861062    0.684213
     75          1           0       -1.662135   -2.347948   -2.376667
     76          1           0       -3.014252   -3.321273   -1.813658
     77          1           0       -0.655709   -4.325844   -2.751035
     78          1           0       -1.923275   -5.216377   -1.993179
     79          1           0        0.318150    4.844607   -1.079219
     80          1           0        0.573130    3.375287   -0.251824
     81          1           0        0.239128    4.897959    0.642683
     82          1           0       -0.752292    7.213793   -1.055340
     83          1           0       -0.672688    6.934452    0.775556
     84          1           0       -1.424132    8.320849    0.067551
     85          1           0       -8.080589    5.360406   -0.297682
     86          1           0       -9.291247    3.119221    1.214782
     87          1           0       -7.064273    5.088517    2.595705
     88          1           0       -8.821055    4.883615    2.345153
     89          1           0       -7.945256    6.328854    1.701347
     90          1           0      -10.199535    4.664912   -0.928066
     91          1           0      -10.629064    3.027612   -0.516901
     92          1           0       -8.464425    3.292133   -2.650217
     93          1           0      -10.101736    3.791059   -2.860896
     94          1           0       -9.808438    2.134498   -2.420545
     95          1           0       -9.993630   -1.431949    1.418058
     96          1           0       -9.559627   -3.121088    1.241960
     97          1           0      -10.053565   -2.244848   -0.106349
     98          1           0       -4.757465   -4.065190   -0.677753
     99          1           0       -4.157643   -7.539192    1.649737
    100          1           0       -3.632477   -6.319479    2.909671
    101          1           0       -2.473740   -6.934474    1.790288
    102          1           0        2.676946   -5.940199   -1.167273
    103          1           0        2.076781   -5.396639    0.403880
    104          1           0        2.984685   -3.012253   -0.810323
    105          1           0        4.541359   -6.167241    0.104746
    106          1           0        5.416061   -5.411453    1.514184
    107          1           0        6.179721   -5.496140   -0.051502
    108          1           0        6.082743   -3.010496    0.894310
    109          1           0        4.816611   -2.004558    0.303061
    110          1           0        6.268303   -3.260695   -1.961501
    111          1           0        7.459505   -2.689485   -0.772671
    112          1           0        5.310741   -0.712452   -1.398399
    113          1           0        5.973459   -1.396974   -2.843703
    114          1           0        8.263695   -0.835253   -2.209476
    115          1           0        7.732790    0.666798   -3.677567
    116          1           0        7.795866    1.739165   -2.373643
    117          1           0        6.220590    1.184892   -2.903128
    118          1           0        7.369319   -0.317481    0.314392
    119          1           0        7.832667    1.266767   -0.188374
    120          1           0        9.442650   -1.422786    0.072497
    121          1           0        9.717793    0.062422    0.808036
    122          1           0        9.948679    0.614210   -1.979935
    123          1           0       10.667288   -0.996036   -1.734707
    124          1           0       11.315079    1.757628   -0.425257
    125          1           0       13.552029    0.698980   -2.045701
    126          1           0       12.469428    2.172019   -2.149595
    127          1           0       12.087834    0.620124   -2.965583
    128          1           0       13.515944   -0.139881   -0.054144
    129          1           0       12.050379   -0.862098    0.583048
    130          1           0       12.998368    0.041703    2.394853
    131          1           0       11.646243    1.026625    1.987105
    132          1           0       13.793015    2.100657    0.413523
    133          1           0       14.638450    1.482961    1.750772
    134          1           0       12.639275    2.882620    3.088584
    135          1           0       12.366258    5.254895    1.876613
    136          1           0       11.815374    3.824386    0.940613
    137          1           0       13.372663    4.495309    0.618860
    138          1           0       15.192986    4.243905    2.120477
    139          1           0       14.970202    3.309030    3.685592
    140          1           0       14.324030    4.909837    3.311878
 ---------------------------------------------------------------------

 SCF Done:  E(RPBE1PBE) =  -3005.37117530     A.U. after   15 cycles

 Excitation energies and oscillator strengths:

 Excited State   1:      Singlet-A      1.8216 eV  680.63 nm  f=0.3450  <S**2>=0.000
     245 -> 248       -0.16079
     246 -> 247        0.69263
     246 <- 247       -0.10540
 This state for optimization and/or second-order correction.
 Total Energy, E(TD-HF/TD-DFT) =  -3005.30423261
 Copying the excited state density for this state as the 1-particle RhoCI density.

 Excited State   2:      Singlet-A      2.1867 eV  566.99 nm  f=0.1258  <S**2>=0.000
     245 -> 247        0.65495
     246 -> 248        0.24409

 Excited State   3:      Singlet-A      2.8685 eV  432.22 nm  f=0.0005  <S**2>=0.000
     244 -> 247        0.67279
     244 -> 249       -0.12674
     244 -> 250       -0.11197

 Excited State   4:      Singlet-A      3.0674 eV  404.20 nm  f=0.0141  <S**2>=0.000
     240 -> 247        0.11346
     241 -> 247       -0.25484
     242 -> 247        0.54462
     242 -> 248       -0.13115
     242 -> 249        0.14586
     246 -> 248        0.19638

 Excited State   5:      Singlet-A      3.1985 eV  387.63 nm  f=0.1281  <S**2>=0.000
     241 -> 247       -0.23845
     242 -> 247       -0.32519
     245 -> 247       -0.15018
     246 -> 248        0.51221
     246 -> 249       -0.19412

 The electronic state is 1-A.
 Alpha  occ. eigenvalues --  -46.93341 -19.25849 -19.23957 -19.20727 -19.19150
 Alpha  occ. eigenvalues --  -19.18925 -19.18185 -14.41512 -14.41240 -14.40126
 Alpha  occ. eigenvalues --  -14.38927 -10.37475 -10.34967 -10.33183 -10.30912
 Alpha  occ. eigenvalues --  -10.29623 -10.29447 -10.29047 -10.28689 -10.28625
 Alpha  occ. eigenvalues --  -10.28413 -10.27364 -10.26835 -10.26582 -10.26556
 Alpha  occ. eigenvalues --  -10.26452 -10.26426 -10.26303 -10.26029 -10.25947
 Alpha  occ. eigenvalues --  -10.25803 -10.25572 -10.25192 -10.25042 -10.25037
 Alpha  occ. eigenvalues --  -10.24875 -10.24752 -10.24701 -10.24574 -10.24239
 Alpha  occ. eigenvalues --  -10.24208 -10.24013 -10.23724 -10.23679 -10.23646
 Alpha  occ. eigenvalues --  -10.23519 -10.23490 -10.23484 -10.23342 -10.23268
 Alpha  occ. eigenvalues --  -10.23210 -10.23141 -10.23115 -10.23003 -10.22789
 Alpha  occ. eigenvalues --  -10.22708 -10.22671 -10.22618 -10.22419 -10.22177
 Alpha  occ. eigenvalues --  -10.22130 -10.22039 -10.21905 -10.21869 -10.21675
 Alpha  occ. eigenvalues --  -10.21371  -3.15310  -1.88157  -1.87676  -1.87536
 Alpha  occ. eigenvalues --   -1.10813  -1.10775  -1.03451  -1.03314  -1.02435
 Alpha  occ. eigenvalues --   -1.02411  -0.99530  -0.98755  -0.98440  -0.96255
 Alpha  occ. eigenvalues --   -0.85758  -0.85326  -0.84582  -0.83996  -0.83357
 Alpha  occ. eigenvalues --   -0.82860  -0.82346  -0.81821  -0.81694  -0.80827
 Alpha  occ. eigenvalues --   -0.80748  -0.80333  -0.79006  -0.77807  -0.77231
 Alpha  occ. eigenvalues --   -0.76900  -0.75848  -0.75507  -0.75016  -0.74562
 Alpha  occ. eigenvalues --   -0.74153  -0.73155  -0.72295  -0.70954  -0.70342
 Alpha  occ. eigenvalues --   -0.69817  -0.69334  -0.69252  -0.68992  -0.68549
 Alpha  occ. eigenvalues --   -0.68075  -0.67271  -0.65628  -0.65138  -0.63367
 Alpha  occ. eigenvalues --   -0.63047  -0.62846  -0.62015  -0.61535  -0.60716
 Alpha  occ. eigenvalues --   -0.59809  -0.59612  -0.58619  -0.58298  -0.58272
 Alpha  occ. eigenvalues --   -0.57974  -0.57924  -0.56220  -0.55960  -0.55346
 Alpha  occ. eigenvalues --   -0.54786  -0.53855  -0.53704  -0.53036  -0.52707
 Alpha  occ. eigenvalues --   -0.51681  -0.51402  -0.50615  -0.50440  -0.49595
 Alpha  occ. eigenvalues --   -0.49518  -0.49353  -0.49303  -0.48580  -0.48334
 Alpha  occ. eigenvalues --   -0.47831  -0.47697  -0.47577  -0.47364  -0.47265
 Alpha  occ. eigenvalues --   -0.47208  -0.47084  -0.46954  -0.46819  -0.46517
 Alpha  occ. eigenvalues --   -0.46257  -0.46215  -0.45787  -0.45272  -0.45179
 Alpha  occ. eigenvalues --   -0.44931  -0.44771  -0.44610  -0.44575  -0.44298
 Alpha  occ. eigenvalues --   -0.43843  -0.43307  -0.43222  -0.43213  -0.43137
 Alpha  occ. eigenvalues --   -0.43048  -0.42849  -0.42704  -0.42632  -0.42291
 Alpha  occ. eigenvalues --   -0.41968  -0.41854  -0.41633  -0.41591  -0.41559
 Alpha  occ. eigenvalues --   -0.41358  -0.41075  -0.40841  -0.40646  -0.40388
 Alpha  occ. eigenvalues --   -0.40000  -0.39912  -0.39741  -0.39494  -0.39437
 Alpha  occ. eigenvalues --   -0.39122  -0.39017  -0.38935  -0.38819  -0.38612
 Alpha  occ. eigenvalues --   -0.38530  -0.38420  -0.38341  -0.38223  -0.37992
 Alpha  occ. eigenvalues --   -0.37897  -0.37546  -0.37033  -0.36931  -0.36831
 Alpha  occ. eigenvalues --   -0.36769  -0.36650  -0.36578  -0.36381  -0.35912
 Alpha  occ. eigenvalues --   -0.35726  -0.35586  -0.35482  -0.35132  -0.34964
 Alpha  occ. eigenvalues --   -0.34773  -0.34550  -0.34205  -0.33891  -0.33533
 Alpha  occ. eigenvalues --   -0.33384  -0.32990  -0.32960  -0.32401  -0.32237
 Alpha  occ. eigenvalues --   -0.32133  -0.31735  -0.31477  -0.31373  -0.31186
 Alpha  occ. eigenvalues --   -0.30825  -0.30174  -0.29923  -0.29462  -0.29313
 Alpha  occ. eigenvalues --   -0.29311  -0.28751  -0.28230  -0.26780  -0.26279
 Alpha  occ. eigenvalues --   -0.25803  -0.25500  -0.24837  -0.24713  -0.20495
 Alpha  occ. eigenvalues --   -0.18460
 Alpha virt. eigenvalues --   -0.10896  -0.05106  -0.03908  -0.01896  -0.01183
 Alpha virt. eigenvalues --   -0.00472   0.00396   0.01574   0.01933   0.03045
 Alpha virt. eigenvalues --    0.03668   0.04751   0.05158   0.05245   0.05567

 Mulliken charges:
               1
     1  Mg   0.975415
     2  C   -0.069396
     3  C   -0.111284
     4  C   -0.033209
     5  C   -0.058523
     6  N   -0.376690
     7  C    0.047440
     8  C   -0.098098
     9  C   -0.107681
    10  C    0.061414
    11  C    0.004006
    12  C    0.018032
    13  C    0.021803
    14  C    0.225829
    15  O   -0.275340
    16  O   -0.384671
    17  N   -0.500260
    18  C    0.230548
    19  C   -0.183323
    20  C   -0.053229
    21  C    0.133243
    22  C    0.059432
    23  C    0.053363
    24  O   -0.270216
    25  C   -0.008679
    26  N   -0.343498
    27  C    0.070329
    28  C   -0.108778
    29  C   -0.108857
    30  C    0.072333
    31  C   -0.008127
    32  C   -0.046652
    33  C   -0.050608
    34  N   -0.465410
    35  C    0.091564
    36  C   -0.137121
    37  C   -0.049279
    38  C    0.169776
    39  C    0.062193
    40  C    0.103089
    41  O   -0.223224
    42  C   -0.117343
    43  C    0.299094
    44  O   -0.233468
    45  O   -0.352217
    46  C    0.107940
    47  C    0.250695
    48  C   -0.133998
    49  C   -0.252861
    50  C    0.022912
    51  C    0.021002
    52  C   -0.019070
    53  C   -0.023563
    54  C   -0.235981
    55  C   -0.000744
    56  C    0.047157
    57  C   -0.080360
    58  C   -0.025661
    59  C   -0.207674
    60  C   -0.024765
    61  C   -0.018432
    62  C   -0.057428
    63  C   -0.025817
    64  C   -0.195243
    65  C   -0.027453
    66  C   -0.011520
    67  H    0.000615
    68  H    0.030941
    69  H   -0.006105
    70  H    0.078946
    71  H    0.039334
    72  H    0.061709
    73  H    0.036598
    74  H    0.043127
    75  H    0.041652
    76  H    0.047276
    77  H    0.054741
    78  H    0.076287
    79  H    0.054096
    80  H    0.032388
    81  H    0.054719
    82  H    0.062863
    83  H    0.058231
    84  H    0.054110
    85  H    0.060373
    86  H    0.043949
    87  H    0.053922
    88  H    0.046138
    89  H    0.049703
    90  H    0.045880
    91  H    0.030698
    92  H    0.050333
    93  H    0.030254
    94  H    0.043249
    95  H    0.037082
    96  H    0.059608
    97  H    0.047243
    98  H    0.075875
    99  H    0.057253
   100  H    0.060974
   101  H    0.055400
   102  H    0.059975
   103  H    0.073123
   104  H    0.023296
   105  H    0.032589
   106  H    0.060240
   107  H    0.042999
   108  H    0.018433
   109  H    0.037071
   110  H    0.037162
   111  H    0.035699
   112  H    0.022452
   113  H    0.027009
   114  H    0.042520
   115  H    0.028488
   116  H    0.016250
   117  H    0.034092
   118  H    0.015840
   119  H    0.034472
   120  H    0.031442
   121  H    0.024681
   122  H    0.034782
   123  H    0.038991
   124  H    0.039687
   125  H    0.038083
   126  H    0.040547
   127  H    0.032215
   128  H    0.027858
   129  H    0.015554
   130  H    0.029233
   131  H    0.030696
   132  H    0.028970
   133  H    0.027732
   134  H    0.035535
   135  H    0.046575
   136  H    0.027402
   137  H    0.030122
   138  H    0.019243
   139  H    0.038285
   140  H    0.018339
 Sum of Mulliken charges =  -0.00000

 Dipole moment (field-independent basis, Debye):
    X=              5.6594    Y=              2.5067    Z=             -3.2821  Tot=              7.0060
 Quadrupole moment (field-independent basis, Debye-Ang):
   XX=           -385.8878   YY=           -415.2864   ZZ=           -408.0897
   XY=            -31.6823   XZ=             11.6831   YZ=             16.8936

 Normal termination of Gaussian 16 at Thu Apr 28 07:35:57 2022.
