 Gaussian 16, Revision A.03,
 Gaussian 16:  ES64L-G16RevA.03 25-Dec-2016

 --------------------------------
 #p wB97XD/Def2SVP td=(nstates=5)
 --------------------------------

 -----------------------------------------------------
 step_1501_chromophore_24 TDDFT with wB97XD functional
 -----------------------------------------------------
 Symbolic Z-matrix:
 Charge =  0 Multiplicity = 1

                         Standard orientation:
 ---------------------------------------------------------------------
 Center     Atomic      Atomic             Coordinates (Angstroms)
 Number     Number       Type             X           Y           Z
 ---------------------------------------------------------------------
      1         12           0       -4.853596    1.249484   -0.344309
      2          6           0       -4.491732   -2.206906    0.179445
      3          6           0       -1.316697    1.450459   -0.294643
      4          6           0       -5.074264    4.551862    0.048174
      5          6           0       -8.257008    0.958551    0.183401
      6          7           0       -3.067549   -0.250117   -0.081122
      7          6           0       -3.186109   -1.636179    0.054498
      8          6           0       -1.831923   -2.370708   -0.249392
      9          6           0       -0.852830   -1.169027   -0.179995
     10          6           0       -1.744156    0.126564   -0.163848
     11          6           0        0.183180   -1.153556    0.975473
     12          6           0       -1.963439   -3.090755   -1.637914
     13          6           0       -1.206747   -4.415055   -1.815165
     14          6           0       -0.162487   -4.813508   -0.831467
     15          8           0       -0.325664   -5.196812    0.333394
     16          8           0        1.121509   -4.700969   -1.362430
     17          7           0       -3.457679    2.712730   -0.308428
     18          6           0       -2.091415    2.592323   -0.295555
     19          6           0       -1.472238    3.954821   -0.199881
     20          6           0       -2.549292    4.854083   -0.227017
     21          6           0       -3.742913    4.025763   -0.132976
     22          6           0       -0.032232    4.281459   -0.214181
     23          6           0       -2.512444    6.376361   -0.271405
     24          8           0       -3.577449    7.011522   -0.451959
     25          6           0       -1.253550    7.255570   -0.088747
     26          7           0       -6.582319    2.642375   -0.338045
     27          6           0       -6.390340    3.921376    0.091168
     28          6           0       -7.772833    4.612197    0.432759
     29          6           0       -8.774571    3.400318    0.296607
     30          6           0       -7.756428    2.232278    0.057861
     31          6           0       -7.895133    5.259978    1.911215
     32          6           0       -9.798589    3.654810   -0.840671
     33          6           0       -9.466918    3.154138   -2.244397
     34          7           0       -6.205188   -0.260377    0.158552
     35          6           0       -7.585342   -0.289478    0.283081
     36          6           0       -8.032854   -1.605797    0.537041
     37          6           0       -6.885183   -2.371046    0.471617
     38          6           0       -5.753648   -1.474035    0.296300
     39          6           0       -9.444592   -2.134964    0.790835
     40          6           0       -6.444524   -3.703839    0.521062
     41          8           0       -7.051318   -4.750588    0.728294
     42          6           0       -4.864943   -3.679155    0.335505
     43          6           0       -4.205710   -4.447877    1.426086
     44          8           0       -4.069297   -4.109676    2.570031
     45          8           0       -3.977125   -5.706446    0.953133
     46          6           0       -3.529884   -6.679983    1.886351
     47          6           0        2.307420   -5.077332   -0.612272
     48          6           0        3.307988   -4.010294   -0.512423
     49          6           0        4.593789   -4.066386   -0.029185
     50          6           0        5.215455   -5.380889    0.443460
     51          6           0        5.450847   -2.844465    0.020933
     52          6           0        6.429724   -2.591558   -1.116161
     53          6           0        6.208376   -1.182380   -1.800739
     54          6           0        7.470338   -0.254740   -1.738274
     55          6           0        7.246406    0.864046   -2.721631
     56          6           0        7.973175    0.211899   -0.423006
     57          6           0        9.407854   -0.356130   -0.149946
     58          6           0       10.424363   -0.047083   -1.256087
     59          6           0       11.640882    0.776402   -0.768615
     60          6           0       12.534390    1.085787   -2.086368
     61          6           0       12.507523    0.083703    0.294403
     62          6           0       12.652185    0.766938    1.658367
     63          6           0       13.675427    1.918075    1.481396
     64          6           0       13.298905    3.252542    2.304406
     65          6           0       12.662915    4.308207    1.425155
     66          6           0       14.511246    3.915902    2.904583
     67          1           0       -0.229144    1.498303   -0.377622
     68          1           0       -5.095687    5.613392    0.300819
     69          1           0       -9.326911    0.878342    0.391335
     70          1           0       -1.696267   -3.134461    0.515528
     71          1           0       -0.252065   -1.050666   -1.081551
     72          1           0       -0.285606   -1.466240    1.908609
     73          1           0        0.717690   -0.212576    1.106980
     74          1           0        0.960554   -1.861062    0.684213
     75          1           0       -1.662135   -2.347948   -2.376667
     76          1           0       -3.014252   -3.321273   -1.813658
     77          1           0       -0.655709   -4.325844   -2.751035
     78          1           0       -1.923275   -5.216377   -1.993179
     79          1           0        0.318150    4.844607   -1.079219
     80          1           0        0.573130    3.375287   -0.251824
     81          1           0        0.239128    4.897959    0.642683
     82          1           0       -0.752292    7.213793   -1.055340
     83          1           0       -0.672688    6.934452    0.775556
     84          1           0       -1.424132    8.320849    0.067551
     85          1           0       -8.080589    5.360406   -0.297682
     86          1           0       -9.291247    3.119221    1.214782
     87          1           0       -7.064273    5.088517    2.595705
     88          1           0       -8.821055    4.883615    2.345153
     89          1           0       -7.945256    6.328854    1.701347
     90          1           0      -10.199535    4.664912   -0.928066
     91          1           0      -10.629064    3.027612   -0.516901
     92          1           0       -8.464425    3.292133   -2.650217
     93          1           0      -10.101736    3.791059   -2.860896
     94          1           0       -9.808438    2.134498   -2.420545
     95          1           0       -9.993630   -1.431949    1.418058
     96          1           0       -9.559627   -3.121088    1.241960
     97          1           0      -10.053565   -2.244848   -0.106349
     98          1           0       -4.757465   -4.065190   -0.677753
     99          1           0       -4.157643   -7.539192    1.649737
    100          1           0       -3.632477   -6.319479    2.909671
    101          1           0       -2.473740   -6.934474    1.790288
    102          1           0        2.676946   -5.940199   -1.167273
    103          1           0        2.076781   -5.396639    0.403880
    104          1           0        2.984685   -3.012253   -0.810323
    105          1           0        4.541359   -6.167241    0.104746
    106          1           0        5.416061   -5.411453    1.514184
    107          1           0        6.179721   -5.496140   -0.051502
    108          1           0        6.082743   -3.010496    0.894310
    109          1           0        4.816611   -2.004558    0.303061
    110          1           0        6.268303   -3.260695   -1.961501
    111          1           0        7.459505   -2.689485   -0.772671
    112          1           0        5.310741   -0.712452   -1.398399
    113          1           0        5.973459   -1.396974   -2.843703
    114          1           0        8.263695   -0.835253   -2.209476
    115          1           0        7.732790    0.666798   -3.677567
    116          1           0        7.795866    1.739165   -2.373643
    117          1           0        6.220590    1.184892   -2.903128
    118          1           0        7.369319   -0.317481    0.314392
    119          1           0        7.832667    1.266767   -0.188374
    120          1           0        9.442650   -1.422786    0.072497
    121          1           0        9.717793    0.062422    0.808036
    122          1           0        9.948679    0.614210   -1.979935
    123          1           0       10.667288   -0.996036   -1.734707
    124          1           0       11.315079    1.757628   -0.425257
    125          1           0       13.552029    0.698980   -2.045701
    126          1           0       12.469428    2.172019   -2.149595
    127          1           0       12.087834    0.620124   -2.965583
    128          1           0       13.515944   -0.139881   -0.054144
    129          1           0       12.050379   -0.862098    0.583048
    130          1           0       12.998368    0.041703    2.394853
    131          1           0       11.646243    1.026625    1.987105
    132          1           0       13.793015    2.100657    0.413523
    133          1           0       14.638450    1.482961    1.750772
    134          1           0       12.639275    2.882620    3.088584
    135          1           0       12.366258    5.254895    1.876613
    136          1           0       11.815374    3.824386    0.940613
    137          1           0       13.372663    4.495309    0.618860
    138          1           0       15.192986    4.243905    2.120477
    139          1           0       14.970202    3.309030    3.685592
    140          1           0       14.324030    4.909837    3.311878
 ---------------------------------------------------------------------

 SCF Done:  E(RwB97XD) =  -3007.88240789     A.U. after   20 cycles

 Excitation energies and oscillator strengths:

 Excited State   1:      Singlet-A      1.6372 eV  757.31 nm  f=0.3566  <S**2>=0.000
     245 -> 248        0.17781
     246 -> 247        0.68393
     245 <- 248        0.11259
 This state for optimization and/or second-order correction.
 Total Energy, E(TD-HF/TD-DFT) =  -3007.82224339
 Copying the excited state density for this state as the 1-particle RhoCI density.

 Excited State   2:      Singlet-A      2.1377 eV  579.98 nm  f=0.1239  <S**2>=0.000
     245 -> 247        0.64145
     246 -> 248       -0.28055

 Excited State   3:      Singlet-A      3.4488 eV  359.49 nm  f=0.0089  <S**2>=0.000
     240 -> 247        0.11139
     240 -> 249       -0.12645
     241 -> 247        0.12163
     241 -> 249       -0.11627
     242 -> 249       -0.11473
     242 -> 250        0.11481
     244 -> 247        0.53588
     244 -> 249        0.16859
     244 -> 250       -0.20018

 Excited State   4:      Singlet-A      3.4538 eV  358.98 nm  f=0.2317  <S**2>=0.000
     239 -> 247        0.10646
     240 -> 247       -0.21417
     240 -> 248        0.11870
     240 -> 249        0.20213
     241 -> 247       -0.20442
     241 -> 249        0.12740
     244 -> 247        0.20720
     244 -> 249        0.12782
     245 -> 247        0.17219
     246 -> 248        0.42008

 Excited State   5:      Singlet-A      3.5721 eV  347.09 nm  f=0.3978  <S**2>=0.000
     240 -> 247        0.25883
     240 -> 248       -0.10581
     240 -> 249       -0.20283
     241 -> 247        0.11336
     241 -> 249       -0.10793
     242 -> 247        0.21224
     245 -> 247        0.20635
     246 -> 248        0.46357

 The electronic state is 1-A.
 Alpha  occ. eigenvalues --  -46.96272 -19.30363 -19.28433 -19.25356 -19.24184
 Alpha  occ. eigenvalues --  -19.23557 -19.22695 -14.46617 -14.46323 -14.45232
 Alpha  occ. eigenvalues --  -14.43717 -10.44233 -10.41744 -10.40236 -10.37547
 Alpha  occ. eigenvalues --  -10.36095 -10.35965 -10.35314 -10.35245 -10.35158
 Alpha  occ. eigenvalues --  -10.35143 -10.33460 -10.33387 -10.32862 -10.32738
 Alpha  occ. eigenvalues --  -10.32660 -10.32638 -10.32583 -10.32255 -10.32197
 Alpha  occ. eigenvalues --  -10.32112 -10.31939 -10.31924 -10.31478 -10.31387
 Alpha  occ. eigenvalues --  -10.31150 -10.31140 -10.31129 -10.31029 -10.30879
 Alpha  occ. eigenvalues --  -10.30651 -10.30309 -10.30134 -10.30044 -10.29957
 Alpha  occ. eigenvalues --  -10.29947 -10.29804 -10.29751 -10.29743 -10.29657
 Alpha  occ. eigenvalues --  -10.29613 -10.29490 -10.29367 -10.29307 -10.29183
 Alpha  occ. eigenvalues --  -10.29089 -10.29067 -10.29014 -10.28806 -10.28555
 Alpha  occ. eigenvalues --  -10.28525 -10.28411 -10.28371 -10.28135 -10.27837
 Alpha  occ. eigenvalues --  -10.27824  -3.22125  -1.95717  -1.95236  -1.95091
 Alpha  occ. eigenvalues --   -1.18161  -1.18078  -1.11180  -1.10535  -1.09733
 Alpha  occ. eigenvalues --   -1.09699  -1.06825  -1.06137  -1.05796  -1.03708
 Alpha  occ. eigenvalues --   -0.93257  -0.93008  -0.92248  -0.91636  -0.91041
 Alpha  occ. eigenvalues --   -0.90717  -0.89953  -0.89575  -0.89379  -0.88393
 Alpha  occ. eigenvalues --   -0.88228  -0.87876  -0.86670  -0.85472  -0.84794
 Alpha  occ. eigenvalues --   -0.84559  -0.83574  -0.83360  -0.82661  -0.82231
 Alpha  occ. eigenvalues --   -0.81773  -0.81009  -0.79848  -0.78470  -0.78030
 Alpha  occ. eigenvalues --   -0.77373  -0.77043  -0.76975  -0.76540  -0.76242
 Alpha  occ. eigenvalues --   -0.75679  -0.74751  -0.73226  -0.72722  -0.70909
 Alpha  occ. eigenvalues --   -0.70654  -0.70467  -0.69612  -0.69180  -0.68375
 Alpha  occ. eigenvalues --   -0.67356  -0.67037  -0.66079  -0.65973  -0.65690
 Alpha  occ. eigenvalues --   -0.65622  -0.65407  -0.63877  -0.63347  -0.62922
 Alpha  occ. eigenvalues --   -0.62313  -0.61221  -0.61071  -0.60334  -0.60135
 Alpha  occ. eigenvalues --   -0.59056  -0.58857  -0.58058  -0.57837  -0.57049
 Alpha  occ. eigenvalues --   -0.56947  -0.56740  -0.56714  -0.55977  -0.55784
 Alpha  occ. eigenvalues --   -0.55180  -0.55127  -0.54981  -0.54883  -0.54831
 Alpha  occ. eigenvalues --   -0.54722  -0.54456  -0.54356  -0.54084  -0.53866
 Alpha  occ. eigenvalues --   -0.53610  -0.53496  -0.53171  -0.52606  -0.52512
 Alpha  occ. eigenvalues --   -0.52322  -0.52250  -0.51981  -0.51855  -0.51740
 Alpha  occ. eigenvalues --   -0.51123  -0.50661  -0.50602  -0.50533  -0.50486
 Alpha  occ. eigenvalues --   -0.50370  -0.50131  -0.50018  -0.49923  -0.49617
 Alpha  occ. eigenvalues --   -0.49217  -0.49135  -0.48887  -0.48807  -0.48799
 Alpha  occ. eigenvalues --   -0.48624  -0.48346  -0.48054  -0.47727  -0.47572
 Alpha  occ. eigenvalues --   -0.47126  -0.47065  -0.46806  -0.46697  -0.46581
 Alpha  occ. eigenvalues --   -0.46334  -0.46197  -0.46115  -0.45949  -0.45746
 Alpha  occ. eigenvalues --   -0.45689  -0.45575  -0.45544  -0.45435  -0.45171
 Alpha  occ. eigenvalues --   -0.44906  -0.44656  -0.44262  -0.44041  -0.43960
 Alpha  occ. eigenvalues --   -0.43887  -0.43759  -0.43749  -0.43413  -0.43050
 Alpha  occ. eigenvalues --   -0.42793  -0.42681  -0.42516  -0.42218  -0.41942
 Alpha  occ. eigenvalues --   -0.41893  -0.41485  -0.41309  -0.40831  -0.40597
 Alpha  occ. eigenvalues --   -0.40463  -0.40032  -0.39879  -0.39459  -0.39205
 Alpha  occ. eigenvalues --   -0.39127  -0.38748  -0.38525  -0.38345  -0.38101
 Alpha  occ. eigenvalues --   -0.37660  -0.37084  -0.36925  -0.36382  -0.36223
 Alpha  occ. eigenvalues --   -0.36172  -0.35713  -0.34954  -0.33627  -0.33166
 Alpha  occ. eigenvalues --   -0.32620  -0.32145  -0.31545  -0.31450  -0.25483
 Alpha  occ. eigenvalues --   -0.22658
 Alpha virt. eigenvalues --   -0.06743   0.00414   0.02234   0.04630   0.05381
 Alpha virt. eigenvalues --    0.05847   0.07032   0.08317   0.08781   0.09393
 Alpha virt. eigenvalues --    0.09986   0.11466   0.11841   0.12165   0.12287

 Mulliken charges:
               1
     1  Mg   0.967753
     2  C   -0.069438
     3  C   -0.132151
     4  C   -0.052360
     5  C   -0.075883
     6  N   -0.344605
     7  C    0.013118
     8  C   -0.070134
     9  C   -0.082582
    10  C    0.046609
    11  C    0.017649
    12  C    0.029002
    13  C    0.035991
    14  C    0.212789
    15  O   -0.271600
    16  O   -0.382243
    17  N   -0.467591
    18  C    0.231550
    19  C   -0.171341
    20  C   -0.046571
    21  C    0.131972
    22  C    0.069696
    23  C    0.049236
    24  O   -0.264338
    25  C    0.002345
    26  N   -0.315539
    27  C    0.062187
    28  C   -0.086925
    29  C   -0.084248
    30  C    0.060530
    31  C    0.003098
    32  C   -0.033617
    33  C   -0.033369
    34  N   -0.424676
    35  C    0.080732
    36  C   -0.136555
    37  C   -0.040998
    38  C    0.144212
    39  C    0.069821
    40  C    0.083978
    41  O   -0.215058
    42  C   -0.078138
    43  C    0.277641
    44  O   -0.227945
    45  O   -0.350652
    46  C    0.122347
    47  C    0.261141
    48  C   -0.143228
    49  C   -0.239348
    50  C    0.038407
    51  C    0.042466
    52  C   -0.004278
    53  C   -0.008499
    54  C   -0.199440
    55  C    0.006831
    56  C    0.060106
    57  C   -0.061219
    58  C   -0.006422
    59  C   -0.177143
    60  C   -0.012251
    61  C    0.001757
    62  C   -0.041734
    63  C   -0.013578
    64  C   -0.162182
    65  C   -0.010610
    66  C    0.000058
    67  H   -0.007816
    68  H    0.025696
    69  H   -0.012903
    70  H    0.063814
    71  H    0.029206
    72  H    0.057296
    73  H    0.030588
    74  H    0.034263
    75  H    0.034163
    76  H    0.035776
    77  H    0.049247
    78  H    0.073202
    79  H    0.050742
    80  H    0.029683
    81  H    0.050176
    82  H    0.058486
    83  H    0.053411
    84  H    0.054170
    85  H    0.051665
    86  H    0.033327
    87  H    0.048676
    88  H    0.040423
    89  H    0.044061
    90  H    0.038224
    91  H    0.022518
    92  H    0.041805
    93  H    0.023948
    94  H    0.037451
    95  H    0.030375
    96  H    0.056162
    97  H    0.041242
    98  H    0.065965
    99  H    0.053338
   100  H    0.056744
   101  H    0.052449
   102  H    0.055124
   103  H    0.069048
   104  H    0.018140
   105  H    0.026048
   106  H    0.055501
   107  H    0.036466
   108  H    0.009716
   109  H    0.028653
   110  H    0.029323
   111  H    0.024785
   112  H    0.012011
   113  H    0.019444
   114  H    0.024871
   115  H    0.023796
   116  H    0.009359
   117  H    0.028939
   118  H    0.003606
   119  H    0.028710
   120  H    0.023467
   121  H    0.012914
   122  H    0.017982
   123  H    0.031434
   124  H    0.021855
   125  H    0.032574
   126  H    0.034937
   127  H    0.026515
   128  H    0.017090
   129  H    0.005771
   130  H    0.023141
   131  H    0.018899
   132  H    0.013717
   133  H    0.020954
   134  H    0.025116
   135  H    0.041936
   136  H    0.017608
   137  H    0.021443
   138  H    0.011628
   139  H    0.033541
   140  H    0.011835
 Sum of Mulliken charges =  -0.00000

 Dipole moment (field-independent basis, Debye):
    X=              6.2316    Y=              3.0947    Z=             -3.3398  Tot=              7.7178
 Quadrupole moment (field-independent basis, Debye-Ang):
   XX=           -391.1463   YY=           -412.6833   ZZ=           -407.7624
   XY=            -32.6224   XZ=             12.1952   YZ=             17.0614

 Normal termination of Gaussian 16 at Thu Apr 28 08:03:08 2022.
