 Gaussian 16, Revision A.03,
 Gaussian 16:  ES64L-G16RevA.03 25-Dec-2016

 --------------------
 #p ZINDO=(nstates=5)
 --------------------

 ------------------------------
 step_1501_chromophore_24 ZINDO
 ------------------------------
 Symbolic Z-matrix:
 Charge =  0 Multiplicity = 1

                         Standard orientation:
 ---------------------------------------------------------------------
 Center     Atomic      Atomic             Coordinates (Angstroms)
 Number     Number       Type             X           Y           Z
 ---------------------------------------------------------------------
      1         12           0       -4.853596    1.249484   -0.344309
      2          6           0       -4.491732   -2.206906    0.179445
      3          6           0       -1.316697    1.450459   -0.294643
      4          6           0       -5.074264    4.551862    0.048174
      5          6           0       -8.257008    0.958551    0.183401
      6          7           0       -3.067549   -0.250117   -0.081122
      7          6           0       -3.186109   -1.636179    0.054498
      8          6           0       -1.831923   -2.370708   -0.249392
      9          6           0       -0.852830   -1.169027   -0.179995
     10          6           0       -1.744156    0.126564   -0.163848
     11          6           0        0.183180   -1.153556    0.975473
     12          6           0       -1.963439   -3.090755   -1.637914
     13          6           0       -1.206747   -4.415055   -1.815165
     14          6           0       -0.162487   -4.813508   -0.831467
     15          8           0       -0.325664   -5.196812    0.333394
     16          8           0        1.121509   -4.700969   -1.362430
     17          7           0       -3.457679    2.712730   -0.308428
     18          6           0       -2.091415    2.592323   -0.295555
     19          6           0       -1.472238    3.954821   -0.199881
     20          6           0       -2.549292    4.854083   -0.227017
     21          6           0       -3.742913    4.025763   -0.132976
     22          6           0       -0.032232    4.281459   -0.214181
     23          6           0       -2.512444    6.376361   -0.271405
     24          8           0       -3.577449    7.011522   -0.451959
     25          6           0       -1.253550    7.255570   -0.088747
     26          7           0       -6.582319    2.642375   -0.338045
     27          6           0       -6.390340    3.921376    0.091168
     28          6           0       -7.772833    4.612197    0.432759
     29          6           0       -8.774571    3.400318    0.296607
     30          6           0       -7.756428    2.232278    0.057861
     31          6           0       -7.895133    5.259978    1.911215
     32          6           0       -9.798589    3.654810   -0.840671
     33          6           0       -9.466918    3.154138   -2.244397
     34          7           0       -6.205188   -0.260377    0.158552
     35          6           0       -7.585342   -0.289478    0.283081
     36          6           0       -8.032854   -1.605797    0.537041
     37          6           0       -6.885183   -2.371046    0.471617
     38          6           0       -5.753648   -1.474035    0.296300
     39          6           0       -9.444592   -2.134964    0.790835
     40          6           0       -6.444524   -3.703839    0.521062
     41          8           0       -7.051318   -4.750588    0.728294
     42          6           0       -4.864943   -3.679155    0.335505
     43          6           0       -4.205710   -4.447877    1.426086
     44          8           0       -4.069297   -4.109676    2.570031
     45          8           0       -3.977125   -5.706446    0.953133
     46          6           0       -3.529884   -6.679983    1.886351
     47          6           0        2.307420   -5.077332   -0.612272
     48          6           0        3.307988   -4.010294   -0.512423
     49          6           0        4.593789   -4.066386   -0.029185
     50          6           0        5.215455   -5.380889    0.443460
     51          6           0        5.450847   -2.844465    0.020933
     52          6           0        6.429724   -2.591558   -1.116161
     53          6           0        6.208376   -1.182380   -1.800739
     54          6           0        7.470338   -0.254740   -1.738274
     55          6           0        7.246406    0.864046   -2.721631
     56          6           0        7.973175    0.211899   -0.423006
     57          6           0        9.407854   -0.356130   -0.149946
     58          6           0       10.424363   -0.047083   -1.256087
     59          6           0       11.640882    0.776402   -0.768615
     60          6           0       12.534390    1.085787   -2.086368
     61          6           0       12.507523    0.083703    0.294403
     62          6           0       12.652185    0.766938    1.658367
     63          6           0       13.675427    1.918075    1.481396
     64          6           0       13.298905    3.252542    2.304406
     65          6           0       12.662915    4.308207    1.425155
     66          6           0       14.511246    3.915902    2.904583
     67          1           0       -0.229144    1.498303   -0.377622
     68          1           0       -5.095687    5.613392    0.300819
     69          1           0       -9.326911    0.878342    0.391335
     70          1           0       -1.696267   -3.134461    0.515528
     71          1           0       -0.252065   -1.050666   -1.081551
     72          1           0       -0.285606   -1.466240    1.908609
     73          1           0        0.717690   -0.212576    1.106980
     74          1           0        0.960554   -1.861062    0.684213
     75          1           0       -1.662135   -2.347948   -2.376667
     76          1           0       -3.014252   -3.321273   -1.813658
     77          1           0       -0.655709   -4.325844   -2.751035
     78          1           0       -1.923275   -5.216377   -1.993179
     79          1           0        0.318150    4.844607   -1.079219
     80          1           0        0.573130    3.375287   -0.251824
     81          1           0        0.239128    4.897959    0.642683
     82          1           0       -0.752292    7.213793   -1.055340
     83          1           0       -0.672688    6.934452    0.775556
     84          1           0       -1.424132    8.320849    0.067551
     85          1           0       -8.080589    5.360406   -0.297682
     86          1           0       -9.291247    3.119221    1.214782
     87          1           0       -7.064273    5.088517    2.595705
     88          1           0       -8.821055    4.883615    2.345153
     89          1           0       -7.945256    6.328854    1.701347
     90          1           0      -10.199535    4.664912   -0.928066
     91          1           0      -10.629064    3.027612   -0.516901
     92          1           0       -8.464425    3.292133   -2.650217
     93          1           0      -10.101736    3.791059   -2.860896
     94          1           0       -9.808438    2.134498   -2.420545
     95          1           0       -9.993630   -1.431949    1.418058
     96          1           0       -9.559627   -3.121088    1.241960
     97          1           0      -10.053565   -2.244848   -0.106349
     98          1           0       -4.757465   -4.065190   -0.677753
     99          1           0       -4.157643   -7.539192    1.649737
    100          1           0       -3.632477   -6.319479    2.909671
    101          1           0       -2.473740   -6.934474    1.790288
    102          1           0        2.676946   -5.940199   -1.167273
    103          1           0        2.076781   -5.396639    0.403880
    104          1           0        2.984685   -3.012253   -0.810323
    105          1           0        4.541359   -6.167241    0.104746
    106          1           0        5.416061   -5.411453    1.514184
    107          1           0        6.179721   -5.496140   -0.051502
    108          1           0        6.082743   -3.010496    0.894310
    109          1           0        4.816611   -2.004558    0.303061
    110          1           0        6.268303   -3.260695   -1.961501
    111          1           0        7.459505   -2.689485   -0.772671
    112          1           0        5.310741   -0.712452   -1.398399
    113          1           0        5.973459   -1.396974   -2.843703
    114          1           0        8.263695   -0.835253   -2.209476
    115          1           0        7.732790    0.666798   -3.677567
    116          1           0        7.795866    1.739165   -2.373643
    117          1           0        6.220590    1.184892   -2.903128
    118          1           0        7.369319   -0.317481    0.314392
    119          1           0        7.832667    1.266767   -0.188374
    120          1           0        9.442650   -1.422786    0.072497
    121          1           0        9.717793    0.062422    0.808036
    122          1           0        9.948679    0.614210   -1.979935
    123          1           0       10.667288   -0.996036   -1.734707
    124          1           0       11.315079    1.757628   -0.425257
    125          1           0       13.552029    0.698980   -2.045701
    126          1           0       12.469428    2.172019   -2.149595
    127          1           0       12.087834    0.620124   -2.965583
    128          1           0       13.515944   -0.139881   -0.054144
    129          1           0       12.050379   -0.862098    0.583048
    130          1           0       12.998368    0.041703    2.394853
    131          1           0       11.646243    1.026625    1.987105
    132          1           0       13.793015    2.100657    0.413523
    133          1           0       14.638450    1.482961    1.750772
    134          1           0       12.639275    2.882620    3.088584
    135          1           0       12.366258    5.254895    1.876613
    136          1           0       11.815374    3.824386    0.940613
    137          1           0       13.372663    4.495309    0.618860
    138          1           0       15.192986    4.243905    2.120477
    139          1           0       14.970202    3.309030    3.685592
    140          1           0       14.324030    4.909837    3.311878
 ---------------------------------------------------------------------

 SCF Done:  E(RZINDO/S) =  -474.305749179     A.U. after   19 cycles

 Excitation energies and oscillator strengths:

 Excited State   1:      Singlet-A      1.2323 eV 1006.13 nm  f=0.5467  <S**2>=0.000
     175 ->178         0.17543
     176 ->177         0.66671
 This state for optimization and/or second-order correction.
 Total Energy, E(CIS/TDA) =  -474.260463538
 Copying the excited state density for this state as the 1-particle RhoCI density.

 Excited State   2:      Singlet-A      1.8810 eV  659.15 nm  f=0.0452  <S**2>=0.000
     175 ->177         0.54625
     176 ->178        -0.41850

 Excited State   3:      Singlet-A      2.8287 eV  438.31 nm  f=0.0954  <S**2>=0.000
     168 ->177        -0.26352
     168 ->178         0.15385
     168 ->179         0.43204
     168 ->181        -0.18777
     168 ->184        -0.12571
     168 ->186        -0.16892
     175 ->177         0.12164
     176 ->178         0.19067
     176 ->179         0.16582

 Excited State   4:      Singlet-A      2.9384 eV  421.95 nm  f=0.5719  <S**2>=0.000
     171 ->177         0.16279
     171 ->179         0.12342
     171 ->181         0.20174
     173 ->177        -0.11963
     175 ->177         0.30142
     176 ->178         0.39599
     176 ->179        -0.17336
     176 ->181        -0.16300

 Excited State   5:      Singlet-A      2.9589 eV  419.02 nm  f=0.2059  <S**2>=0.000
     168 ->179        -0.17078
     171 ->177        -0.10912
     171 ->181        -0.14087
     175 ->177         0.16517
     176 ->178         0.26523
     176 ->179         0.44728
     176 ->181         0.13006
     176 ->182         0.13833

 The electronic state is 1-A.
 Alpha  occ. eigenvalues --   -1.83943  -1.81304  -1.78562  -1.73344  -1.72607
 Alpha  occ. eigenvalues --   -1.69513  -1.67844  -1.61863  -1.57626  -1.57536
 Alpha  occ. eigenvalues --   -1.55374  -1.51699  -1.48646  -1.47102  -1.46210
 Alpha  occ. eigenvalues --   -1.43166  -1.42416  -1.40340  -1.39186  -1.37191
 Alpha  occ. eigenvalues --   -1.35392  -1.34187  -1.33075  -1.31399  -1.29856
 Alpha  occ. eigenvalues --   -1.29094  -1.23862  -1.22100  -1.21217  -1.17816
 Alpha  occ. eigenvalues --   -1.16162  -1.15181  -1.14590  -1.14281  -1.13807
 Alpha  occ. eigenvalues --   -1.12408  -1.12160  -1.10953  -1.04876  -1.03348
 Alpha  occ. eigenvalues --   -1.02778  -1.00704  -0.98427  -0.97426  -0.96792
 Alpha  occ. eigenvalues --   -0.95903  -0.95716  -0.94697  -0.93520  -0.93429
 Alpha  occ. eigenvalues --   -0.91725  -0.89780  -0.89065  -0.87820  -0.86723
 Alpha  occ. eigenvalues --   -0.85406  -0.84351  -0.83389  -0.81344  -0.81112
 Alpha  occ. eigenvalues --   -0.80060  -0.78562  -0.78414  -0.77167  -0.75545
 Alpha  occ. eigenvalues --   -0.75165  -0.74963  -0.74774  -0.73901  -0.73688
 Alpha  occ. eigenvalues --   -0.73126  -0.72736  -0.72289  -0.71750  -0.71201
 Alpha  occ. eigenvalues --   -0.70964  -0.69559  -0.69038  -0.68640  -0.67872
 Alpha  occ. eigenvalues --   -0.67441  -0.66840  -0.66725  -0.66346  -0.66199
 Alpha  occ. eigenvalues --   -0.65663  -0.64321  -0.64078  -0.63637  -0.63577
 Alpha  occ. eigenvalues --   -0.63188  -0.62932  -0.62537  -0.62299  -0.61973
 Alpha  occ. eigenvalues --   -0.61299  -0.60606  -0.60575  -0.60317  -0.59755
 Alpha  occ. eigenvalues --   -0.59380  -0.59227  -0.58880  -0.58384  -0.58104
 Alpha  occ. eigenvalues --   -0.57925  -0.57182  -0.57091  -0.57026  -0.56446
 Alpha  occ. eigenvalues --   -0.56182  -0.55570  -0.55357  -0.55107  -0.54880
 Alpha  occ. eigenvalues --   -0.54647  -0.54128  -0.53985  -0.53203  -0.52542
 Alpha  occ. eigenvalues --   -0.52369  -0.51986  -0.51649  -0.51512  -0.51435
 Alpha  occ. eigenvalues --   -0.51368  -0.51022  -0.50538  -0.50357  -0.50045
 Alpha  occ. eigenvalues --   -0.49765  -0.49551  -0.49362  -0.49136  -0.48473
 Alpha  occ. eigenvalues --   -0.48319  -0.48114  -0.47806  -0.47593  -0.47480
 Alpha  occ. eigenvalues --   -0.47427  -0.47138  -0.46945  -0.46801  -0.46352
 Alpha  occ. eigenvalues --   -0.46332  -0.46253  -0.45940  -0.45919  -0.45108
 Alpha  occ. eigenvalues --   -0.44849  -0.44712  -0.44593  -0.44442  -0.44089
 Alpha  occ. eigenvalues --   -0.43889  -0.43823  -0.42902  -0.42130  -0.41782
 Alpha  occ. eigenvalues --   -0.41545  -0.41189  -0.40254  -0.39168  -0.38496
 Alpha  occ. eigenvalues --   -0.37384  -0.37003  -0.36115  -0.34649  -0.34177
 Alpha  occ. eigenvalues --   -0.33474  -0.32002  -0.31760  -0.31663  -0.26302
 Alpha  occ. eigenvalues --   -0.21457
 Alpha virt. eigenvalues --   -0.08222  -0.01919  -0.00746   0.01293   0.01485
 Alpha virt. eigenvalues --    0.01842   0.03083   0.03884   0.04326   0.04719
 Alpha virt. eigenvalues --    0.06277   0.06705   0.07080   0.07761   0.08179

 Mulliken charges:
               1
     1  Mg   0.439924
     2  C   -0.043792
     3  C   -0.079572
     4  C   -0.089004
     5  C   -0.073762
     6  N   -0.305895
     7  C    0.083668
     8  C    0.012228
     9  C    0.016629
    10  C    0.144600
    11  C   -0.048239
    12  C   -0.015214
    13  C    0.011972
    14  C    0.476325
    15  O   -0.521359
    16  O   -0.288608
    17  N   -0.314986
    18  C    0.136554
    19  C    0.018380
    20  C   -0.031031
    21  C    0.160691
    22  C   -0.037195
    23  C    0.321929
    24  O   -0.525613
    25  C   -0.025354
    26  N   -0.251138
    27  C    0.150584
    28  C   -0.000205
    29  C   -0.009653
    30  C    0.118849
    31  C   -0.057818
    32  C   -0.024163
    33  C   -0.054649
    34  N   -0.294917
    35  C    0.066273
    36  C    0.026766
    37  C   -0.061424
    38  C    0.102064
    39  C   -0.040554
    40  C    0.328916
    41  O   -0.538703
    42  C    0.050314
    43  C    0.498026
    44  O   -0.511453
    45  O   -0.266321
    46  C    0.074110
    47  C    0.119913
    48  C   -0.087054
    49  C   -0.018722
    50  C   -0.045556
    51  C   -0.013522
    52  C   -0.031697
    53  C   -0.039773
    54  C   -0.000953
    55  C   -0.058375
    56  C   -0.024436
    57  C   -0.039442
    58  C   -0.028708
    59  C   -0.012418
    60  C   -0.073678
    61  C   -0.032222
    62  C   -0.037688
    63  C   -0.039937
    64  C   -0.005286
    65  C   -0.050885
    66  C   -0.056045
    67  H    0.026188
    68  H    0.045002
    69  H    0.015479
    70  H    0.053372
    71  H    0.023327
    72  H    0.033407
    73  H    0.020675
    74  H    0.016938
    75  H    0.024988
    76  H    0.028495
    77  H    0.023391
    78  H    0.049735
    79  H    0.031119
    80  H    0.022068
    81  H    0.033421
    82  H    0.041230
    83  H    0.032921
    84  H    0.039794
    85  H    0.044190
    86  H    0.031125
    87  H    0.031375
    88  H    0.026296
    89  H    0.020600
    90  H    0.026365
    91  H    0.008997
    92  H    0.028309
    93  H    0.004522
    94  H    0.023790
    95  H    0.016958
    96  H    0.036475
    97  H    0.025134
    98  H    0.049677
    99  H    0.034356
   100  H    0.050778
   101  H    0.037264
   102  H    0.040350
   103  H    0.060107
   104  H    0.025204
   105  H    0.023321
   106  H    0.035728
   107  H    0.022893
   108  H    0.009419
   109  H    0.025148
   110  H    0.019559
   111  H    0.026139
   112  H    0.021429
   113  H    0.012986
   114  H    0.017995
   115  H    0.012904
   116  H    0.005588
   117  H    0.020659
   118  H    0.002120
   119  H    0.032331
   120  H    0.020150
   121  H    0.007846
   122  H    0.016296
   123  H    0.025878
   124  H    0.026694
   125  H    0.025360
   126  H    0.019933
   127  H    0.017305
   128  H    0.020104
   129  H    0.004230
   130  H    0.014896
   131  H    0.020291
   132  H    0.021933
   133  H    0.018044
   134  H    0.022181
   135  H    0.026790
   136  H    0.006702
   137  H    0.017054
   138  H    0.018308
   139  H    0.016436
   140  H    0.010232
 Sum of Mulliken charges =   0.00000

 Dipole moment (field-independent basis, Debye):
    X=              9.6649    Y=              5.1769    Z=             -4.6612  Tot=             11.9137
 N-N= 4.345157048885D+03 E-N= 0.000000000000D+00  KE=-9.364880481693D+03
 Leave Link  601 at Thu Apr 28 08:15:02 2022, MaxMem=  6710886400 cpu:               0.8 elap:               0.0
 (Enter /sw/apps/gaussian-16.0/g16/l9999.exe)
 1\1\GINC-BP1-COMPUTE139\SP\RZINDO CIS\STO-3G\C55H74Mg1N4O6\OF15641\28-
 Apr-2022\0\\#p ZINDO=(nstates=5)\\step_1501_chromophore_24 ZINDO\\0,1\
 Mg,0,-0.152,43.434,25.745\C,0,2.098,42.828,28.376\C,0,-2.751,42.631,28
 .015\C,0,-2.256,43.114,23.18\C,0,2.503,43.644,23.542\N,0,-0.306,42.788
 ,27.996\C,0,0.769,42.674,28.882\C,0,0.295,42.678,30.379\C,0,-1.22,42.4
 07,30.182\C,0,-1.505,42.588,28.646\C,0,-1.781,41.057,30.703\C,0,0.685,
 44.059,31.015\C,0,1.06,44.064,32.504\C,0,0.758,42.878,33.352\O,0,1.314

 Normal termination of Gaussian 16 at Thu Apr 28 08:15:02 2022.
