 Gaussian 16, Revision A.03,
 Gaussian 16:  ES64L-G16RevA.03 25-Dec-2016

 ------------------------------
 #p blyp/Def2SVP td=(nstates=5)
 ------------------------------

 --------------------------------------------------
 step_351_chromophore_10 TDDFT with blyp functional
 --------------------------------------------------
 Symbolic Z-matrix:
 Charge =  0 Multiplicity = 1

                         Standard orientation:
 ---------------------------------------------------------------------
 Center     Atomic      Atomic             Coordinates (Angstroms)
 Number     Number       Type             X           Y           Z
 ---------------------------------------------------------------------
      1         12           0        6.033226    0.535819   -0.158141
      2          6           0        3.609082   -2.065374   -0.405223
      3          6           0        3.880003    2.662390   -1.553426
      4          6           0        8.426860    2.819283    0.154410
      5          6           0        8.374406   -2.037196    0.997009
      6          7           0        4.046269    0.252536   -1.078381
      7          6           0        3.159719   -0.789060   -0.857213
      8          6           0        1.746549   -0.399637   -1.271332
      9          6           0        1.973791    0.995772   -1.921168
     10          6           0        3.424163    1.358484   -1.469176
     11          6           0        1.782307    1.086378   -3.402005
     12          6           0        0.582088   -0.544060   -0.255778
     13          6           0       -0.448982   -1.648210   -0.365061
     14          6           0       -1.797150   -1.542908    0.303668
     15          8           0       -2.179884   -0.500367    0.848491
     16          8           0       -2.514425   -2.787697    0.325257
     17          7           0        6.155845    2.512931   -0.582395
     18          6           0        5.118484    3.244334   -1.088262
     19          6           0        5.495607    4.621080   -1.066378
     20          6           0        6.849876    4.737423   -0.513999
     21          6           0        7.206113    3.327483   -0.265107
     22          6           0        4.579860    5.811670   -1.391159
     23          6           0        7.702131    6.052164   -0.211402
     24          8           0        8.854315    5.950258    0.206408
     25          6           0        7.083835    7.432358   -0.283606
     26          7           0        8.089437    0.367078    0.461801
     27          6           0        8.851308    1.526957    0.470750
     28          6           0       10.273932    1.254098    0.767110
     29          6           0       10.179168   -0.242375    1.339434
     30          6           0        8.797232   -0.686535    0.907952
     31          6           0       11.266842    1.450052   -0.492698
     32          6           0       10.344403   -0.274965    2.916792
     33          6           0        9.191966    0.357697    3.795237
     34          7           0        6.110427   -1.651300    0.193627
     35          6           0        7.126659   -2.567417    0.603851
     36          6           0        6.524788   -3.900252    0.633678
     37          6           0        5.186928   -3.741776    0.423361
     38          6           0        4.938867   -2.355811    0.052136
     39          6           0        7.252515   -5.196810    0.937961
     40          6           0        3.980570   -4.403704    0.441983
     41          8           0        3.586483   -5.545004    0.753389
     42          6           0        2.858463   -3.400399   -0.006371
     43          6           0        2.038867   -4.021591   -1.050734
     44          8           0        2.354519   -3.906579   -2.176460
     45          8           0        1.058990   -4.868871   -0.575745
     46          6           0        0.091009   -5.321136   -1.563366
     47          6           0       -3.723390   -2.950490    1.093969
     48          6           0       -4.994076   -2.636260    0.318677
     49          6           0       -6.188428   -3.255707    0.174605
     50          6           0       -6.494025   -4.568408    0.734325
     51          6           0       -7.064878   -2.711979   -0.815678
     52          6           0       -8.366371   -1.989370   -0.412683
     53          6           0       -8.183475   -0.505174   -0.046179
     54          6           0       -9.212303    0.535547   -0.587914
     55          6           0       -9.176798    0.772914   -2.121508
     56          6           0       -8.923226    1.895671    0.082205
     57          6           0      -10.329164    2.643197    0.296960
     58          6           0      -10.664588    2.874752    1.783270
     59          6           0      -12.068715    3.541225    1.921407
     60          6           0      -12.113825    4.076691    3.354744
     61          6           0      -13.220386    2.460795    1.776208
     62          6           0      -14.006426    2.624959    0.512974
     63          6           0      -13.999243    1.278442   -0.365389
     64          6           0      -15.405103    0.702511   -0.623638
     65          6           0      -15.946359   -0.042344    0.656909
     66          6           0      -15.509413   -0.193221   -1.854928
     67          1           0        3.176415    3.393952   -1.955367
     68          1           0        9.283172    3.495751    0.191489
     69          1           0        9.095964   -2.809834    1.268157
     70          1           0        1.657095   -1.137889   -2.067559
     71          1           0        1.358499    1.756782   -1.438687
     72          1           0        2.611010    1.589177   -3.900411
     73          1           0        0.914134    1.717467   -3.592648
     74          1           0        1.549769    0.118420   -3.844923
     75          1           0        0.027247    0.393654   -0.298663
     76          1           0        1.014256   -0.745574    0.724359
     77          1           0        0.013161   -2.553008    0.028982
     78          1           0       -0.554881   -1.906222   -1.418886
     79          1           0        4.552938    6.610946   -0.649408
     80          1           0        3.606699    5.346315   -1.542408
     81          1           0        5.038703    6.284684   -2.259104
     82          1           0        6.206156    7.399898    0.362827
     83          1           0        6.599067    7.515713   -1.256477
     84          1           0        7.725529    8.239267    0.069621
     85          1           0       10.596329    1.842473    1.626043
     86          1           0       10.841058   -0.929526    0.813048
     87          1           0       10.904938    2.273213   -1.107871
     88          1           0       11.266412    0.473537   -0.978167
     89          1           0       12.331101    1.603453   -0.315629
     90          1           0       11.236062    0.330923    3.074958
     91          1           0       10.615370   -1.192432    3.439977
     92          1           0        8.432058    0.602926    3.052946
     93          1           0        9.414407    1.255170    4.372687
     94          1           0        8.874356   -0.481373    4.414509
     95          1           0        6.754436   -5.951691    0.328998
     96          1           0        7.266045   -5.456896    1.996685
     97          1           0        8.290065   -5.067311    0.629596
     98          1           0        2.321686   -3.126040    0.901385
     99          1           0       -0.445363   -6.080620   -0.992968
    100          1           0        0.621873   -5.746080   -2.414420
    101          1           0       -0.566694   -4.565309   -1.993429
    102          1           0       -3.662512   -2.519818    2.092888
    103          1           0       -3.829630   -4.020314    1.273983
    104          1           0       -4.931711   -1.710344   -0.253416
    105          1           0       -6.107390   -5.323445    0.049842
    106          1           0       -7.556166   -4.744498    0.908423
    107          1           0       -5.921577   -4.733212    1.646523
    108          1           0       -7.213233   -3.567568   -1.474356
    109          1           0       -6.536452   -2.023912   -1.475884
    110          1           0       -8.625650   -2.460739    0.535295
    111          1           0       -9.217288   -2.080900   -1.087535
    112          1           0       -7.186371   -0.113527   -0.252619
    113          1           0       -8.327435   -0.422909    1.030828
    114          1           0      -10.268584    0.307454   -0.451438
    115          1           0       -9.118254    1.824572   -2.404226
    116          1           0      -10.129010    0.450859   -2.541814
    117          1           0       -8.496272    0.126581   -2.676747
    118          1           0       -8.169424    2.428964   -0.495988
    119          1           0       -8.403140    1.813801    1.036250
    120          1           0      -11.104899    2.096504   -0.239822
    121          1           0      -10.322936    3.594481   -0.234710
    122          1           0       -9.834544    3.361003    2.296379
    123          1           0      -10.638247    1.837082    2.116065
    124          1           0      -12.247498    4.383313    1.253734
    125          1           0      -11.215424    3.878869    3.939897
    126          1           0      -13.033392    3.817388    3.881325
    127          1           0      -12.130802    5.163812    3.283828
    128          1           0      -13.935257    2.400856    2.597678
    129          1           0      -12.871503    1.428515    1.793886
    130          1           0      -13.499268    3.398217   -0.064189
    131          1           0      -14.999723    2.897674    0.872240
    132          1           0      -13.593834    0.368286    0.076795
    133          1           0      -13.429839    1.459568   -1.277461
    134          1           0      -15.896913    1.668476   -0.730576
    135          1           0      -16.596382    0.645640    1.198930
    136          1           0      -15.126814   -0.464368    1.238447
    137          1           0      -16.667572   -0.808234    0.371697
    138          1           0      -14.649965   -0.114896   -2.519195
    139          1           0      -16.434375    0.021647   -2.389555
    140          1           0      -15.564758   -1.204195   -1.451452
 ---------------------------------------------------------------------

 SCF Done:  E(RB-LYP) =  -3007.33756379     A.U. after   22 cycles

 Excitation energies and oscillator strengths:

 Excited State   1:      Singlet-A      1.7733 eV  699.18 nm  f=0.0775  <S**2>=0.000
     244 -> 247        0.55345
     245 -> 247        0.22955
     246 -> 247       -0.36578
 This state for optimization and/or second-order correction.
 Total Energy, E(TD-HF/TD-DFT) =  -3007.27239680
 Copying the excited state density for this state as the 1-particle RhoCI density.

 Excited State   2:      Singlet-A      1.8066 eV  686.29 nm  f=0.2509  <S**2>=0.000
     244 -> 247        0.35203
     245 -> 247        0.12061
     245 -> 248       -0.16326
     246 -> 247        0.58588
     246 <- 247       -0.13192

 Excited State   3:      Singlet-A      1.9727 eV  628.50 nm  f=0.0675  <S**2>=0.000
     243 -> 247        0.12414
     244 -> 247       -0.25345
     245 -> 247        0.59471
     246 -> 248        0.22273

 Excited State   4:      Singlet-A      2.0118 eV  616.28 nm  f=0.0018  <S**2>=0.000
     243 -> 247        0.69562
     245 -> 247       -0.10565

 Excited State   5:      Singlet-A      2.2032 eV  562.75 nm  f=0.0000  <S**2>=0.000
     242 -> 247        0.70710

 The electronic state is 1-A.
 Alpha  occ. eigenvalues --  -46.27706 -18.81881 -18.81231 -18.77683 -18.76618
 Alpha  occ. eigenvalues --  -18.76109 -18.75065 -14.03572 -14.03228 -14.01324
 Alpha  occ. eigenvalues --  -14.00854 -10.05185 -10.03117 -10.01034  -9.99035
 Alpha  occ. eigenvalues --   -9.98079  -9.97559  -9.97088  -9.96608  -9.96452
 Alpha  occ. eigenvalues --   -9.96095  -9.96064  -9.95973  -9.95963  -9.95234
 Alpha  occ. eigenvalues --   -9.94441  -9.94268  -9.94092  -9.94086  -9.94036
 Alpha  occ. eigenvalues --   -9.94009  -9.93933  -9.93710  -9.93663  -9.93460
 Alpha  occ. eigenvalues --   -9.93439  -9.93363  -9.93321  -9.93308  -9.92961
 Alpha  occ. eigenvalues --   -9.92924  -9.92800  -9.92601  -9.92326  -9.92258
 Alpha  occ. eigenvalues --   -9.92124  -9.92104  -9.92079  -9.91773  -9.91652
 Alpha  occ. eigenvalues --   -9.91591  -9.91524  -9.91311  -9.91176  -9.91172
 Alpha  occ. eigenvalues --   -9.91130  -9.91112  -9.91052  -9.90936  -9.90909
 Alpha  occ. eigenvalues --   -9.90882  -9.90706  -9.90666  -9.90407  -9.90290
 Alpha  occ. eigenvalues --   -9.90036  -2.92197  -1.72633  -1.72059  -1.71925
 Alpha  occ. eigenvalues --   -0.98433  -0.96089  -0.91548  -0.91045  -0.89846
 Alpha  occ. eigenvalues --   -0.89815  -0.86748  -0.86154  -0.85402  -0.84108
 Alpha  occ. eigenvalues --   -0.74765  -0.74723  -0.73263  -0.72904  -0.72003
 Alpha  occ. eigenvalues --   -0.71822  -0.71234  -0.71040  -0.70767  -0.70133
 Alpha  occ. eigenvalues --   -0.69887  -0.69587  -0.67904  -0.67491  -0.66974
 Alpha  occ. eigenvalues --   -0.66415  -0.65835  -0.65558  -0.65147  -0.64699
 Alpha  occ. eigenvalues --   -0.63918  -0.62943  -0.62424  -0.61551  -0.61348
 Alpha  occ. eigenvalues --   -0.60696  -0.60136  -0.59932  -0.59126  -0.59065
 Alpha  occ. eigenvalues --   -0.58428  -0.57936  -0.57021  -0.56090  -0.54701
 Alpha  occ. eigenvalues --   -0.54420  -0.53653  -0.52571  -0.51973  -0.51614
 Alpha  occ. eigenvalues --   -0.51228  -0.50838  -0.50750  -0.50204  -0.50169
 Alpha  occ. eigenvalues --   -0.49177  -0.48693  -0.48582  -0.48238  -0.46653
 Alpha  occ. eigenvalues --   -0.46496  -0.46392  -0.45555  -0.45072  -0.44642
 Alpha  occ. eigenvalues --   -0.44422  -0.44030  -0.42955  -0.42709  -0.42552
 Alpha  occ. eigenvalues --   -0.42295  -0.42173  -0.41584  -0.41458  -0.41348
 Alpha  occ. eigenvalues --   -0.40926  -0.40749  -0.40436  -0.40276  -0.40108
 Alpha  occ. eigenvalues --   -0.39785  -0.39720  -0.39566  -0.39203  -0.39062
 Alpha  occ. eigenvalues --   -0.38879  -0.38825  -0.38682  -0.38446  -0.38331
 Alpha  occ. eigenvalues --   -0.37985  -0.37957  -0.37886  -0.37437  -0.37202
 Alpha  occ. eigenvalues --   -0.37053  -0.36972  -0.36924  -0.36712  -0.36557
 Alpha  occ. eigenvalues --   -0.36433  -0.36421  -0.36233  -0.35796  -0.35693
 Alpha  occ. eigenvalues --   -0.35449  -0.35432  -0.35194  -0.35149  -0.34905
 Alpha  occ. eigenvalues --   -0.34452  -0.34280  -0.34021  -0.33924  -0.33766
 Alpha  occ. eigenvalues --   -0.33636  -0.33488  -0.33318  -0.33235  -0.33008
 Alpha  occ. eigenvalues --   -0.32887  -0.32724  -0.32479  -0.32341  -0.32162
 Alpha  occ. eigenvalues --   -0.31940  -0.31633  -0.31580  -0.31464  -0.31108
 Alpha  occ. eigenvalues --   -0.30954  -0.30828  -0.30778  -0.30468  -0.30245
 Alpha  occ. eigenvalues --   -0.30175  -0.30051  -0.30028  -0.29875  -0.29729
 Alpha  occ. eigenvalues --   -0.29646  -0.29391  -0.29191  -0.29007  -0.28839
 Alpha  occ. eigenvalues --   -0.28691  -0.28329  -0.28221  -0.28177  -0.27940
 Alpha  occ. eigenvalues --   -0.27718  -0.27648  -0.26786  -0.26617  -0.26354
 Alpha  occ. eigenvalues --   -0.26203  -0.25877  -0.25416  -0.25363  -0.25099
 Alpha  occ. eigenvalues --   -0.24645  -0.24569  -0.23949  -0.23916  -0.23112
 Alpha  occ. eigenvalues --   -0.23019  -0.22277  -0.22198  -0.21854  -0.20853
 Alpha  occ. eigenvalues --   -0.20380  -0.19965  -0.19185  -0.18347  -0.17438
 Alpha  occ. eigenvalues --   -0.16067
 Alpha virt. eigenvalues --   -0.11868  -0.07226  -0.06458  -0.04653  -0.03871
 Alpha virt. eigenvalues --   -0.02357  -0.02173  -0.01908  -0.01328  -0.00200
 Alpha virt. eigenvalues --    0.01071   0.01251   0.02532   0.02670   0.03178

 Mulliken charges:
               1
     1  Mg   0.671344
     2  C    0.039667
     3  C   -0.058590
     4  C   -0.040654
     5  C   -0.049708
     6  N   -0.205908
     7  C   -0.099467
     8  C    0.052009
     9  C   -0.047267
    10  C    0.041355
    11  C    0.158059
    12  C    0.176559
    13  C    0.045864
    14  C    0.130798
    15  O   -0.192480
    16  O   -0.302864
    17  N   -0.318746
    18  C    0.137929
    19  C   -0.160329
    20  C    0.009993
    21  C    0.120863
    22  C    0.153865
    23  C   -0.048701
    24  O   -0.164346
    25  C    0.148926
    26  N   -0.200655
    27  C   -0.015699
    28  C    0.053129
    29  C    0.032362
    30  C    0.016598
    31  C    0.114362
    32  C    0.059869
    33  C    0.042128
    34  N   -0.268827
    35  C    0.088235
    36  C   -0.181569
    37  C    0.168246
    38  C    0.033918
    39  C    0.170105
    40  C   -0.092547
    41  O   -0.155588
    42  C    0.034280
    43  C    0.099381
    44  O   -0.136225
    45  O   -0.268629
    46  C    0.224248
    47  C    0.360005
    48  C   -0.129164
    49  C   -0.154469
    50  C    0.149799
    51  C    0.134182
    52  C    0.152655
    53  C    0.078792
    54  C   -0.093382
    55  C    0.102713
    56  C    0.097699
    57  C    0.040335
    58  C    0.103472
    59  C   -0.049740
    60  C    0.123357
    61  C    0.092319
    62  C    0.085055
    63  C    0.022996
    64  C   -0.111835
    65  C    0.099099
    66  C    0.137743
    67  H   -0.066530
    68  H   -0.044335
    69  H   -0.063724
    70  H   -0.010344
    71  H   -0.026710
    72  H   -0.004365
    73  H   -0.017814
    74  H   -0.004467
    75  H   -0.007603
    76  H   -0.019014
    77  H    0.016679
    78  H    0.004611
    79  H   -0.001468
    80  H   -0.007369
    81  H    0.010270
    82  H    0.007031
    83  H   -0.005469
    84  H    0.008197
    85  H   -0.019989
    86  H   -0.033590
    87  H    0.009785
    88  H   -0.010141
    89  H   -0.003952
    90  H   -0.026467
    91  H   -0.019043
    92  H    0.009542
    93  H    0.005897
    94  H   -0.000504
    95  H    0.017382
    96  H    0.014689
    97  H   -0.013142
    98  H    0.004704
    99  H    0.019671
   100  H    0.008134
   101  H    0.007044
   102  H    0.003669
   103  H   -0.033376
   104  H   -0.032627
   105  H    0.005183
   106  H   -0.004616
   107  H   -0.010139
   108  H   -0.041735
   109  H   -0.039865
   110  H   -0.043788
   111  H   -0.029404
   112  H   -0.024445
   113  H   -0.034163
   114  H   -0.030140
   115  H   -0.011116
   116  H   -0.036345
   117  H   -0.019731
   118  H   -0.035611
   119  H   -0.044921
   120  H   -0.027247
   121  H   -0.048095
   122  H   -0.020979
   123  H   -0.029145
   124  H   -0.024784
   125  H   -0.017957
   126  H   -0.021084
   127  H   -0.035111
   128  H   -0.043401
   129  H   -0.041034
   130  H   -0.023542
   131  H   -0.019362
   132  H   -0.026789
   133  H   -0.021623
   134  H   -0.038029
   135  H   -0.016786
   136  H   -0.002918
   137  H   -0.020617
   138  H   -0.021161
   139  H   -0.009002
   140  H   -0.022684
 Sum of Mulliken charges =  -0.00000

 Dipole moment (field-independent basis, Debye):
    X=             -1.7660    Y=              1.7447    Z=             -0.3913  Tot=              2.5132
 Quadrupole moment (field-independent basis, Debye-Ang):
   XX=           -374.1714   YY=           -413.1547   ZZ=           -406.3783
   XY=              4.0877   XZ=              9.6396   YZ=             -6.8657

 Normal termination of Gaussian 16 at Fri Apr 29 14:22:59 2022.
