 Gaussian 16, Revision A.03,
 Gaussian 16:  ES64L-G16RevA.03 25-Dec-2016

 -----------------------------------
 #p cam-b3lyp/Def2SVP td=(nstates=5)
 -----------------------------------

 -------------------------------------------------------
 step_351_chromophore_10 TDDFT with cam-b3lyp functional
 -------------------------------------------------------
 Symbolic Z-matrix:
 Charge =  0 Multiplicity = 1

                         Standard orientation:
 ---------------------------------------------------------------------
 Center     Atomic      Atomic             Coordinates (Angstroms)
 Number     Number       Type             X           Y           Z
 ---------------------------------------------------------------------
      1         12           0        6.033226    0.535819   -0.158141
      2          6           0        3.609082   -2.065374   -0.405223
      3          6           0        3.880003    2.662390   -1.553426
      4          6           0        8.426860    2.819283    0.154410
      5          6           0        8.374406   -2.037196    0.997009
      6          7           0        4.046269    0.252536   -1.078381
      7          6           0        3.159719   -0.789060   -0.857213
      8          6           0        1.746549   -0.399637   -1.271332
      9          6           0        1.973791    0.995772   -1.921168
     10          6           0        3.424163    1.358484   -1.469176
     11          6           0        1.782307    1.086378   -3.402005
     12          6           0        0.582088   -0.544060   -0.255778
     13          6           0       -0.448982   -1.648210   -0.365061
     14          6           0       -1.797150   -1.542908    0.303668
     15          8           0       -2.179884   -0.500367    0.848491
     16          8           0       -2.514425   -2.787697    0.325257
     17          7           0        6.155845    2.512931   -0.582395
     18          6           0        5.118484    3.244334   -1.088262
     19          6           0        5.495607    4.621080   -1.066378
     20          6           0        6.849876    4.737423   -0.513999
     21          6           0        7.206113    3.327483   -0.265107
     22          6           0        4.579860    5.811670   -1.391159
     23          6           0        7.702131    6.052164   -0.211402
     24          8           0        8.854315    5.950258    0.206408
     25          6           0        7.083835    7.432358   -0.283606
     26          7           0        8.089437    0.367078    0.461801
     27          6           0        8.851308    1.526957    0.470750
     28          6           0       10.273932    1.254098    0.767110
     29          6           0       10.179168   -0.242375    1.339434
     30          6           0        8.797232   -0.686535    0.907952
     31          6           0       11.266842    1.450052   -0.492698
     32          6           0       10.344403   -0.274965    2.916792
     33          6           0        9.191966    0.357697    3.795237
     34          7           0        6.110427   -1.651300    0.193627
     35          6           0        7.126659   -2.567417    0.603851
     36          6           0        6.524788   -3.900252    0.633678
     37          6           0        5.186928   -3.741776    0.423361
     38          6           0        4.938867   -2.355811    0.052136
     39          6           0        7.252515   -5.196810    0.937961
     40          6           0        3.980570   -4.403704    0.441983
     41          8           0        3.586483   -5.545004    0.753389
     42          6           0        2.858463   -3.400399   -0.006371
     43          6           0        2.038867   -4.021591   -1.050734
     44          8           0        2.354519   -3.906579   -2.176460
     45          8           0        1.058990   -4.868871   -0.575745
     46          6           0        0.091009   -5.321136   -1.563366
     47          6           0       -3.723390   -2.950490    1.093969
     48          6           0       -4.994076   -2.636260    0.318677
     49          6           0       -6.188428   -3.255707    0.174605
     50          6           0       -6.494025   -4.568408    0.734325
     51          6           0       -7.064878   -2.711979   -0.815678
     52          6           0       -8.366371   -1.989370   -0.412683
     53          6           0       -8.183475   -0.505174   -0.046179
     54          6           0       -9.212303    0.535547   -0.587914
     55          6           0       -9.176798    0.772914   -2.121508
     56          6           0       -8.923226    1.895671    0.082205
     57          6           0      -10.329164    2.643197    0.296960
     58          6           0      -10.664588    2.874752    1.783270
     59          6           0      -12.068715    3.541225    1.921407
     60          6           0      -12.113825    4.076691    3.354744
     61          6           0      -13.220386    2.460795    1.776208
     62          6           0      -14.006426    2.624959    0.512974
     63          6           0      -13.999243    1.278442   -0.365389
     64          6           0      -15.405103    0.702511   -0.623638
     65          6           0      -15.946359   -0.042344    0.656909
     66          6           0      -15.509413   -0.193221   -1.854928
     67          1           0        3.176415    3.393952   -1.955367
     68          1           0        9.283172    3.495751    0.191489
     69          1           0        9.095964   -2.809834    1.268157
     70          1           0        1.657095   -1.137889   -2.067559
     71          1           0        1.358499    1.756782   -1.438687
     72          1           0        2.611010    1.589177   -3.900411
     73          1           0        0.914134    1.717467   -3.592648
     74          1           0        1.549769    0.118420   -3.844923
     75          1           0        0.027247    0.393654   -0.298663
     76          1           0        1.014256   -0.745574    0.724359
     77          1           0        0.013161   -2.553008    0.028982
     78          1           0       -0.554881   -1.906222   -1.418886
     79          1           0        4.552938    6.610946   -0.649408
     80          1           0        3.606699    5.346315   -1.542408
     81          1           0        5.038703    6.284684   -2.259104
     82          1           0        6.206156    7.399898    0.362827
     83          1           0        6.599067    7.515713   -1.256477
     84          1           0        7.725529    8.239267    0.069621
     85          1           0       10.596329    1.842473    1.626043
     86          1           0       10.841058   -0.929526    0.813048
     87          1           0       10.904938    2.273213   -1.107871
     88          1           0       11.266412    0.473537   -0.978167
     89          1           0       12.331101    1.603453   -0.315629
     90          1           0       11.236062    0.330923    3.074958
     91          1           0       10.615370   -1.192432    3.439977
     92          1           0        8.432058    0.602926    3.052946
     93          1           0        9.414407    1.255170    4.372687
     94          1           0        8.874356   -0.481373    4.414509
     95          1           0        6.754436   -5.951691    0.328998
     96          1           0        7.266045   -5.456896    1.996685
     97          1           0        8.290065   -5.067311    0.629596
     98          1           0        2.321686   -3.126040    0.901385
     99          1           0       -0.445363   -6.080620   -0.992968
    100          1           0        0.621873   -5.746080   -2.414420
    101          1           0       -0.566694   -4.565309   -1.993429
    102          1           0       -3.662512   -2.519818    2.092888
    103          1           0       -3.829630   -4.020314    1.273983
    104          1           0       -4.931711   -1.710344   -0.253416
    105          1           0       -6.107390   -5.323445    0.049842
    106          1           0       -7.556166   -4.744498    0.908423
    107          1           0       -5.921577   -4.733212    1.646523
    108          1           0       -7.213233   -3.567568   -1.474356
    109          1           0       -6.536452   -2.023912   -1.475884
    110          1           0       -8.625650   -2.460739    0.535295
    111          1           0       -9.217288   -2.080900   -1.087535
    112          1           0       -7.186371   -0.113527   -0.252619
    113          1           0       -8.327435   -0.422909    1.030828
    114          1           0      -10.268584    0.307454   -0.451438
    115          1           0       -9.118254    1.824572   -2.404226
    116          1           0      -10.129010    0.450859   -2.541814
    117          1           0       -8.496272    0.126581   -2.676747
    118          1           0       -8.169424    2.428964   -0.495988
    119          1           0       -8.403140    1.813801    1.036250
    120          1           0      -11.104899    2.096504   -0.239822
    121          1           0      -10.322936    3.594481   -0.234710
    122          1           0       -9.834544    3.361003    2.296379
    123          1           0      -10.638247    1.837082    2.116065
    124          1           0      -12.247498    4.383313    1.253734
    125          1           0      -11.215424    3.878869    3.939897
    126          1           0      -13.033392    3.817388    3.881325
    127          1           0      -12.130802    5.163812    3.283828
    128          1           0      -13.935257    2.400856    2.597678
    129          1           0      -12.871503    1.428515    1.793886
    130          1           0      -13.499268    3.398217   -0.064189
    131          1           0      -14.999723    2.897674    0.872240
    132          1           0      -13.593834    0.368286    0.076795
    133          1           0      -13.429839    1.459568   -1.277461
    134          1           0      -15.896913    1.668476   -0.730576
    135          1           0      -16.596382    0.645640    1.198930
    136          1           0      -15.126814   -0.464368    1.238447
    137          1           0      -16.667572   -0.808234    0.371697
    138          1           0      -14.649965   -0.114896   -2.519195
    139          1           0      -16.434375    0.021647   -2.389555
    140          1           0      -15.564758   -1.204195   -1.451452
 ---------------------------------------------------------------------

 SCF Done:  E(RCAM-B3LYP) =  -3007.12471375     A.U. after   19 cycles

 Excitation energies and oscillator strengths:

 Excited State   1:      Singlet-A      1.6806 eV  737.73 nm  f=0.4021  <S**2>=0.000
     245 -> 248       -0.17916
     246 -> 247        0.68562
     245 <- 248       -0.10778
 This state for optimization and/or second-order correction.
 Total Energy, E(TD-HF/TD-DFT) =  -3007.06295255
 Copying the excited state density for this state as the 1-particle RhoCI density.

 Excited State   2:      Singlet-A      2.1758 eV  569.83 nm  f=0.1056  <S**2>=0.000
     245 -> 247        0.64159
     246 -> 248        0.28226

 Excited State   3:      Singlet-A      3.2417 eV  382.47 nm  f=0.0092  <S**2>=0.000
     241 -> 247        0.41965
     241 -> 249       -0.27524
     241 -> 250        0.12466
     242 -> 247        0.34180
     242 -> 249       -0.10966
     243 -> 247       -0.25348
     246 -> 248       -0.13365

 Excited State   4:      Singlet-A      3.3349 eV  371.78 nm  f=0.0073  <S**2>=0.000
     241 -> 247        0.34247
     241 -> 249       -0.16091
     242 -> 247       -0.14083
     243 -> 247        0.55662

 Excited State   5:      Singlet-A      3.4186 eV  362.67 nm  f=0.2070  <S**2>=0.000
     241 -> 247        0.19268
     242 -> 247       -0.32581
     243 -> 247       -0.29937
     245 -> 247       -0.15945
     246 -> 248        0.47329

 The electronic state is 1-A.
 Alpha  occ. eigenvalues --  -46.89268 -19.24856 -19.24224 -19.20836 -19.19881
 Alpha  occ. eigenvalues --  -19.19220 -19.18411 -14.42285 -14.42226 -14.39685
 Alpha  occ. eigenvalues --  -14.39415 -10.40782 -10.38572 -10.36192 -10.34574
 Alpha  occ. eigenvalues --  -10.32333 -10.32143 -10.31112 -10.31108 -10.30747
 Alpha  occ. eigenvalues --  -10.30499 -10.30349 -10.30171 -10.30111 -10.29910
 Alpha  occ. eigenvalues --  -10.28999 -10.28734 -10.28344 -10.28308 -10.28139
 Alpha  occ. eigenvalues --  -10.28066 -10.28034 -10.27928 -10.27781 -10.27672
 Alpha  occ. eigenvalues --  -10.27626 -10.27441 -10.27203 -10.27131 -10.26878
 Alpha  occ. eigenvalues --  -10.26723 -10.26590 -10.26439 -10.26405 -10.26206
 Alpha  occ. eigenvalues --  -10.25879 -10.25803 -10.25714 -10.25402 -10.25373
 Alpha  occ. eigenvalues --  -10.25329 -10.25326 -10.25217 -10.25166 -10.24960
 Alpha  occ. eigenvalues --  -10.24832 -10.24745 -10.24719 -10.24623 -10.24621
 Alpha  occ. eigenvalues --  -10.24601 -10.24383 -10.24274 -10.24006 -10.23932
 Alpha  occ. eigenvalues --  -10.23596  -3.17659  -1.92575  -1.92095  -1.91975
 Alpha  occ. eigenvalues --   -1.17206  -1.14593  -1.09838  -1.09095  -1.08358
 Alpha  occ. eigenvalues --   -1.07761  -1.04435  -1.03842  -1.02832  -1.01809
 Alpha  occ. eigenvalues --   -0.91941  -0.91725  -0.90119  -0.89715  -0.88660
 Alpha  occ. eigenvalues --   -0.88534  -0.87871  -0.87595  -0.87348  -0.86782
 Alpha  occ. eigenvalues --   -0.86350  -0.86055  -0.84145  -0.83752  -0.83125
 Alpha  occ. eigenvalues --   -0.82467  -0.81898  -0.81467  -0.81058  -0.80486
 Alpha  occ. eigenvalues --   -0.79734  -0.78708  -0.78015  -0.77023  -0.76787
 Alpha  occ. eigenvalues --   -0.76132  -0.75387  -0.75256  -0.74347  -0.74324
 Alpha  occ. eigenvalues --   -0.73593  -0.73067  -0.71913  -0.70970  -0.69333
 Alpha  occ. eigenvalues --   -0.69141  -0.68197  -0.66899  -0.66342  -0.65795
 Alpha  occ. eigenvalues --   -0.65198  -0.64997  -0.64861  -0.64223  -0.64187
 Alpha  occ. eigenvalues --   -0.63081  -0.62539  -0.62451  -0.61968  -0.60311
 Alpha  occ. eigenvalues --   -0.60107  -0.59918  -0.59040  -0.58832  -0.58164
 Alpha  occ. eigenvalues --   -0.57912  -0.57420  -0.56191  -0.55821  -0.55612
 Alpha  occ. eigenvalues --   -0.55397  -0.55245  -0.54682  -0.54332  -0.54068
 Alpha  occ. eigenvalues --   -0.53938  -0.53656  -0.53421  -0.53170  -0.53016
 Alpha  occ. eigenvalues --   -0.52742  -0.52374  -0.52130  -0.52085  -0.51720
 Alpha  occ. eigenvalues --   -0.51332  -0.51299  -0.51215  -0.51007  -0.50794
 Alpha  occ. eigenvalues --   -0.50627  -0.50178  -0.50125  -0.49793  -0.49589
 Alpha  occ. eigenvalues --   -0.49398  -0.49264  -0.49152  -0.48961  -0.48785
 Alpha  occ. eigenvalues --   -0.48628  -0.48520  -0.48468  -0.48230  -0.48046
 Alpha  occ. eigenvalues --   -0.47534  -0.47370  -0.47303  -0.46908  -0.46827
 Alpha  occ. eigenvalues --   -0.46344  -0.46180  -0.45955  -0.45817  -0.45574
 Alpha  occ. eigenvalues --   -0.45344  -0.45245  -0.45189  -0.45021  -0.44876
 Alpha  occ. eigenvalues --   -0.44731  -0.44472  -0.44053  -0.43926  -0.43640
 Alpha  occ. eigenvalues --   -0.43561  -0.43284  -0.43026  -0.42973  -0.42856
 Alpha  occ. eigenvalues --   -0.42580  -0.42277  -0.42172  -0.42111  -0.41794
 Alpha  occ. eigenvalues --   -0.41695  -0.41526  -0.41415  -0.41303  -0.41017
 Alpha  occ. eigenvalues --   -0.40916  -0.40639  -0.40375  -0.40296  -0.39914
 Alpha  occ. eigenvalues --   -0.39767  -0.39387  -0.39342  -0.39290  -0.38837
 Alpha  occ. eigenvalues --   -0.38624  -0.38540  -0.37634  -0.37529  -0.37419
 Alpha  occ. eigenvalues --   -0.36792  -0.36579  -0.36508  -0.36114  -0.36071
 Alpha  occ. eigenvalues --   -0.35981  -0.35719  -0.34475  -0.34412  -0.34363
 Alpha  occ. eigenvalues --   -0.34002  -0.33541  -0.33269  -0.31540  -0.31270
 Alpha  occ. eigenvalues --   -0.30720  -0.30134  -0.29613  -0.29485  -0.24249
 Alpha  occ. eigenvalues --   -0.21328
 Alpha virt. eigenvalues --   -0.09085  -0.02068  -0.00130   0.02351   0.02969
 Alpha virt. eigenvalues --    0.03913   0.04959   0.05449   0.05613   0.06687
 Alpha virt. eigenvalues --    0.07580   0.08454   0.08614   0.09006   0.09503

 Mulliken charges:
               1
     1  Mg   0.803920
     2  C    0.018990
     3  C   -0.071888
     4  C   -0.050517
     5  C   -0.053715
     6  N   -0.280723
     7  C   -0.045577
     8  C   -0.006934
     9  C   -0.093288
    10  C    0.058223
    11  C    0.095437
    12  C    0.120290
    13  C   -0.025741
    14  C    0.220681
    15  O   -0.231479
    16  O   -0.369281
    17  N   -0.408699
    18  C    0.141797
    19  C   -0.168137
    20  C   -0.048539
    21  C    0.135985
    22  C    0.098796
    23  C    0.030131
    24  O   -0.205912
    25  C    0.066914
    26  N   -0.267532
    27  C   -0.002402
    28  C   -0.006898
    29  C   -0.026325
    30  C    0.032450
    31  C    0.063005
    32  C    0.006808
    33  C   -0.015016
    34  N   -0.351408
    35  C    0.093232
    36  C   -0.168853
    37  C    0.076781
    38  C    0.071025
    39  C    0.122971
    40  C    0.009102
    41  O   -0.192619
    42  C   -0.040158
    43  C    0.178903
    44  O   -0.169944
    45  O   -0.330563
    46  C    0.182827
    47  C    0.328292
    48  C   -0.147642
    49  C   -0.172601
    50  C    0.085701
    51  C    0.067563
    52  C    0.089784
    53  C    0.030658
    54  C   -0.143837
    55  C    0.043408
    56  C    0.039823
    57  C   -0.000483
    58  C    0.051165
    59  C   -0.114075
    60  C    0.066013
    61  C    0.044206
    62  C    0.024387
    63  C   -0.022019
    64  C   -0.166058
    65  C    0.036160
    66  C    0.074616
    67  H   -0.033267
    68  H   -0.004327
    69  H   -0.026740
    70  H    0.024899
    71  H    0.008815
    72  H    0.023014
    73  H    0.007227
    74  H    0.020311
    75  H    0.025774
    76  H    0.011427
    77  H    0.043967
    78  H    0.034747
    79  H    0.023167
    80  H    0.017412
    81  H    0.034288
    82  H    0.032945
    83  H    0.020492
    84  H    0.042384
    85  H    0.015185
    86  H    0.002123
    87  H    0.032811
    88  H    0.011561
    89  H    0.020374
    90  H    0.002385
    91  H    0.009476
    92  H    0.027482
    93  H    0.029902
    94  H    0.022236
    95  H    0.044312
    96  H    0.042700
    97  H    0.011750
    98  H    0.045424
    99  H    0.044238
   100  H    0.034076
   101  H    0.027135
   102  H    0.034039
   103  H   -0.004072
   104  H   -0.003460
   105  H    0.031094
   106  H    0.020515
   107  H    0.013741
   108  H   -0.009954
   109  H   -0.008314
   110  H   -0.014809
   111  H    0.000770
   112  H    0.001487
   113  H   -0.005013
   114  H   -0.000667
   115  H    0.013488
   116  H   -0.012293
   117  H    0.004017
   118  H   -0.005269
   119  H   -0.014666
   120  H   -0.007158
   121  H   -0.019557
   122  H    0.007185
   123  H   -0.002812
   124  H    0.006890
   125  H    0.006631
   126  H    0.003535
   127  H   -0.009805
   128  H   -0.013823
   129  H   -0.012652
   130  H    0.004593
   131  H    0.008767
   132  H   -0.003491
   133  H    0.004510
   134  H   -0.006649
   135  H    0.007475
   136  H    0.019261
   137  H    0.004923
   138  H    0.003678
   139  H    0.015738
   140  H    0.001240
 Sum of Mulliken charges =  -0.00000

 Dipole moment (field-independent basis, Debye):
    X=             -1.7652    Y=              1.6089    Z=             -0.3283  Tot=              2.4109
 Quadrupole moment (field-independent basis, Debye-Ang):
   XX=           -373.3451   YY=           -409.5466   ZZ=           -406.3929
   XY=              3.0567   XZ=             10.9265   YZ=             -7.3738

 Normal termination of Gaussian 16 at Fri Apr 29 13:30:42 2022.
