 Gaussian 16, Revision A.03,
 Gaussian 16:  ES64L-G16RevA.03 25-Dec-2016

 ---------------------------------
 #p PBE1PBE/Def2SVP td=(nstates=5)
 ---------------------------------

 -----------------------------------------------------
 step_351_chromophore_10 TDDFT with PBE1PBE functional
 -----------------------------------------------------
 Symbolic Z-matrix:
 Charge =  0 Multiplicity = 1

                         Standard orientation:
 ---------------------------------------------------------------------
 Center     Atomic      Atomic             Coordinates (Angstroms)
 Number     Number       Type             X           Y           Z
 ---------------------------------------------------------------------
      1         12           0        6.033226    0.535819   -0.158141
      2          6           0        3.609082   -2.065374   -0.405223
      3          6           0        3.880003    2.662390   -1.553426
      4          6           0        8.426860    2.819283    0.154410
      5          6           0        8.374406   -2.037196    0.997009
      6          7           0        4.046269    0.252536   -1.078381
      7          6           0        3.159719   -0.789060   -0.857213
      8          6           0        1.746549   -0.399637   -1.271332
      9          6           0        1.973791    0.995772   -1.921168
     10          6           0        3.424163    1.358484   -1.469176
     11          6           0        1.782307    1.086378   -3.402005
     12          6           0        0.582088   -0.544060   -0.255778
     13          6           0       -0.448982   -1.648210   -0.365061
     14          6           0       -1.797150   -1.542908    0.303668
     15          8           0       -2.179884   -0.500367    0.848491
     16          8           0       -2.514425   -2.787697    0.325257
     17          7           0        6.155845    2.512931   -0.582395
     18          6           0        5.118484    3.244334   -1.088262
     19          6           0        5.495607    4.621080   -1.066378
     20          6           0        6.849876    4.737423   -0.513999
     21          6           0        7.206113    3.327483   -0.265107
     22          6           0        4.579860    5.811670   -1.391159
     23          6           0        7.702131    6.052164   -0.211402
     24          8           0        8.854315    5.950258    0.206408
     25          6           0        7.083835    7.432358   -0.283606
     26          7           0        8.089437    0.367078    0.461801
     27          6           0        8.851308    1.526957    0.470750
     28          6           0       10.273932    1.254098    0.767110
     29          6           0       10.179168   -0.242375    1.339434
     30          6           0        8.797232   -0.686535    0.907952
     31          6           0       11.266842    1.450052   -0.492698
     32          6           0       10.344403   -0.274965    2.916792
     33          6           0        9.191966    0.357697    3.795237
     34          7           0        6.110427   -1.651300    0.193627
     35          6           0        7.126659   -2.567417    0.603851
     36          6           0        6.524788   -3.900252    0.633678
     37          6           0        5.186928   -3.741776    0.423361
     38          6           0        4.938867   -2.355811    0.052136
     39          6           0        7.252515   -5.196810    0.937961
     40          6           0        3.980570   -4.403704    0.441983
     41          8           0        3.586483   -5.545004    0.753389
     42          6           0        2.858463   -3.400399   -0.006371
     43          6           0        2.038867   -4.021591   -1.050734
     44          8           0        2.354519   -3.906579   -2.176460
     45          8           0        1.058990   -4.868871   -0.575745
     46          6           0        0.091009   -5.321136   -1.563366
     47          6           0       -3.723390   -2.950490    1.093969
     48          6           0       -4.994076   -2.636260    0.318677
     49          6           0       -6.188428   -3.255707    0.174605
     50          6           0       -6.494025   -4.568408    0.734325
     51          6           0       -7.064878   -2.711979   -0.815678
     52          6           0       -8.366371   -1.989370   -0.412683
     53          6           0       -8.183475   -0.505174   -0.046179
     54          6           0       -9.212303    0.535547   -0.587914
     55          6           0       -9.176798    0.772914   -2.121508
     56          6           0       -8.923226    1.895671    0.082205
     57          6           0      -10.329164    2.643197    0.296960
     58          6           0      -10.664588    2.874752    1.783270
     59          6           0      -12.068715    3.541225    1.921407
     60          6           0      -12.113825    4.076691    3.354744
     61          6           0      -13.220386    2.460795    1.776208
     62          6           0      -14.006426    2.624959    0.512974
     63          6           0      -13.999243    1.278442   -0.365389
     64          6           0      -15.405103    0.702511   -0.623638
     65          6           0      -15.946359   -0.042344    0.656909
     66          6           0      -15.509413   -0.193221   -1.854928
     67          1           0        3.176415    3.393952   -1.955367
     68          1           0        9.283172    3.495751    0.191489
     69          1           0        9.095964   -2.809834    1.268157
     70          1           0        1.657095   -1.137889   -2.067559
     71          1           0        1.358499    1.756782   -1.438687
     72          1           0        2.611010    1.589177   -3.900411
     73          1           0        0.914134    1.717467   -3.592648
     74          1           0        1.549769    0.118420   -3.844923
     75          1           0        0.027247    0.393654   -0.298663
     76          1           0        1.014256   -0.745574    0.724359
     77          1           0        0.013161   -2.553008    0.028982
     78          1           0       -0.554881   -1.906222   -1.418886
     79          1           0        4.552938    6.610946   -0.649408
     80          1           0        3.606699    5.346315   -1.542408
     81          1           0        5.038703    6.284684   -2.259104
     82          1           0        6.206156    7.399898    0.362827
     83          1           0        6.599067    7.515713   -1.256477
     84          1           0        7.725529    8.239267    0.069621
     85          1           0       10.596329    1.842473    1.626043
     86          1           0       10.841058   -0.929526    0.813048
     87          1           0       10.904938    2.273213   -1.107871
     88          1           0       11.266412    0.473537   -0.978167
     89          1           0       12.331101    1.603453   -0.315629
     90          1           0       11.236062    0.330923    3.074958
     91          1           0       10.615370   -1.192432    3.439977
     92          1           0        8.432058    0.602926    3.052946
     93          1           0        9.414407    1.255170    4.372687
     94          1           0        8.874356   -0.481373    4.414509
     95          1           0        6.754436   -5.951691    0.328998
     96          1           0        7.266045   -5.456896    1.996685
     97          1           0        8.290065   -5.067311    0.629596
     98          1           0        2.321686   -3.126040    0.901385
     99          1           0       -0.445363   -6.080620   -0.992968
    100          1           0        0.621873   -5.746080   -2.414420
    101          1           0       -0.566694   -4.565309   -1.993429
    102          1           0       -3.662512   -2.519818    2.092888
    103          1           0       -3.829630   -4.020314    1.273983
    104          1           0       -4.931711   -1.710344   -0.253416
    105          1           0       -6.107390   -5.323445    0.049842
    106          1           0       -7.556166   -4.744498    0.908423
    107          1           0       -5.921577   -4.733212    1.646523
    108          1           0       -7.213233   -3.567568   -1.474356
    109          1           0       -6.536452   -2.023912   -1.475884
    110          1           0       -8.625650   -2.460739    0.535295
    111          1           0       -9.217288   -2.080900   -1.087535
    112          1           0       -7.186371   -0.113527   -0.252619
    113          1           0       -8.327435   -0.422909    1.030828
    114          1           0      -10.268584    0.307454   -0.451438
    115          1           0       -9.118254    1.824572   -2.404226
    116          1           0      -10.129010    0.450859   -2.541814
    117          1           0       -8.496272    0.126581   -2.676747
    118          1           0       -8.169424    2.428964   -0.495988
    119          1           0       -8.403140    1.813801    1.036250
    120          1           0      -11.104899    2.096504   -0.239822
    121          1           0      -10.322936    3.594481   -0.234710
    122          1           0       -9.834544    3.361003    2.296379
    123          1           0      -10.638247    1.837082    2.116065
    124          1           0      -12.247498    4.383313    1.253734
    125          1           0      -11.215424    3.878869    3.939897
    126          1           0      -13.033392    3.817388    3.881325
    127          1           0      -12.130802    5.163812    3.283828
    128          1           0      -13.935257    2.400856    2.597678
    129          1           0      -12.871503    1.428515    1.793886
    130          1           0      -13.499268    3.398217   -0.064189
    131          1           0      -14.999723    2.897674    0.872240
    132          1           0      -13.593834    0.368286    0.076795
    133          1           0      -13.429839    1.459568   -1.277461
    134          1           0      -15.896913    1.668476   -0.730576
    135          1           0      -16.596382    0.645640    1.198930
    136          1           0      -15.126814   -0.464368    1.238447
    137          1           0      -16.667572   -0.808234    0.371697
    138          1           0      -14.649965   -0.114896   -2.519195
    139          1           0      -16.434375    0.021647   -2.389555
    140          1           0      -15.564758   -1.204195   -1.451452
 ---------------------------------------------------------------------

 SCF Done:  E(RPBE1PBE) =  -3005.31481171     A.U. after   15 cycles

 Excitation energies and oscillator strengths:

 Excited State   1:      Singlet-A      1.8395 eV  674.02 nm  f=0.3861  <S**2>=0.000
     245 -> 248       -0.17246
     246 -> 247        0.69323
     246 <- 247       -0.11099
 This state for optimization and/or second-order correction.
 Total Energy, E(TD-HF/TD-DFT) =  -3005.24721197
 Copying the excited state density for this state as the 1-particle RhoCI density.

 Excited State   2:      Singlet-A      2.1750 eV  570.03 nm  f=0.1032  <S**2>=0.000
     245 -> 247        0.65357
     246 -> 248        0.25183

 Excited State   3:      Singlet-A      2.7918 eV  444.10 nm  f=0.0003  <S**2>=0.000
     241 -> 247       -0.11753
     242 -> 247        0.44578
     242 -> 249       -0.14122
     243 -> 247        0.48777
     243 -> 249       -0.11665

 Excited State   4:      Singlet-A      2.9866 eV  415.13 nm  f=0.0015  <S**2>=0.000
     241 -> 247        0.12194
     242 -> 247       -0.48899
     243 -> 247        0.48905

 Excited State   5:      Singlet-A      3.1413 eV  394.70 nm  f=0.0072  <S**2>=0.000
     241 -> 247        0.61587
     242 -> 247        0.15453
     246 -> 248       -0.29055

 The electronic state is 1-A.
 Alpha  occ. eigenvalues --  -46.92668 -19.25532 -19.24814 -19.21061 -19.19988
 Alpha  occ. eigenvalues --  -19.19527 -19.18556 -14.41888 -14.41683 -14.39422
 Alpha  occ. eigenvalues --  -14.39063 -10.37785 -10.35483 -10.33462 -10.31570
 Alpha  occ. eigenvalues --  -10.29976 -10.29492 -10.28794 -10.28551 -10.28281
 Alpha  occ. eigenvalues --  -10.28209 -10.28116 -10.28034 -10.27960 -10.27486
 Alpha  occ. eigenvalues --  -10.26639 -10.26411 -10.26228 -10.26155 -10.25920
 Alpha  occ. eigenvalues --  -10.25815 -10.25716 -10.25693 -10.25480 -10.25470
 Alpha  occ. eigenvalues --  -10.25155 -10.25025 -10.25018 -10.24700 -10.24394
 Alpha  occ. eigenvalues --  -10.24266 -10.23999 -10.23973 -10.23859 -10.23830
 Alpha  occ. eigenvalues --  -10.23534 -10.23229 -10.23213 -10.23034 -10.22947
 Alpha  occ. eigenvalues --  -10.22899 -10.22848 -10.22788 -10.22702 -10.22483
 Alpha  occ. eigenvalues --  -10.22394 -10.22279 -10.22233 -10.22170 -10.22162
 Alpha  occ. eigenvalues --  -10.22154 -10.21986 -10.21654 -10.21509 -10.21396
 Alpha  occ. eigenvalues --  -10.21001  -3.14646  -1.87502  -1.87000  -1.86885
 Alpha  occ. eigenvalues --   -1.11893  -1.09341  -1.04668  -1.03882  -1.02968
 Alpha  occ. eigenvalues --   -1.02595  -0.99083  -0.98448  -0.97607  -0.96364
 Alpha  occ. eigenvalues --   -0.86226  -0.85871  -0.84349  -0.83792  -0.83053
 Alpha  occ. eigenvalues --   -0.82632  -0.82177  -0.81878  -0.81462  -0.81044
 Alpha  occ. eigenvalues --   -0.80658  -0.80369  -0.78361  -0.78002  -0.77383
 Alpha  occ. eigenvalues --   -0.76649  -0.76139  -0.75686  -0.75290  -0.74847
 Alpha  occ. eigenvalues --   -0.73867  -0.72946  -0.72413  -0.71349  -0.70952
 Alpha  occ. eigenvalues --   -0.70440  -0.69733  -0.69350  -0.68542  -0.68488
 Alpha  occ. eigenvalues --   -0.67883  -0.67387  -0.66394  -0.65264  -0.63686
 Alpha  occ. eigenvalues --   -0.63582  -0.62459  -0.61388  -0.60604  -0.60283
 Alpha  occ. eigenvalues --   -0.59677  -0.59465  -0.59173  -0.58758  -0.58356
 Alpha  occ. eigenvalues --   -0.57384  -0.56852  -0.56682  -0.56515  -0.54850
 Alpha  occ. eigenvalues --   -0.54708  -0.54233  -0.53550  -0.53193  -0.52596
 Alpha  occ. eigenvalues --   -0.52493  -0.52034  -0.50586  -0.50350  -0.50129
 Alpha  occ. eigenvalues --   -0.49893  -0.49847  -0.49241  -0.48883  -0.48510
 Alpha  occ. eigenvalues --   -0.48436  -0.48188  -0.47931  -0.47761  -0.47460
 Alpha  occ. eigenvalues --   -0.47333  -0.46841  -0.46693  -0.46570  -0.46301
 Alpha  occ. eigenvalues --   -0.45889  -0.45769  -0.45711  -0.45555  -0.45297
 Alpha  occ. eigenvalues --   -0.45203  -0.44817  -0.44624  -0.44390  -0.44124
 Alpha  occ. eigenvalues --   -0.44020  -0.43908  -0.43708  -0.43579  -0.43420
 Alpha  occ. eigenvalues --   -0.43234  -0.43125  -0.43023  -0.42870  -0.42783
 Alpha  occ. eigenvalues --   -0.42190  -0.42050  -0.41893  -0.41603  -0.41545
 Alpha  occ. eigenvalues --   -0.40989  -0.40776  -0.40724  -0.40445  -0.40231
 Alpha  occ. eigenvalues --   -0.40064  -0.39987  -0.39910  -0.39704  -0.39646
 Alpha  occ. eigenvalues --   -0.39471  -0.39274  -0.38798  -0.38651  -0.38516
 Alpha  occ. eigenvalues --   -0.38328  -0.38081  -0.37752  -0.37695  -0.37585
 Alpha  occ. eigenvalues --   -0.37369  -0.37104  -0.36912  -0.36869  -0.36730
 Alpha  occ. eigenvalues --   -0.36545  -0.36454  -0.36362  -0.36032  -0.35826
 Alpha  occ. eigenvalues --   -0.35754  -0.35489  -0.35290  -0.35147  -0.34662
 Alpha  occ. eigenvalues --   -0.34565  -0.34273  -0.34233  -0.34138  -0.33824
 Alpha  occ. eigenvalues --   -0.33416  -0.33300  -0.32533  -0.32398  -0.32227
 Alpha  occ. eigenvalues --   -0.31899  -0.31457  -0.31374  -0.31059  -0.30902
 Alpha  occ. eigenvalues --   -0.30891  -0.30539  -0.29359  -0.29309  -0.29231
 Alpha  occ. eigenvalues --   -0.29078  -0.28826  -0.28473  -0.27147  -0.26177
 Alpha  occ. eigenvalues --   -0.25857  -0.25410  -0.25264  -0.24804  -0.21178
 Alpha  occ. eigenvalues --   -0.19003
 Alpha virt. eigenvalues --   -0.11525  -0.05591  -0.04285  -0.02083  -0.00691
 Alpha virt. eigenvalues --    0.00182   0.00611   0.01034   0.01405   0.02787
 Alpha virt. eigenvalues --    0.03656   0.04267   0.05412   0.05565   0.06142

 Mulliken charges:
               1
     1  Mg   0.950670
     2  C    0.033693
     3  C   -0.058648
     4  C   -0.042679
     5  C   -0.048502
     6  N   -0.383431
     7  C    0.014347
     8  C   -0.073165
     9  C   -0.168614
    10  C    0.088962
    11  C    0.039588
    12  C    0.066323
    13  C   -0.110170
    14  C    0.290062
    15  O   -0.264543
    16  O   -0.400793
    17  N   -0.529306
    18  C    0.168390
    19  C   -0.197346
    20  C   -0.083103
    21  C    0.162602
    22  C    0.035383
    23  C    0.079623
    24  O   -0.241140
    25  C   -0.010012
    26  N   -0.372666
    27  C    0.028917
    28  C   -0.081812
    29  C   -0.108423
    30  C    0.072286
    31  C    0.005593
    32  C   -0.048918
    33  C   -0.091311
    34  N   -0.462908
    35  C    0.116040
    36  C   -0.180172
    37  C    0.023529
    38  C    0.110692
    39  C    0.073239
    40  C    0.092270
    41  O   -0.238192
    42  C   -0.148469
    43  C    0.266230
    44  O   -0.206242
    45  O   -0.363925
    46  C    0.125715
    47  C    0.286236
    48  C   -0.156100
    49  C   -0.212615
    50  C    0.023093
    51  C   -0.002142
    52  C    0.019076
    53  C   -0.022101
    54  C   -0.231057
    55  C   -0.010567
    56  C   -0.012164
    57  C   -0.062659
    58  C   -0.007536
    59  C   -0.211183
    60  C    0.011076
    61  C    0.003265
    62  C   -0.042175
    63  C   -0.072985
    64  C   -0.256940
    65  C   -0.024945
    66  C    0.010484
    67  H   -0.000589
    68  H    0.026680
    69  H    0.004316
    70  H    0.065378
    71  H    0.045552
    72  H    0.050113
    73  H    0.035224
    74  H    0.047810
    75  H    0.056982
    76  H    0.045555
    77  H    0.082435
    78  H    0.066505
    79  H    0.051483
    80  H    0.046914
    81  H    0.063641
    82  H    0.061171
    83  H    0.048779
    84  H    0.069540
    85  H    0.052585
    86  H    0.038473
    87  H    0.059989
    88  H    0.039920
    89  H    0.047933
    90  H    0.036644
    91  H    0.041291
    92  H    0.061839
    93  H    0.056469
    94  H    0.050379
    95  H    0.070575
    96  H    0.068724
    97  H    0.038231
    98  H    0.082480
    99  H    0.065634
   100  H    0.056084
   101  H    0.049666
   102  H    0.060048
   103  H    0.024351
   104  H    0.026537
   105  H    0.059190
   106  H    0.047380
   107  H    0.041354
   108  H    0.024150
   109  H    0.024332
   110  H    0.021058
   111  H    0.032404
   112  H    0.033215
   113  H    0.029013
   114  H    0.036738
   115  H    0.039940
   116  H    0.015082
   117  H    0.031848
   118  H    0.026823
   119  H    0.016917
   120  H    0.032082
   121  H    0.014082
   122  H    0.038932
   123  H    0.031843
   124  H    0.042092
   125  H    0.033315
   126  H    0.030450
   127  H    0.018802
   128  H    0.017300
   129  H    0.018895
   130  H    0.037200
   131  H    0.040121
   132  H    0.027967
   133  H    0.035006
   134  H    0.032777
   135  H    0.035001
   136  H    0.044968
   137  H    0.032972
   138  H    0.030731
   139  H    0.043746
   140  H    0.029213
 Sum of Mulliken charges =  -0.00000

 Dipole moment (field-independent basis, Debye):
    X=             -1.7001    Y=              1.9089    Z=             -0.3912  Tot=              2.5859
 Quadrupole moment (field-independent basis, Debye-Ang):
   XX=           -367.4187   YY=           -406.4098   ZZ=           -403.7094
   XY=              4.6757   XZ=             11.2787   YZ=             -7.7102

 Normal termination of Gaussian 16 at Fri Apr 29 13:48:19 2022.
