 Gaussian 16, Revision A.03,
 Gaussian 16:  ES64L-G16RevA.03 25-Dec-2016

 --------------------------------
 #p wB97XD/Def2SVP td=(nstates=5)
 --------------------------------

 ----------------------------------------------------
 step_351_chromophore_10 TDDFT with wB97XD functional
 ----------------------------------------------------
 Symbolic Z-matrix:
 Charge =  0 Multiplicity = 1

                         Standard orientation:
 ---------------------------------------------------------------------
 Center     Atomic      Atomic             Coordinates (Angstroms)
 Number     Number       Type             X           Y           Z
 ---------------------------------------------------------------------
      1         12           0        6.033226    0.535819   -0.158141
      2          6           0        3.609082   -2.065374   -0.405223
      3          6           0        3.880003    2.662390   -1.553426
      4          6           0        8.426860    2.819283    0.154410
      5          6           0        8.374406   -2.037196    0.997009
      6          7           0        4.046269    0.252536   -1.078381
      7          6           0        3.159719   -0.789060   -0.857213
      8          6           0        1.746549   -0.399637   -1.271332
      9          6           0        1.973791    0.995772   -1.921168
     10          6           0        3.424163    1.358484   -1.469176
     11          6           0        1.782307    1.086378   -3.402005
     12          6           0        0.582088   -0.544060   -0.255778
     13          6           0       -0.448982   -1.648210   -0.365061
     14          6           0       -1.797150   -1.542908    0.303668
     15          8           0       -2.179884   -0.500367    0.848491
     16          8           0       -2.514425   -2.787697    0.325257
     17          7           0        6.155845    2.512931   -0.582395
     18          6           0        5.118484    3.244334   -1.088262
     19          6           0        5.495607    4.621080   -1.066378
     20          6           0        6.849876    4.737423   -0.513999
     21          6           0        7.206113    3.327483   -0.265107
     22          6           0        4.579860    5.811670   -1.391159
     23          6           0        7.702131    6.052164   -0.211402
     24          8           0        8.854315    5.950258    0.206408
     25          6           0        7.083835    7.432358   -0.283606
     26          7           0        8.089437    0.367078    0.461801
     27          6           0        8.851308    1.526957    0.470750
     28          6           0       10.273932    1.254098    0.767110
     29          6           0       10.179168   -0.242375    1.339434
     30          6           0        8.797232   -0.686535    0.907952
     31          6           0       11.266842    1.450052   -0.492698
     32          6           0       10.344403   -0.274965    2.916792
     33          6           0        9.191966    0.357697    3.795237
     34          7           0        6.110427   -1.651300    0.193627
     35          6           0        7.126659   -2.567417    0.603851
     36          6           0        6.524788   -3.900252    0.633678
     37          6           0        5.186928   -3.741776    0.423361
     38          6           0        4.938867   -2.355811    0.052136
     39          6           0        7.252515   -5.196810    0.937961
     40          6           0        3.980570   -4.403704    0.441983
     41          8           0        3.586483   -5.545004    0.753389
     42          6           0        2.858463   -3.400399   -0.006371
     43          6           0        2.038867   -4.021591   -1.050734
     44          8           0        2.354519   -3.906579   -2.176460
     45          8           0        1.058990   -4.868871   -0.575745
     46          6           0        0.091009   -5.321136   -1.563366
     47          6           0       -3.723390   -2.950490    1.093969
     48          6           0       -4.994076   -2.636260    0.318677
     49          6           0       -6.188428   -3.255707    0.174605
     50          6           0       -6.494025   -4.568408    0.734325
     51          6           0       -7.064878   -2.711979   -0.815678
     52          6           0       -8.366371   -1.989370   -0.412683
     53          6           0       -8.183475   -0.505174   -0.046179
     54          6           0       -9.212303    0.535547   -0.587914
     55          6           0       -9.176798    0.772914   -2.121508
     56          6           0       -8.923226    1.895671    0.082205
     57          6           0      -10.329164    2.643197    0.296960
     58          6           0      -10.664588    2.874752    1.783270
     59          6           0      -12.068715    3.541225    1.921407
     60          6           0      -12.113825    4.076691    3.354744
     61          6           0      -13.220386    2.460795    1.776208
     62          6           0      -14.006426    2.624959    0.512974
     63          6           0      -13.999243    1.278442   -0.365389
     64          6           0      -15.405103    0.702511   -0.623638
     65          6           0      -15.946359   -0.042344    0.656909
     66          6           0      -15.509413   -0.193221   -1.854928
     67          1           0        3.176415    3.393952   -1.955367
     68          1           0        9.283172    3.495751    0.191489
     69          1           0        9.095964   -2.809834    1.268157
     70          1           0        1.657095   -1.137889   -2.067559
     71          1           0        1.358499    1.756782   -1.438687
     72          1           0        2.611010    1.589177   -3.900411
     73          1           0        0.914134    1.717467   -3.592648
     74          1           0        1.549769    0.118420   -3.844923
     75          1           0        0.027247    0.393654   -0.298663
     76          1           0        1.014256   -0.745574    0.724359
     77          1           0        0.013161   -2.553008    0.028982
     78          1           0       -0.554881   -1.906222   -1.418886
     79          1           0        4.552938    6.610946   -0.649408
     80          1           0        3.606699    5.346315   -1.542408
     81          1           0        5.038703    6.284684   -2.259104
     82          1           0        6.206156    7.399898    0.362827
     83          1           0        6.599067    7.515713   -1.256477
     84          1           0        7.725529    8.239267    0.069621
     85          1           0       10.596329    1.842473    1.626043
     86          1           0       10.841058   -0.929526    0.813048
     87          1           0       10.904938    2.273213   -1.107871
     88          1           0       11.266412    0.473537   -0.978167
     89          1           0       12.331101    1.603453   -0.315629
     90          1           0       11.236062    0.330923    3.074958
     91          1           0       10.615370   -1.192432    3.439977
     92          1           0        8.432058    0.602926    3.052946
     93          1           0        9.414407    1.255170    4.372687
     94          1           0        8.874356   -0.481373    4.414509
     95          1           0        6.754436   -5.951691    0.328998
     96          1           0        7.266045   -5.456896    1.996685
     97          1           0        8.290065   -5.067311    0.629596
     98          1           0        2.321686   -3.126040    0.901385
     99          1           0       -0.445363   -6.080620   -0.992968
    100          1           0        0.621873   -5.746080   -2.414420
    101          1           0       -0.566694   -4.565309   -1.993429
    102          1           0       -3.662512   -2.519818    2.092888
    103          1           0       -3.829630   -4.020314    1.273983
    104          1           0       -4.931711   -1.710344   -0.253416
    105          1           0       -6.107390   -5.323445    0.049842
    106          1           0       -7.556166   -4.744498    0.908423
    107          1           0       -5.921577   -4.733212    1.646523
    108          1           0       -7.213233   -3.567568   -1.474356
    109          1           0       -6.536452   -2.023912   -1.475884
    110          1           0       -8.625650   -2.460739    0.535295
    111          1           0       -9.217288   -2.080900   -1.087535
    112          1           0       -7.186371   -0.113527   -0.252619
    113          1           0       -8.327435   -0.422909    1.030828
    114          1           0      -10.268584    0.307454   -0.451438
    115          1           0       -9.118254    1.824572   -2.404226
    116          1           0      -10.129010    0.450859   -2.541814
    117          1           0       -8.496272    0.126581   -2.676747
    118          1           0       -8.169424    2.428964   -0.495988
    119          1           0       -8.403140    1.813801    1.036250
    120          1           0      -11.104899    2.096504   -0.239822
    121          1           0      -10.322936    3.594481   -0.234710
    122          1           0       -9.834544    3.361003    2.296379
    123          1           0      -10.638247    1.837082    2.116065
    124          1           0      -12.247498    4.383313    1.253734
    125          1           0      -11.215424    3.878869    3.939897
    126          1           0      -13.033392    3.817388    3.881325
    127          1           0      -12.130802    5.163812    3.283828
    128          1           0      -13.935257    2.400856    2.597678
    129          1           0      -12.871503    1.428515    1.793886
    130          1           0      -13.499268    3.398217   -0.064189
    131          1           0      -14.999723    2.897674    0.872240
    132          1           0      -13.593834    0.368286    0.076795
    133          1           0      -13.429839    1.459568   -1.277461
    134          1           0      -15.896913    1.668476   -0.730576
    135          1           0      -16.596382    0.645640    1.198930
    136          1           0      -15.126814   -0.464368    1.238447
    137          1           0      -16.667572   -0.808234    0.371697
    138          1           0      -14.649965   -0.114896   -2.519195
    139          1           0      -16.434375    0.021647   -2.389555
    140          1           0      -15.564758   -1.204195   -1.451452
 ---------------------------------------------------------------------

 SCF Done:  E(RwB97XD) =  -3007.82332263     A.U. after   19 cycles

 Excitation energies and oscillator strengths:

 Excited State   1:      Singlet-A      1.6212 eV  764.78 nm  f=0.4004  <S**2>=0.000
     245 -> 248       -0.18495
     246 -> 247        0.68320
     245 <- 248       -0.11731
 This state for optimization and/or second-order correction.
 Total Energy, E(TD-HF/TD-DFT) =  -3007.76374567
 Copying the excited state density for this state as the 1-particle RhoCI density.

 Excited State   2:      Singlet-A      2.1170 eV  585.67 nm  f=0.1017  <S**2>=0.000
     245 -> 247        0.63948
     246 -> 248        0.28467

 Excited State   3:      Singlet-A      3.2586 eV  380.48 nm  f=0.0141  <S**2>=0.000
     241 -> 247        0.33034
     241 -> 249       -0.26186
     241 -> 250        0.11808
     242 -> 247        0.41771
     242 -> 249       -0.15353
     243 -> 247       -0.24688
     246 -> 248       -0.15916

 Excited State   4:      Singlet-A      3.3572 eV  369.31 nm  f=0.0214  <S**2>=0.000
     241 -> 247        0.42133
     241 -> 249       -0.19687
     242 -> 247       -0.16562
     243 -> 247        0.45086
     246 -> 248        0.15609

 Excited State   5:      Singlet-A      3.4408 eV  360.33 nm  f=0.2274  <S**2>=0.000
     241 -> 247        0.14818
     242 -> 247       -0.20933
     243 -> 247       -0.41323
     245 -> 247       -0.16380
     246 -> 248        0.46676

 The electronic state is 1-A.
 Alpha  occ. eigenvalues --  -46.95592 -19.30132 -19.29464 -19.25793 -19.24797
 Alpha  occ. eigenvalues --  -19.24216 -19.23541 -14.46852 -14.46843 -14.44271
 Alpha  occ. eigenvalues --  -14.44061 -10.44645 -10.42414 -10.40155 -10.38633
 Alpha  occ. eigenvalues --  -10.36417 -10.36022 -10.35134 -10.34856 -10.34736
 Alpha  occ. eigenvalues --  -10.34593 -10.34333 -10.34165 -10.34089 -10.34001
 Alpha  occ. eigenvalues --  -10.33203 -10.32898 -10.32430 -10.32405 -10.32219
 Alpha  occ. eigenvalues --  -10.32126 -10.31983 -10.31972 -10.31875 -10.31761
 Alpha  occ. eigenvalues --  -10.31661 -10.31439 -10.31238 -10.31047 -10.30732
 Alpha  occ. eigenvalues --  -10.30679 -10.30518 -10.30363 -10.30302 -10.30249
 Alpha  occ. eigenvalues --  -10.29803 -10.29707 -10.29546 -10.29477 -10.29310
 Alpha  occ. eigenvalues --  -10.29246 -10.29193 -10.29156 -10.29106 -10.28875
 Alpha  occ. eigenvalues --  -10.28767 -10.28637 -10.28573 -10.28561 -10.28556
 Alpha  occ. eigenvalues --  -10.28533 -10.28332 -10.28077 -10.27855 -10.27823
 Alpha  occ. eigenvalues --  -10.27418  -3.21443  -1.95047  -1.94543  -1.94424
 Alpha  occ. eigenvalues --   -1.19364  -1.16782  -1.12028  -1.11314  -1.10644
 Alpha  occ. eigenvalues --   -1.09991  -1.06425  -1.05836  -1.04850  -1.03886
 Alpha  occ. eigenvalues --   -0.93953  -0.93542  -0.91993  -0.91461  -0.90598
 Alpha  occ. eigenvalues --   -0.90295  -0.89805  -0.89460  -0.89119  -0.88754
 Alpha  occ. eigenvalues --   -0.88252  -0.87969  -0.86019  -0.85672  -0.85021
 Alpha  occ. eigenvalues --   -0.84301  -0.83783  -0.83355  -0.82991  -0.82445
 Alpha  occ. eigenvalues --   -0.81545  -0.80647  -0.79956  -0.78947  -0.78628
 Alpha  occ. eigenvalues --   -0.78089  -0.77303  -0.77045  -0.76199  -0.76143
 Alpha  occ. eigenvalues --   -0.75526  -0.75033  -0.73893  -0.72892  -0.71283
 Alpha  occ. eigenvalues --   -0.71123  -0.70084  -0.68869  -0.68216  -0.67771
 Alpha  occ. eigenvalues --   -0.67138  -0.66913  -0.66799  -0.66209  -0.66030
 Alpha  occ. eigenvalues --   -0.64960  -0.64431  -0.64315  -0.63964  -0.62296
 Alpha  occ. eigenvalues --   -0.62097  -0.61794  -0.61001  -0.60801  -0.60082
 Alpha  occ. eigenvalues --   -0.59935  -0.59419  -0.58090  -0.57785  -0.57574
 Alpha  occ. eigenvalues --   -0.57326  -0.57204  -0.56640  -0.56271  -0.55950
 Alpha  occ. eigenvalues --   -0.55884  -0.55582  -0.55339  -0.55107  -0.54876
 Alpha  occ. eigenvalues --   -0.54676  -0.54244  -0.54037  -0.53979  -0.53644
 Alpha  occ. eigenvalues --   -0.53284  -0.53214  -0.53092  -0.52938  -0.52661
 Alpha  occ. eigenvalues --   -0.52556  -0.52083  -0.51994  -0.51730  -0.51490
 Alpha  occ. eigenvalues --   -0.51318  -0.51211  -0.51026  -0.50856  -0.50701
 Alpha  occ. eigenvalues --   -0.50566  -0.50416  -0.50347  -0.50136  -0.49980
 Alpha  occ. eigenvalues --   -0.49449  -0.49291  -0.49178  -0.48795  -0.48766
 Alpha  occ. eigenvalues --   -0.48321  -0.48024  -0.47898  -0.47766  -0.47435
 Alpha  occ. eigenvalues --   -0.47290  -0.47152  -0.47089  -0.46928  -0.46776
 Alpha  occ. eigenvalues --   -0.46700  -0.46415  -0.45938  -0.45804  -0.45598
 Alpha  occ. eigenvalues --   -0.45476  -0.45213  -0.44923  -0.44871  -0.44719
 Alpha  occ. eigenvalues --   -0.44468  -0.44205  -0.44108  -0.44030  -0.43740
 Alpha  occ. eigenvalues --   -0.43685  -0.43517  -0.43330  -0.43167  -0.42899
 Alpha  occ. eigenvalues --   -0.42813  -0.42552  -0.42303  -0.42212  -0.41758
 Alpha  occ. eigenvalues --   -0.41627  -0.41292  -0.41248  -0.41178  -0.40728
 Alpha  occ. eigenvalues --   -0.40465  -0.40377  -0.39475  -0.39452  -0.39262
 Alpha  occ. eigenvalues --   -0.38944  -0.38470  -0.38416  -0.38080  -0.37934
 Alpha  occ. eigenvalues --   -0.37905  -0.37553  -0.36415  -0.36356  -0.36207
 Alpha  occ. eigenvalues --   -0.36004  -0.35545  -0.35374  -0.33757  -0.33206
 Alpha  occ. eigenvalues --   -0.32768  -0.32314  -0.31771  -0.31520  -0.26172
 Alpha  occ. eigenvalues --   -0.23124
 Alpha virt. eigenvalues --   -0.07454  -0.00154   0.01910   0.04448   0.06029
 Alpha virt. eigenvalues --    0.06121   0.07252   0.07738   0.08049   0.09331
 Alpha virt. eigenvalues --    0.10105   0.11086   0.12092   0.12314   0.12956

 Mulliken charges:
               1
     1  Mg   0.941795
     2  C    0.016011
     3  C   -0.080638
     4  C   -0.056858
     5  C   -0.062916
     6  N   -0.352947
     7  C   -0.007759
     8  C   -0.047828
     9  C   -0.140643
    10  C    0.078579
    11  C    0.047103
    12  C    0.078559
    13  C   -0.084354
    14  C    0.279400
    15  O   -0.260389
    16  O   -0.399725
    17  N   -0.495100
    18  C    0.158217
    19  C   -0.187706
    20  C   -0.082613
    21  C    0.154307
    22  C    0.050800
    23  C    0.075126
    24  O   -0.237029
    25  C    0.005783
    26  N   -0.338609
    27  C    0.015156
    28  C   -0.058595
    29  C   -0.077759
    30  C    0.056376
    31  C    0.017676
    32  C   -0.039450
    33  C   -0.068179
    34  N   -0.430825
    35  C    0.106856
    36  C   -0.176399
    37  C    0.027277
    38  C    0.101841
    39  C    0.082841
    40  C    0.079722
    41  O   -0.226993
    42  C   -0.107282
    43  C    0.242083
    44  O   -0.199264
    45  O   -0.361048
    46  C    0.140664
    47  C    0.302172
    48  C   -0.165386
    49  C   -0.201027
    50  C    0.033336
    51  C    0.020434
    52  C    0.037448
    53  C   -0.006355
    54  C   -0.196650
    55  C   -0.003897
    56  C    0.000313
    57  C   -0.036897
    58  C    0.012437
    59  C   -0.178569
    60  C    0.022292
    61  C    0.014604
    62  C   -0.025190
    63  C   -0.055615
    64  C   -0.224594
    65  C   -0.013557
    66  C    0.023444
    67  H   -0.008239
    68  H    0.021759
    69  H    0.001063
    70  H    0.048528
    71  H    0.035074
    72  H    0.044454
    73  H    0.029808
    74  H    0.042390
    75  H    0.050030
    76  H    0.037351
    77  H    0.065413
    78  H    0.059087
    79  H    0.044610
    80  H    0.040711
    81  H    0.056532
    82  H    0.053224
    83  H    0.040867
    84  H    0.068989
    85  H    0.041488
    86  H    0.029312
    87  H    0.053700
    88  H    0.031752
    89  H    0.042867
    90  H    0.027044
    91  H    0.034785
    92  H    0.045718
    93  H    0.052728
    94  H    0.044523
    95  H    0.067422
    96  H    0.066164
    97  H    0.033162
    98  H    0.074464
    99  H    0.063183
   100  H    0.051977
   101  H    0.045501
   102  H    0.057437
   103  H    0.017537
   104  H    0.020145
   105  H    0.053738
   106  H    0.042981
   107  H    0.035357
   108  H    0.016570
   109  H    0.014538
   110  H    0.010521
   111  H    0.026565
   112  H    0.022471
   113  H    0.018915
   114  H    0.022302
   115  H    0.034100
   116  H    0.009133
   117  H    0.025822
   118  H    0.018867
   119  H    0.007270
   120  H    0.008515
   121  H    0.005357
   122  H    0.030681
   123  H    0.018619
   124  H    0.031354
   125  H    0.027252
   126  H    0.024204
   127  H    0.012940
   128  H    0.009262
   129  H    0.005944
   130  H    0.027500
   131  H    0.032057
   132  H    0.013335
   133  H    0.027489
   134  H    0.019212
   135  H    0.029330
   136  H    0.038831
   137  H    0.026608
   138  H    0.025532
   139  H    0.038551
   140  H    0.021707
 Sum of Mulliken charges =  -0.00000

 Dipole moment (field-independent basis, Debye):
    X=             -1.7654    Y=              1.5202    Z=             -0.2882  Tot=              2.3475
 Quadrupole moment (field-independent basis, Debye-Ang):
   XX=           -368.5392   YY=           -404.8289   ZZ=           -403.4236
   XY=              2.6735   XZ=             11.6625   YZ=             -7.6371

 Normal termination of Gaussian 16 at Fri Apr 29 14:10:31 2022.
