 Gaussian 16, Revision A.03,
 Gaussian 16:  ES64L-G16RevA.03 25-Dec-2016

 --------------------
 #p ZINDO=(nstates=5)
 --------------------

 -----------------------------
 step_351_chromophore_10 ZINDO
 -----------------------------
 Symbolic Z-matrix:
 Charge =  0 Multiplicity = 1

                         Standard orientation:
 ---------------------------------------------------------------------
 Center     Atomic      Atomic             Coordinates (Angstroms)
 Number     Number       Type             X           Y           Z
 ---------------------------------------------------------------------
      1         12           0        6.033226    0.535819   -0.158141
      2          6           0        3.609082   -2.065374   -0.405223
      3          6           0        3.880003    2.662390   -1.553426
      4          6           0        8.426860    2.819283    0.154410
      5          6           0        8.374406   -2.037196    0.997009
      6          7           0        4.046269    0.252536   -1.078381
      7          6           0        3.159719   -0.789060   -0.857213
      8          6           0        1.746549   -0.399637   -1.271332
      9          6           0        1.973791    0.995772   -1.921168
     10          6           0        3.424163    1.358484   -1.469176
     11          6           0        1.782307    1.086378   -3.402005
     12          6           0        0.582088   -0.544060   -0.255778
     13          6           0       -0.448982   -1.648210   -0.365061
     14          6           0       -1.797150   -1.542908    0.303668
     15          8           0       -2.179884   -0.500367    0.848491
     16          8           0       -2.514425   -2.787697    0.325257
     17          7           0        6.155845    2.512931   -0.582395
     18          6           0        5.118484    3.244334   -1.088262
     19          6           0        5.495607    4.621080   -1.066378
     20          6           0        6.849876    4.737423   -0.513999
     21          6           0        7.206113    3.327483   -0.265107
     22          6           0        4.579860    5.811670   -1.391159
     23          6           0        7.702131    6.052164   -0.211402
     24          8           0        8.854315    5.950258    0.206408
     25          6           0        7.083835    7.432358   -0.283606
     26          7           0        8.089437    0.367078    0.461801
     27          6           0        8.851308    1.526957    0.470750
     28          6           0       10.273932    1.254098    0.767110
     29          6           0       10.179168   -0.242375    1.339434
     30          6           0        8.797232   -0.686535    0.907952
     31          6           0       11.266842    1.450052   -0.492698
     32          6           0       10.344403   -0.274965    2.916792
     33          6           0        9.191966    0.357697    3.795237
     34          7           0        6.110427   -1.651300    0.193627
     35          6           0        7.126659   -2.567417    0.603851
     36          6           0        6.524788   -3.900252    0.633678
     37          6           0        5.186928   -3.741776    0.423361
     38          6           0        4.938867   -2.355811    0.052136
     39          6           0        7.252515   -5.196810    0.937961
     40          6           0        3.980570   -4.403704    0.441983
     41          8           0        3.586483   -5.545004    0.753389
     42          6           0        2.858463   -3.400399   -0.006371
     43          6           0        2.038867   -4.021591   -1.050734
     44          8           0        2.354519   -3.906579   -2.176460
     45          8           0        1.058990   -4.868871   -0.575745
     46          6           0        0.091009   -5.321136   -1.563366
     47          6           0       -3.723390   -2.950490    1.093969
     48          6           0       -4.994076   -2.636260    0.318677
     49          6           0       -6.188428   -3.255707    0.174605
     50          6           0       -6.494025   -4.568408    0.734325
     51          6           0       -7.064878   -2.711979   -0.815678
     52          6           0       -8.366371   -1.989370   -0.412683
     53          6           0       -8.183475   -0.505174   -0.046179
     54          6           0       -9.212303    0.535547   -0.587914
     55          6           0       -9.176798    0.772914   -2.121508
     56          6           0       -8.923226    1.895671    0.082205
     57          6           0      -10.329164    2.643197    0.296960
     58          6           0      -10.664588    2.874752    1.783270
     59          6           0      -12.068715    3.541225    1.921407
     60          6           0      -12.113825    4.076691    3.354744
     61          6           0      -13.220386    2.460795    1.776208
     62          6           0      -14.006426    2.624959    0.512974
     63          6           0      -13.999243    1.278442   -0.365389
     64          6           0      -15.405103    0.702511   -0.623638
     65          6           0      -15.946359   -0.042344    0.656909
     66          6           0      -15.509413   -0.193221   -1.854928
     67          1           0        3.176415    3.393952   -1.955367
     68          1           0        9.283172    3.495751    0.191489
     69          1           0        9.095964   -2.809834    1.268157
     70          1           0        1.657095   -1.137889   -2.067559
     71          1           0        1.358499    1.756782   -1.438687
     72          1           0        2.611010    1.589177   -3.900411
     73          1           0        0.914134    1.717467   -3.592648
     74          1           0        1.549769    0.118420   -3.844923
     75          1           0        0.027247    0.393654   -0.298663
     76          1           0        1.014256   -0.745574    0.724359
     77          1           0        0.013161   -2.553008    0.028982
     78          1           0       -0.554881   -1.906222   -1.418886
     79          1           0        4.552938    6.610946   -0.649408
     80          1           0        3.606699    5.346315   -1.542408
     81          1           0        5.038703    6.284684   -2.259104
     82          1           0        6.206156    7.399898    0.362827
     83          1           0        6.599067    7.515713   -1.256477
     84          1           0        7.725529    8.239267    0.069621
     85          1           0       10.596329    1.842473    1.626043
     86          1           0       10.841058   -0.929526    0.813048
     87          1           0       10.904938    2.273213   -1.107871
     88          1           0       11.266412    0.473537   -0.978167
     89          1           0       12.331101    1.603453   -0.315629
     90          1           0       11.236062    0.330923    3.074958
     91          1           0       10.615370   -1.192432    3.439977
     92          1           0        8.432058    0.602926    3.052946
     93          1           0        9.414407    1.255170    4.372687
     94          1           0        8.874356   -0.481373    4.414509
     95          1           0        6.754436   -5.951691    0.328998
     96          1           0        7.266045   -5.456896    1.996685
     97          1           0        8.290065   -5.067311    0.629596
     98          1           0        2.321686   -3.126040    0.901385
     99          1           0       -0.445363   -6.080620   -0.992968
    100          1           0        0.621873   -5.746080   -2.414420
    101          1           0       -0.566694   -4.565309   -1.993429
    102          1           0       -3.662512   -2.519818    2.092888
    103          1           0       -3.829630   -4.020314    1.273983
    104          1           0       -4.931711   -1.710344   -0.253416
    105          1           0       -6.107390   -5.323445    0.049842
    106          1           0       -7.556166   -4.744498    0.908423
    107          1           0       -5.921577   -4.733212    1.646523
    108          1           0       -7.213233   -3.567568   -1.474356
    109          1           0       -6.536452   -2.023912   -1.475884
    110          1           0       -8.625650   -2.460739    0.535295
    111          1           0       -9.217288   -2.080900   -1.087535
    112          1           0       -7.186371   -0.113527   -0.252619
    113          1           0       -8.327435   -0.422909    1.030828
    114          1           0      -10.268584    0.307454   -0.451438
    115          1           0       -9.118254    1.824572   -2.404226
    116          1           0      -10.129010    0.450859   -2.541814
    117          1           0       -8.496272    0.126581   -2.676747
    118          1           0       -8.169424    2.428964   -0.495988
    119          1           0       -8.403140    1.813801    1.036250
    120          1           0      -11.104899    2.096504   -0.239822
    121          1           0      -10.322936    3.594481   -0.234710
    122          1           0       -9.834544    3.361003    2.296379
    123          1           0      -10.638247    1.837082    2.116065
    124          1           0      -12.247498    4.383313    1.253734
    125          1           0      -11.215424    3.878869    3.939897
    126          1           0      -13.033392    3.817388    3.881325
    127          1           0      -12.130802    5.163812    3.283828
    128          1           0      -13.935257    2.400856    2.597678
    129          1           0      -12.871503    1.428515    1.793886
    130          1           0      -13.499268    3.398217   -0.064189
    131          1           0      -14.999723    2.897674    0.872240
    132          1           0      -13.593834    0.368286    0.076795
    133          1           0      -13.429839    1.459568   -1.277461
    134          1           0      -15.896913    1.668476   -0.730576
    135          1           0      -16.596382    0.645640    1.198930
    136          1           0      -15.126814   -0.464368    1.238447
    137          1           0      -16.667572   -0.808234    0.371697
    138          1           0      -14.649965   -0.114896   -2.519195
    139          1           0      -16.434375    0.021647   -2.389555
    140          1           0      -15.564758   -1.204195   -1.451452
 ---------------------------------------------------------------------

 SCF Done:  E(RZINDO/S) =  -474.177168625     A.U. after   19 cycles

 Excitation energies and oscillator strengths:

 Excited State   1:      Singlet-A      1.2422 eV  998.11 nm  f=0.6162  <S**2>=0.000
     175 ->178         0.18465
     176 ->177         0.66432
 This state for optimization and/or second-order correction.
 Total Energy, E(CIS/TDA) =  -474.131518995
 Copying the excited state density for this state as the 1-particle RhoCI density.

 Excited State   2:      Singlet-A      1.9238 eV  644.48 nm  f=0.0369  <S**2>=0.000
     175 ->177         0.54163
     176 ->178        -0.42087

 Excited State   3:      Singlet-A      2.8020 eV  442.48 nm  f=0.0228  <S**2>=0.000
     168 ->177        -0.36261
     168 ->178         0.14918
     168 ->179         0.40182
     168 ->181        -0.16046
     168 ->186         0.15393
     168 ->196        -0.10039
     171 ->177        -0.11796
     176 ->178        -0.12011
     176 ->179        -0.10379

 Excited State   4:      Singlet-A      2.9217 eV  424.35 nm  f=0.4255  <S**2>=0.000
     168 ->177        -0.12225
     168 ->179         0.13075
     175 ->177         0.26865
     176 ->178         0.43371
     176 ->179         0.40135

 Excited State   5:      Singlet-A      3.0312 eV  409.03 nm  f=0.6735  <S**2>=0.000
     175 ->177        -0.27961
     176 ->178        -0.28691
     176 ->179         0.51284
     176 ->181         0.17989

 The electronic state is 1-A.
 Alpha  occ. eigenvalues --   -1.82512  -1.81345  -1.79707  -1.74269  -1.71136
 Alpha  occ. eigenvalues --   -1.68642  -1.65525  -1.61684  -1.58341  -1.56907
 Alpha  occ. eigenvalues --   -1.56567  -1.52822  -1.50716  -1.50215  -1.44307
 Alpha  occ. eigenvalues --   -1.43628  -1.42617  -1.39683  -1.37917  -1.37766
 Alpha  occ. eigenvalues --   -1.35648  -1.33488  -1.33405  -1.32067  -1.28163
 Alpha  occ. eigenvalues --   -1.27367  -1.24957  -1.21626  -1.20416  -1.17983
 Alpha  occ. eigenvalues --   -1.16920  -1.16520  -1.15337  -1.14173  -1.12480
 Alpha  occ. eigenvalues --   -1.11717  -1.11378  -1.09038  -1.05953  -1.04585
 Alpha  occ. eigenvalues --   -1.04049  -1.01840  -0.99358  -0.97900  -0.96416
 Alpha  occ. eigenvalues --   -0.95530  -0.94305  -0.93775  -0.93006  -0.91977
 Alpha  occ. eigenvalues --   -0.90317  -0.89990  -0.88328  -0.87863  -0.86668
 Alpha  occ. eigenvalues --   -0.85581  -0.83538  -0.82497  -0.81147  -0.80358
 Alpha  occ. eigenvalues --   -0.80039  -0.79177  -0.77346  -0.77114  -0.76420
 Alpha  occ. eigenvalues --   -0.76350  -0.75921  -0.75436  -0.74708  -0.74249
 Alpha  occ. eigenvalues --   -0.73485  -0.73165  -0.72361  -0.71528  -0.70459
 Alpha  occ. eigenvalues --   -0.69869  -0.69234  -0.69064  -0.68140  -0.68021
 Alpha  occ. eigenvalues --   -0.67524  -0.67086  -0.66535  -0.65781  -0.65420
 Alpha  occ. eigenvalues --   -0.64869  -0.64250  -0.63951  -0.63848  -0.63525
 Alpha  occ. eigenvalues --   -0.63393  -0.63350  -0.63089  -0.62518  -0.61830
 Alpha  occ. eigenvalues --   -0.61385  -0.61257  -0.61096  -0.60243  -0.60002
 Alpha  occ. eigenvalues --   -0.59445  -0.58727  -0.58469  -0.58087  -0.57917
 Alpha  occ. eigenvalues --   -0.57602  -0.57548  -0.57364  -0.56970  -0.56102
 Alpha  occ. eigenvalues --   -0.55601  -0.55378  -0.55153  -0.54838  -0.54487
 Alpha  occ. eigenvalues --   -0.53431  -0.53318  -0.53192  -0.52658  -0.52528
 Alpha  occ. eigenvalues --   -0.52398  -0.51839  -0.51672  -0.51318  -0.51246
 Alpha  occ. eigenvalues --   -0.51071  -0.50910  -0.50777  -0.50254  -0.50107
 Alpha  occ. eigenvalues --   -0.49949  -0.49790  -0.49396  -0.49013  -0.48978
 Alpha  occ. eigenvalues --   -0.48698  -0.48473  -0.48257  -0.47667  -0.47470
 Alpha  occ. eigenvalues --   -0.47374  -0.46752  -0.46552  -0.46408  -0.46310
 Alpha  occ. eigenvalues --   -0.46097  -0.45565  -0.45355  -0.45247  -0.44879
 Alpha  occ. eigenvalues --   -0.44677  -0.44360  -0.44153  -0.44016  -0.43850
 Alpha  occ. eigenvalues --   -0.43543  -0.43118  -0.42828  -0.42235  -0.42189
 Alpha  occ. eigenvalues --   -0.41662  -0.41579  -0.40686  -0.39531  -0.38700
 Alpha  occ. eigenvalues --   -0.38271  -0.36825  -0.35590  -0.35096  -0.34690
 Alpha  occ. eigenvalues --   -0.34025  -0.32387  -0.31727  -0.31563  -0.26724
 Alpha  occ. eigenvalues --   -0.21664
 Alpha virt. eigenvalues --   -0.08574  -0.02133  -0.00919   0.01001   0.01573
 Alpha virt. eigenvalues --    0.02867   0.02968   0.03274   0.04798   0.04880
 Alpha virt. eigenvalues --    0.05962   0.06584   0.07077   0.07288   0.07707

 Mulliken charges:
               1
     1  Mg   0.429766
     2  C   -0.078672
     3  C   -0.089154
     4  C   -0.042727
     5  C   -0.062626
     6  N   -0.284806
     7  C    0.160544
     8  C    0.005490
     9  C    0.005949
    10  C    0.124709
    11  C   -0.043615
    12  C   -0.016767
    13  C    0.011941
    14  C    0.469591
    15  O   -0.506493
    16  O   -0.282481
    17  N   -0.313368
    18  C    0.094763
    19  C   -0.027069
    20  C   -0.074748
    21  C    0.123268
    22  C   -0.054700
    23  C    0.327060
    24  O   -0.525418
    25  C   -0.027620
    26  N   -0.264873
    27  C    0.105719
    28  C    0.002355
    29  C    0.003303
    30  C    0.162448
    31  C   -0.054759
    32  C   -0.036229
    33  C   -0.063976
    34  N   -0.358590
    35  C    0.100047
    36  C    0.072880
    37  C   -0.028075
    38  C    0.131011
    39  C   -0.038528
    40  C    0.339576
    41  O   -0.537482
    42  C    0.051804
    43  C    0.495948
    44  O   -0.510895
    45  O   -0.270623
    46  C    0.075628
    47  C    0.112764
    48  C   -0.099553
    49  C    0.016450
    50  C   -0.036727
    51  C   -0.008684
    52  C   -0.029626
    53  C   -0.031956
    54  C   -0.014175
    55  C   -0.064198
    56  C   -0.043991
    57  C   -0.046878
    58  C   -0.030372
    59  C   -0.007266
    60  C   -0.064945
    61  C   -0.040135
    62  C   -0.040961
    63  C   -0.048705
    64  C   -0.021088
    65  C   -0.060506
    66  C   -0.054310
    67  H    0.022973
    68  H    0.039341
    69  H    0.026907
    70  H    0.038138
    71  H    0.023711
    72  H    0.027885
    73  H    0.011755
    74  H    0.025228
    75  H    0.035494
    76  H    0.025255
    77  H    0.037439
    78  H    0.041331
    79  H    0.029923
    80  H    0.028053
    81  H    0.029159
    82  H    0.032361
    83  H    0.040225
    84  H    0.049010
    85  H    0.033665
    86  H    0.030508
    87  H    0.034651
    88  H    0.018733
    89  H    0.024080
    90  H    0.007855
    91  H    0.025417
    92  H    0.026767
    93  H    0.032961
    94  H    0.020980
    95  H    0.040840
    96  H    0.043215
    97  H    0.022248
    98  H    0.049394
    99  H    0.036011
   100  H    0.045562
   101  H    0.040130
   102  H    0.055465
   103  H    0.025551
   104  H    0.022501
   105  H    0.030204
   106  H    0.025351
   107  H    0.018544
   108  H    0.016586
   109  H    0.013780
   110  H    0.012638
   111  H    0.027695
   112  H    0.027686
   113  H    0.011078
   114  H    0.028476
   115  H    0.024880
   116  H    0.002550
   117  H    0.020159
   118  H    0.020760
   119  H    0.012685
   120  H    0.023732
   121  H    0.007626
   122  H    0.027189
   123  H    0.019938
   124  H    0.036435
   125  H    0.022616
   126  H    0.020310
   127  H    0.004184
   128  H    0.015468
   129  H    0.015869
   130  H    0.024874
   131  H    0.027408
   132  H    0.021847
   133  H    0.016063
   134  H    0.017470
   135  H    0.016022
   136  H    0.031002
   137  H    0.014208
   138  H    0.020860
   139  H    0.019737
   140  H    0.018703
 Sum of Mulliken charges =  -0.00000

 Dipole moment (field-independent basis, Debye):
    X=             -2.6840    Y=             -0.4234    Z=              0.1553  Tot=              2.7217
 N-N= 4.242350601465D+03 E-N= 0.000000000000D+00  KE=-9.159228835839D+03
 Leave Link  601 at Fri Apr 29 14:23:06 2022, MaxMem=  6710886400 cpu:               0.8 elap:               0.1
 (Enter /sw/apps/gaussian-16.0/g16/l9999.exe)
 1\1\GINC-BP1-COMPUTE168\SP\RZINDO CIS\STO-3G\C55H74Mg1N4O6\OF15641\29-
 Apr-2022\0\\#p ZINDO=(nstates=5)\\step_351_chromophore_10 ZINDO\\0,1\M
 g,0,40.767,7.702,28.917\C,0,42.732,8.98,31.602\C,0,38.758,6.203,31.113
 \C,0,39.07,6.603,26.28\C,0,43.304,9.097,26.669\N,0,40.883,7.446,31.107
 \C,0,41.59,8.227,32.007\C,0,41.051,8.053,33.421\C,0,40.005,6.917,33.23
 \C,0,39.843,6.85,31.678\C,0,40.333,5.592,33.842\C,0,40.623,9.301,34.23
 8\C,0,41.458,9.84,35.381\C,0,40.865,10.73,36.445\O,0,39.649,10.945,36.

 Normal termination of Gaussian 16 at Fri Apr 29 14:23:06 2022.
