 Gaussian 16, Revision A.03,
 Gaussian 16:  ES64L-G16RevA.03 25-Dec-2016

 ------------------------------
 #p blyp/Def2SVP td=(nstates=5)
 ------------------------------

 ---------------------------------------------------
 step_1401_chromophore_10 TDDFT with blyp functional
 ---------------------------------------------------
 Symbolic Z-matrix:
 Charge =  0 Multiplicity = 1

                         Standard orientation:
 ---------------------------------------------------------------------
 Center     Atomic      Atomic             Coordinates (Angstroms)
 Number     Number       Type             X           Y           Z
 ---------------------------------------------------------------------
      1         12           0        5.546565    0.515619   -0.027592
      2          6           0        3.341176   -2.131152    0.686806
      3          6           0        3.122746    1.962241   -1.871574
      4          6           0        7.801193    2.694830   -0.934503
      5          6           0        8.025119   -1.385457    1.540210
      6          7           0        3.431277   -0.015220   -0.456893
      7          6           0        2.765539   -1.148170   -0.088976
      8          6           0        1.356551   -1.145203   -0.580576
      9          6           0        1.396419   -0.025982   -1.660786
     10          6           0        2.740612    0.744159   -1.235190
     11          6           0        1.479845   -0.416152   -3.168893
     12          6           0        0.313792   -0.873772    0.564273
     13          6           0       -1.213486   -0.958041    0.230440
     14          6           0       -2.095756   -2.127880    0.504386
     15          8           0       -1.899587   -3.199125    1.086734
     16          8           0       -3.360581   -1.764026    0.001619
     17          7           0        5.471122    2.052212   -1.242048
     18          6           0        4.343812    2.598730   -1.803841
     19          6           0        4.535035    3.897188   -2.368723
     20          6           0        5.912373    4.198562   -2.061145
     21          6           0        6.485166    2.909762   -1.386796
     22          6           0        3.576027    4.723971   -3.253970
     23          6           0        6.709927    5.554161   -2.253971
     24          8           0        7.855012    5.659969   -2.011272
     25          6           0        5.953971    6.727726   -2.763089
     26          7           0        7.643528    0.554780    0.037701
     27          6           0        8.276034    1.714326   -0.203117
     28          6           0        9.691014    1.664565    0.237646
     29          6           0        9.640490    0.515883    1.319976
     30          6           0        8.394658   -0.160587    0.941473
     31          6           0       10.701948    1.418055   -0.939716
     32          6           0        9.817253    1.136344    2.784802
     33          6           0        8.615007    1.835237    3.415879
     34          7           0        5.716592   -1.299384    0.983857
     35          6           0        6.803611   -1.995797    1.560556
     36          6           0        6.403609   -3.259699    2.154335
     37          6           0        5.003835   -3.315337    1.914946
     38          6           0        4.676762   -2.186359    1.144330
     39          6           0        7.271592   -4.279407    2.853838
     40          6           0        3.868179   -4.129057    2.066939
     41          8           0        3.792200   -5.302718    2.541567
     42          6           0        2.682829   -3.403101    1.369723
     43          6           0        2.202174   -4.365314    0.340944
     44          8           0        2.831684   -5.007615   -0.448148
     45          8           0        0.834383   -4.474611    0.446396
     46          6           0        0.199131   -5.308066   -0.571101
     47          6           0       -4.447519   -2.841266    0.045387
     48          6           0       -5.221852   -2.685655   -1.232123
     49          6           0       -6.366662   -3.311613   -1.532972
     50          6           0       -7.263050   -4.244918   -0.695225
     51          6           0       -7.065520   -3.027306   -2.879920
     52          6           0       -7.911106   -1.710957   -2.818477
     53          6           0       -9.380888   -1.997841   -3.202574
     54          6           0      -10.307859   -2.155149   -1.966798
     55          6           0      -11.459934   -3.148333   -2.269171
     56          6           0      -10.907390   -0.773455   -1.472213
     57          6           0      -10.609801   -0.294138   -0.016206
     58          6           0      -10.564650    1.218135    0.101378
     59          6           0      -11.753786    1.845973    0.878857
     60          6           0      -13.090699    1.679669    0.141073
     61          6           0      -11.484882    3.337134    1.303731
     62          6           0      -11.364284    3.581584    2.801026
     63          6           0       -9.935065    4.070157    3.093477
     64          6           0       -9.858710    5.614181    3.211498
     65          6           0       -8.730531    6.179037    2.281360
     66          6           0       -9.788775    6.225933    4.662660
     67          1           0        2.326778    2.462495   -2.427302
     68          1           0        8.485595    3.519200   -1.143998
     69          1           0        8.876898   -1.916773    1.969336
     70          1           0        1.232409   -2.123443   -1.046118
     71          1           0        0.624969    0.738497   -1.567562
     72          1           0        2.404861    0.016884   -3.550135
     73          1           0        0.623110   -0.036369   -3.726388
     74          1           0        1.536039   -1.502995   -3.227239
     75          1           0        0.383379    0.171583    0.863725
     76          1           0        0.416721   -1.432926    1.494859
     77          1           0       -1.385809   -0.710335   -0.816691
     78          1           0       -1.814319   -0.236418    0.785294
     79          1           0        3.329824    5.620190   -2.684132
     80          1           0        2.689990    4.194437   -3.603733
     81          1           0        4.095808    5.059052   -4.151853
     82          1           0        5.942714    6.775972   -3.851239
     83          1           0        6.595597    7.572433   -2.510123
     84          1           0        5.015967    6.952230   -2.256171
     85          1           0        9.860699    2.598140    0.774160
     86          1           0       10.511962   -0.137589    1.309897
     87          1           0       11.128774    0.416668   -0.887139
     88          1           0       11.354957    2.286044   -0.847977
     89          1           0       10.095344    1.544065   -1.837339
     90          1           0       10.549926    1.934512    2.666094
     91          1           0       10.146380    0.363639    3.479956
     92          1           0        7.913458    2.243112    2.688220
     93          1           0        9.020289    2.750026    3.846776
     94          1           0        8.128376    1.204402    4.160453
     95          1           0        7.616361   -4.949789    2.066377
     96          1           0        6.635529   -4.992116    3.379769
     97          1           0        8.054457   -3.743550    3.390354
     98          1           0        1.872202   -3.232015    2.078835
     99          1           0        0.363160   -4.663082   -1.434016
    100          1           0       -0.833288   -5.593525   -0.368989
    101          1           0        0.633943   -6.295849   -0.727089
    102          1           0       -5.208061   -2.682569    0.810517
    103          1           0       -4.124350   -3.876569   -0.059030
    104          1           0       -4.713165   -2.083115   -1.985465
    105          1           0       -7.805380   -4.949904   -1.324929
    106          1           0       -7.873717   -3.725670    0.043631
    107          1           0       -6.687523   -5.003791   -0.164614
    108          1           0       -7.665623   -3.896479   -3.148609
    109          1           0       -6.286419   -3.019222   -3.641612
    110          1           0       -7.622880   -0.916505   -3.507819
    111          1           0       -7.861107   -1.307379   -1.807213
    112          1           0       -9.464770   -2.849362   -3.877915
    113          1           0       -9.663111   -1.120287   -3.784626
    114          1           0       -9.700462   -2.574855   -1.164537
    115          1           0      -11.805477   -2.692317   -3.196874
    116          1           0      -12.210523   -3.051673   -1.485459
    117          1           0      -11.008231   -4.138601   -2.329490
    118          1           0      -11.994511   -0.797011   -1.550791
    119          1           0      -10.503486   -0.051955   -2.183038
    120          1           0       -9.765408   -0.795321    0.455856
    121          1           0      -11.468672   -0.646689    0.556119
    122          1           0      -10.757396    1.607434   -0.898645
    123          1           0       -9.616350    1.614216    0.465677
    124          1           0      -11.815756    1.177723    1.737134
    125          1           0      -13.906202    1.909226    0.826454
    126          1           0      -13.167889    0.647677   -0.201928
    127          1           0      -13.105297    2.252222   -0.786656
    128          1           0      -12.326347    3.943462    0.969371
    129          1           0      -10.671449    3.791387    0.737575
    130          1           0      -11.360549    2.704054    3.447741
    131          1           0      -12.134537    4.254242    3.178058
    132          1           0       -9.342706    3.590243    2.314389
    133          1           0       -9.536175    3.643229    4.013833
    134          1           0      -10.711572    6.052694    2.693876
    135          1           0       -8.545856    5.581842    1.388306
    136          1           0       -7.776765    6.290294    2.796178
    137          1           0       -9.056428    7.146868    1.897095
    138          1           0       -8.860623    6.159371    5.230460
    139          1           0      -10.622738    5.745939    5.173571
    140          1           0      -10.218195    7.226938    4.690327
 ---------------------------------------------------------------------

 SCF Done:  E(RB-LYP) =  -3007.34313718     A.U. after   22 cycles

 Excitation energies and oscillator strengths:

 Excited State   1:      Singlet-A      1.7546 eV  706.64 nm  f=0.2676  <S**2>=0.000
     244 -> 247        0.11709
     245 -> 248       -0.16814
     246 -> 247        0.68679
     246 <- 247       -0.15647
 This state for optimization and/or second-order correction.
 Total Energy, E(TD-HF/TD-DFT) =  -3007.27865813
 Copying the excited state density for this state as the 1-particle RhoCI density.

 Excited State   2:      Singlet-A      1.8242 eV  679.66 nm  f=0.0102  <S**2>=0.000
     244 -> 247        0.65325
     245 -> 247        0.24342
     246 -> 247       -0.11039

 Excited State   3:      Singlet-A      2.1060 eV  588.73 nm  f=0.0681  <S**2>=0.000
     241 -> 247        0.10571
     244 -> 247       -0.21775
     245 -> 247        0.58456
     246 -> 248        0.29486

 Excited State   4:      Singlet-A      2.3043 eV  538.05 nm  f=0.0004  <S**2>=0.000
     243 -> 247        0.70521

 Excited State   5:      Singlet-A      2.3766 eV  521.68 nm  f=0.0000  <S**2>=0.000
     241 -> 247        0.23801
     242 -> 247        0.66576

 The electronic state is 1-A.
 Alpha  occ. eigenvalues --  -46.26286 -18.81736 -18.80307 -18.77054 -18.76625
 Alpha  occ. eigenvalues --  -18.75476 -18.74642 -14.03311 -14.02395 -14.01474
 Alpha  occ. eigenvalues --  -14.00559 -10.04285 -10.02407 -10.00460  -9.98515
 Alpha  occ. eigenvalues --   -9.98182  -9.96491  -9.96417  -9.96241  -9.96180
 Alpha  occ. eigenvalues --   -9.95945  -9.95660  -9.94944  -9.94700  -9.94544
 Alpha  occ. eigenvalues --   -9.94381  -9.94315  -9.94262  -9.94203  -9.94100
 Alpha  occ. eigenvalues --   -9.94073  -9.93625  -9.93619  -9.93612  -9.93441
 Alpha  occ. eigenvalues --   -9.93237  -9.92967  -9.92960  -9.92921  -9.92692
 Alpha  occ. eigenvalues --   -9.92676  -9.92608  -9.92388  -9.92256  -9.92216
 Alpha  occ. eigenvalues --   -9.92167  -9.91980  -9.91784  -9.91781  -9.91778
 Alpha  occ. eigenvalues --   -9.91740  -9.91638  -9.91615  -9.91390  -9.91318
 Alpha  occ. eigenvalues --   -9.91258  -9.91014  -9.90990  -9.90987  -9.90981
 Alpha  occ. eigenvalues --   -9.90979  -9.90899  -9.90804  -9.90636  -9.90609
 Alpha  occ. eigenvalues --   -9.90394  -2.91217  -1.71619  -1.71090  -1.70953
 Alpha  occ. eigenvalues --   -0.97070  -0.95920  -0.94972  -0.89162  -0.88540
 Alpha  occ. eigenvalues --   -0.88113  -0.87833  -0.86934  -0.85917  -0.84413
 Alpha  occ. eigenvalues --   -0.75139  -0.73558  -0.73125  -0.72782  -0.72737
 Alpha  occ. eigenvalues --   -0.71828  -0.71750  -0.71124  -0.70751  -0.70323
 Alpha  occ. eigenvalues --   -0.69595  -0.69512  -0.67900  -0.67549  -0.67428
 Alpha  occ. eigenvalues --   -0.66727  -0.66360  -0.65505  -0.65043  -0.64780
 Alpha  occ. eigenvalues --   -0.64268  -0.63020  -0.62367  -0.62019  -0.60692
 Alpha  occ. eigenvalues --   -0.60345  -0.60152  -0.59785  -0.59487  -0.58769
 Alpha  occ. eigenvalues --   -0.58456  -0.57596  -0.56756  -0.55661  -0.55036
 Alpha  occ. eigenvalues --   -0.54008  -0.53621  -0.53011  -0.52197  -0.51777
 Alpha  occ. eigenvalues --   -0.51267  -0.50941  -0.50578  -0.49809  -0.49572
 Alpha  occ. eigenvalues --   -0.49090  -0.48858  -0.48590  -0.47605  -0.46748
 Alpha  occ. eigenvalues --   -0.46050  -0.45869  -0.45302  -0.44878  -0.44207
 Alpha  occ. eigenvalues --   -0.43513  -0.43334  -0.42910  -0.42522  -0.42159
 Alpha  occ. eigenvalues --   -0.41782  -0.41724  -0.41648  -0.41525  -0.41294
 Alpha  occ. eigenvalues --   -0.41188  -0.40724  -0.40659  -0.40362  -0.40328
 Alpha  occ. eigenvalues --   -0.40130  -0.39659  -0.39431  -0.39176  -0.39105
 Alpha  occ. eigenvalues --   -0.38790  -0.38710  -0.38470  -0.38314  -0.38239
 Alpha  occ. eigenvalues --   -0.38118  -0.38005  -0.37659  -0.37625  -0.37536
 Alpha  occ. eigenvalues --   -0.37108  -0.37003  -0.36861  -0.36568  -0.36452
 Alpha  occ. eigenvalues --   -0.36438  -0.36312  -0.35914  -0.35800  -0.35752
 Alpha  occ. eigenvalues --   -0.35524  -0.35215  -0.34854  -0.34760  -0.34720
 Alpha  occ. eigenvalues --   -0.34602  -0.34501  -0.34177  -0.34143  -0.33793
 Alpha  occ. eigenvalues --   -0.33697  -0.33557  -0.33235  -0.33063  -0.32908
 Alpha  occ. eigenvalues --   -0.32806  -0.32764  -0.32640  -0.32477  -0.32415
 Alpha  occ. eigenvalues --   -0.32333  -0.32304  -0.31972  -0.31424  -0.31216
 Alpha  occ. eigenvalues --   -0.31070  -0.31054  -0.30948  -0.30895  -0.30626
 Alpha  occ. eigenvalues --   -0.30592  -0.30110  -0.29902  -0.29776  -0.29675
 Alpha  occ. eigenvalues --   -0.29528  -0.29429  -0.29257  -0.29179  -0.28888
 Alpha  occ. eigenvalues --   -0.28673  -0.28639  -0.28264  -0.28126  -0.27816
 Alpha  occ. eigenvalues --   -0.27631  -0.27227  -0.26893  -0.26873  -0.26567
 Alpha  occ. eigenvalues --   -0.26206  -0.26062  -0.25421  -0.25393  -0.25245
 Alpha  occ. eigenvalues --   -0.24970  -0.24803  -0.24233  -0.23693  -0.23593
 Alpha  occ. eigenvalues --   -0.23380  -0.22044  -0.21793  -0.21222  -0.20849
 Alpha  occ. eigenvalues --   -0.20048  -0.20038  -0.19665  -0.17896  -0.17677
 Alpha  occ. eigenvalues --   -0.15361
 Alpha virt. eigenvalues --   -0.11306  -0.06817  -0.06220  -0.04494  -0.02723
 Alpha virt. eigenvalues --   -0.02296  -0.01683  -0.01377  -0.01003   0.00637
 Alpha virt. eigenvalues --    0.01462   0.01476   0.01905   0.02090   0.02861

 Mulliken charges:
               1
     1  Mg   0.692516
     2  C    0.013504
     3  C   -0.102814
     4  C   -0.071059
     5  C   -0.138072
     6  N   -0.142245
     7  C   -0.122373
     8  C    0.102604
     9  C   -0.064748
    10  C   -0.018476
    11  C    0.147968
    12  C    0.188460
    13  C    0.057101
    14  C    0.102937
    15  O   -0.180621
    16  O   -0.331360
    17  N   -0.310879
    18  C    0.191387
    19  C   -0.158236
    20  C   -0.025551
    21  C    0.094785
    22  C    0.190977
    23  C   -0.072674
    24  O   -0.106383
    25  C    0.124866
    26  N   -0.228943
    27  C    0.048945
    28  C    0.001364
    29  C    0.012954
    30  C    0.081739
    31  C    0.171406
    32  C    0.065610
    33  C    0.060744
    34  N   -0.283962
    35  C    0.176080
    36  C   -0.189726
    37  C    0.141703
    38  C    0.086136
    39  C    0.205719
    40  C   -0.081644
    41  O   -0.182708
    42  C    0.099369
    43  C    0.057269
    44  O   -0.151506
    45  O   -0.266574
    46  C    0.230126
    47  C    0.338047
    48  C   -0.129210
    49  C   -0.170890
    50  C    0.129731
    51  C    0.141411
    52  C    0.098901
    53  C    0.076420
    54  C   -0.084879
    55  C    0.098498
    56  C    0.075819
    57  C    0.090965
    58  C    0.092751
    59  C   -0.076870
    60  C    0.103832
    61  C    0.135671
    62  C    0.064071
    63  C    0.086370
    64  C   -0.055391
    65  C    0.071118
    66  C    0.115078
    67  H   -0.071217
    68  H   -0.054908
    69  H   -0.065376
    70  H   -0.019807
    71  H   -0.034030
    72  H    0.000895
    73  H   -0.003235
    74  H   -0.005599
    75  H   -0.037622
    76  H   -0.008438
    77  H   -0.000728
    78  H    0.007541
    79  H    0.000889
    80  H   -0.003851
    81  H    0.003375
    82  H    0.017495
    83  H   -0.021278
    84  H    0.006118
    85  H   -0.034904
    86  H   -0.038156
    87  H    0.005163
    88  H    0.003755
    89  H   -0.005429
    90  H   -0.019509
    91  H   -0.018287
    92  H   -0.005351
    93  H   -0.018167
    94  H    0.008119
    95  H    0.001326
    96  H   -0.000495
    97  H    0.009457
    98  H    0.009371
    99  H   -0.007794
   100  H    0.017736
   101  H    0.010384
   102  H    0.011245
   103  H    0.028426
   104  H   -0.035012
   105  H   -0.015192
   106  H    0.030892
   107  H   -0.023787
   108  H   -0.037099
   109  H   -0.031150
   110  H   -0.033639
   111  H   -0.015767
   112  H   -0.036050
   113  H   -0.041163
   114  H   -0.045023
   115  H   -0.005661
   116  H   -0.012570
   117  H   -0.005699
   118  H   -0.031058
   119  H   -0.031433
   120  H   -0.033185
   121  H   -0.037706
   122  H   -0.040795
   123  H   -0.030213
   124  H   -0.040854
   125  H   -0.005961
   126  H   -0.028987
   127  H   -0.017367
   128  H   -0.052816
   129  H   -0.031484
   130  H   -0.029374
   131  H   -0.025857
   132  H   -0.036539
   133  H   -0.048069
   134  H   -0.038137
   135  H   -0.022882
   136  H   -0.019026
   137  H   -0.024719
   138  H    0.006066
   139  H   -0.031718
   140  H   -0.025236
 Sum of Mulliken charges =  -0.00000

 Dipole moment (field-independent basis, Debye):
    X=             -2.7121    Y=              5.7634    Z=             -1.7414  Tot=              6.6034
 Quadrupole moment (field-independent basis, Debye-Ang):
   XX=           -379.7074   YY=           -432.4974   ZZ=           -401.8114
   XY=             16.6537   XZ=             11.6946   YZ=             10.2405

 Normal termination of Gaussian 16 at Wed May  4 05:47:18 2022.
