 Gaussian 16, Revision A.03,
 Gaussian 16:  ES64L-G16RevA.03 25-Dec-2016

 -----------------------------------
 #p cam-b3lyp/Def2SVP td=(nstates=5)
 -----------------------------------

 --------------------------------------------------------
 step_1401_chromophore_10 TDDFT with cam-b3lyp functional
 --------------------------------------------------------
 Symbolic Z-matrix:
 Charge =  0 Multiplicity = 1

                         Standard orientation:
 ---------------------------------------------------------------------
 Center     Atomic      Atomic             Coordinates (Angstroms)
 Number     Number       Type             X           Y           Z
 ---------------------------------------------------------------------
      1         12           0        5.546565    0.515619   -0.027592
      2          6           0        3.341176   -2.131152    0.686806
      3          6           0        3.122746    1.962241   -1.871574
      4          6           0        7.801193    2.694830   -0.934503
      5          6           0        8.025119   -1.385457    1.540210
      6          7           0        3.431277   -0.015220   -0.456893
      7          6           0        2.765539   -1.148170   -0.088976
      8          6           0        1.356551   -1.145203   -0.580576
      9          6           0        1.396419   -0.025982   -1.660786
     10          6           0        2.740612    0.744159   -1.235190
     11          6           0        1.479845   -0.416152   -3.168893
     12          6           0        0.313792   -0.873772    0.564273
     13          6           0       -1.213486   -0.958041    0.230440
     14          6           0       -2.095756   -2.127880    0.504386
     15          8           0       -1.899587   -3.199125    1.086734
     16          8           0       -3.360581   -1.764026    0.001619
     17          7           0        5.471122    2.052212   -1.242048
     18          6           0        4.343812    2.598730   -1.803841
     19          6           0        4.535035    3.897188   -2.368723
     20          6           0        5.912373    4.198562   -2.061145
     21          6           0        6.485166    2.909762   -1.386796
     22          6           0        3.576027    4.723971   -3.253970
     23          6           0        6.709927    5.554161   -2.253971
     24          8           0        7.855012    5.659969   -2.011272
     25          6           0        5.953971    6.727726   -2.763089
     26          7           0        7.643528    0.554780    0.037701
     27          6           0        8.276034    1.714326   -0.203117
     28          6           0        9.691014    1.664565    0.237646
     29          6           0        9.640490    0.515883    1.319976
     30          6           0        8.394658   -0.160587    0.941473
     31          6           0       10.701948    1.418055   -0.939716
     32          6           0        9.817253    1.136344    2.784802
     33          6           0        8.615007    1.835237    3.415879
     34          7           0        5.716592   -1.299384    0.983857
     35          6           0        6.803611   -1.995797    1.560556
     36          6           0        6.403609   -3.259699    2.154335
     37          6           0        5.003835   -3.315337    1.914946
     38          6           0        4.676762   -2.186359    1.144330
     39          6           0        7.271592   -4.279407    2.853838
     40          6           0        3.868179   -4.129057    2.066939
     41          8           0        3.792200   -5.302718    2.541567
     42          6           0        2.682829   -3.403101    1.369723
     43          6           0        2.202174   -4.365314    0.340944
     44          8           0        2.831684   -5.007615   -0.448148
     45          8           0        0.834383   -4.474611    0.446396
     46          6           0        0.199131   -5.308066   -0.571101
     47          6           0       -4.447519   -2.841266    0.045387
     48          6           0       -5.221852   -2.685655   -1.232123
     49          6           0       -6.366662   -3.311613   -1.532972
     50          6           0       -7.263050   -4.244918   -0.695225
     51          6           0       -7.065520   -3.027306   -2.879920
     52          6           0       -7.911106   -1.710957   -2.818477
     53          6           0       -9.380888   -1.997841   -3.202574
     54          6           0      -10.307859   -2.155149   -1.966798
     55          6           0      -11.459934   -3.148333   -2.269171
     56          6           0      -10.907390   -0.773455   -1.472213
     57          6           0      -10.609801   -0.294138   -0.016206
     58          6           0      -10.564650    1.218135    0.101378
     59          6           0      -11.753786    1.845973    0.878857
     60          6           0      -13.090699    1.679669    0.141073
     61          6           0      -11.484882    3.337134    1.303731
     62          6           0      -11.364284    3.581584    2.801026
     63          6           0       -9.935065    4.070157    3.093477
     64          6           0       -9.858710    5.614181    3.211498
     65          6           0       -8.730531    6.179037    2.281360
     66          6           0       -9.788775    6.225933    4.662660
     67          1           0        2.326778    2.462495   -2.427302
     68          1           0        8.485595    3.519200   -1.143998
     69          1           0        8.876898   -1.916773    1.969336
     70          1           0        1.232409   -2.123443   -1.046118
     71          1           0        0.624969    0.738497   -1.567562
     72          1           0        2.404861    0.016884   -3.550135
     73          1           0        0.623110   -0.036369   -3.726388
     74          1           0        1.536039   -1.502995   -3.227239
     75          1           0        0.383379    0.171583    0.863725
     76          1           0        0.416721   -1.432926    1.494859
     77          1           0       -1.385809   -0.710335   -0.816691
     78          1           0       -1.814319   -0.236418    0.785294
     79          1           0        3.329824    5.620190   -2.684132
     80          1           0        2.689990    4.194437   -3.603733
     81          1           0        4.095808    5.059052   -4.151853
     82          1           0        5.942714    6.775972   -3.851239
     83          1           0        6.595597    7.572433   -2.510123
     84          1           0        5.015967    6.952230   -2.256171
     85          1           0        9.860699    2.598140    0.774160
     86          1           0       10.511962   -0.137589    1.309897
     87          1           0       11.128774    0.416668   -0.887139
     88          1           0       11.354957    2.286044   -0.847977
     89          1           0       10.095344    1.544065   -1.837339
     90          1           0       10.549926    1.934512    2.666094
     91          1           0       10.146380    0.363639    3.479956
     92          1           0        7.913458    2.243112    2.688220
     93          1           0        9.020289    2.750026    3.846776
     94          1           0        8.128376    1.204402    4.160453
     95          1           0        7.616361   -4.949789    2.066377
     96          1           0        6.635529   -4.992116    3.379769
     97          1           0        8.054457   -3.743550    3.390354
     98          1           0        1.872202   -3.232015    2.078835
     99          1           0        0.363160   -4.663082   -1.434016
    100          1           0       -0.833288   -5.593525   -0.368989
    101          1           0        0.633943   -6.295849   -0.727089
    102          1           0       -5.208061   -2.682569    0.810517
    103          1           0       -4.124350   -3.876569   -0.059030
    104          1           0       -4.713165   -2.083115   -1.985465
    105          1           0       -7.805380   -4.949904   -1.324929
    106          1           0       -7.873717   -3.725670    0.043631
    107          1           0       -6.687523   -5.003791   -0.164614
    108          1           0       -7.665623   -3.896479   -3.148609
    109          1           0       -6.286419   -3.019222   -3.641612
    110          1           0       -7.622880   -0.916505   -3.507819
    111          1           0       -7.861107   -1.307379   -1.807213
    112          1           0       -9.464770   -2.849362   -3.877915
    113          1           0       -9.663111   -1.120287   -3.784626
    114          1           0       -9.700462   -2.574855   -1.164537
    115          1           0      -11.805477   -2.692317   -3.196874
    116          1           0      -12.210523   -3.051673   -1.485459
    117          1           0      -11.008231   -4.138601   -2.329490
    118          1           0      -11.994511   -0.797011   -1.550791
    119          1           0      -10.503486   -0.051955   -2.183038
    120          1           0       -9.765408   -0.795321    0.455856
    121          1           0      -11.468672   -0.646689    0.556119
    122          1           0      -10.757396    1.607434   -0.898645
    123          1           0       -9.616350    1.614216    0.465677
    124          1           0      -11.815756    1.177723    1.737134
    125          1           0      -13.906202    1.909226    0.826454
    126          1           0      -13.167889    0.647677   -0.201928
    127          1           0      -13.105297    2.252222   -0.786656
    128          1           0      -12.326347    3.943462    0.969371
    129          1           0      -10.671449    3.791387    0.737575
    130          1           0      -11.360549    2.704054    3.447741
    131          1           0      -12.134537    4.254242    3.178058
    132          1           0       -9.342706    3.590243    2.314389
    133          1           0       -9.536175    3.643229    4.013833
    134          1           0      -10.711572    6.052694    2.693876
    135          1           0       -8.545856    5.581842    1.388306
    136          1           0       -7.776765    6.290294    2.796178
    137          1           0       -9.056428    7.146868    1.897095
    138          1           0       -8.860623    6.159371    5.230460
    139          1           0      -10.622738    5.745939    5.173571
    140          1           0      -10.218195    7.226938    4.690327
 ---------------------------------------------------------------------

 SCF Done:  E(RCAM-B3LYP) =  -3007.14187205     A.U. after   17 cycles

 Excitation energies and oscillator strengths:

 Excited State   1:      Singlet-A      1.6798 eV  738.11 nm  f=0.3655  <S**2>=0.000
     245 -> 248       -0.16908
     246 -> 247        0.68861
     245 <- 248       -0.10651
 This state for optimization and/or second-order correction.
 Total Energy, E(TD-HF/TD-DFT) =  -3007.08014195
 Copying the excited state density for this state as the 1-particle RhoCI density.

 Excited State   2:      Singlet-A      2.3622 eV  524.87 nm  f=0.0518  <S**2>=0.000
     245 -> 247        0.59138
     246 -> 248        0.37528

 Excited State   3:      Singlet-A      3.3467 eV  370.47 nm  f=0.0607  <S**2>=0.000
     242 -> 247        0.30423
     242 -> 249        0.24436
     242 -> 250        0.14471
     244 -> 247        0.47308
     244 -> 249        0.12027
     245 -> 247        0.10305
     246 -> 248       -0.22780

 Excited State   4:      Singlet-A      3.4291 eV  361.56 nm  f=0.4451  <S**2>=0.000
     242 -> 247        0.35343
     242 -> 249        0.21857
     242 -> 250        0.11408
     244 -> 247       -0.13622
     245 -> 247       -0.27084
     246 -> 248        0.45170

 Excited State   5:      Singlet-A      3.5298 eV  351.25 nm  f=0.3849  <S**2>=0.000
     241 -> 247       -0.15911
     242 -> 247       -0.28808
     242 -> 249       -0.11725
     244 -> 247        0.45539
     245 -> 247       -0.23540
     246 -> 248        0.30834

 The electronic state is 1-A.
 Alpha  occ. eigenvalues --  -46.87759 -19.24644 -19.23114 -19.20157 -19.19978
 Alpha  occ. eigenvalues --  -19.18524 -19.17579 -14.42308 -14.41037 -14.40142
 Alpha  occ. eigenvalues --  -14.38837 -10.39611 -10.37709 -10.35902 -10.33693
 Alpha  occ. eigenvalues --  -10.32288 -10.31354 -10.31126 -10.30454 -10.30343
 Alpha  occ. eigenvalues --  -10.30147 -10.30047 -10.29443 -10.29088 -10.28829
 Alpha  occ. eigenvalues --  -10.28561 -10.28455 -10.28380 -10.28374 -10.28326
 Alpha  occ. eigenvalues --  -10.28154 -10.28032 -10.27982 -10.27975 -10.27737
 Alpha  occ. eigenvalues --  -10.27339 -10.26953 -10.26835 -10.26771 -10.26551
 Alpha  occ. eigenvalues --  -10.26483 -10.26420 -10.26330 -10.26023 -10.25963
 Alpha  occ. eigenvalues --  -10.25758 -10.25664 -10.25622 -10.25578 -10.25526
 Alpha  occ. eigenvalues --  -10.25495 -10.25327 -10.25223 -10.25016 -10.25011
 Alpha  occ. eigenvalues --  -10.25000 -10.24891 -10.24717 -10.24664 -10.24610
 Alpha  occ. eigenvalues --  -10.24600 -10.24566 -10.24415 -10.24415 -10.24302
 Alpha  occ. eigenvalues --  -10.24028  -3.16607  -1.91481  -1.91051  -1.90950
 Alpha  occ. eigenvalues --   -1.15589  -1.14304  -1.13814  -1.07046  -1.06285
 Alpha  occ. eigenvalues --   -1.06137  -1.05748  -1.04658  -1.03646  -1.01710
 Alpha  occ. eigenvalues --   -0.92171  -0.90452  -0.89945  -0.89623  -0.89555
 Alpha  occ. eigenvalues --   -0.88535  -0.88235  -0.87744  -0.87338  -0.87105
 Alpha  occ. eigenvalues --   -0.86008  -0.85901  -0.84163  -0.83639  -0.83601
 Alpha  occ. eigenvalues --   -0.82806  -0.82659  -0.81639  -0.80919  -0.80527
 Alpha  occ. eigenvalues --   -0.80082  -0.78641  -0.78339  -0.77458  -0.76027
 Alpha  occ. eigenvalues --   -0.75705  -0.75514  -0.75050  -0.74797  -0.74001
 Alpha  occ. eigenvalues --   -0.73527  -0.72540  -0.71687  -0.70469  -0.69545
 Alpha  occ. eigenvalues --   -0.68685  -0.68200  -0.67525  -0.66596  -0.66101
 Alpha  occ. eigenvalues --   -0.65530  -0.64824  -0.64758  -0.63659  -0.63619
 Alpha  occ. eigenvalues --   -0.63039  -0.62782  -0.62228  -0.61229  -0.60559
 Alpha  occ. eigenvalues --   -0.59649  -0.59303  -0.58673  -0.58294  -0.57554
 Alpha  occ. eigenvalues --   -0.57069  -0.56679  -0.56299  -0.55719  -0.55307
 Alpha  occ. eigenvalues --   -0.54854  -0.54720  -0.54573  -0.54265  -0.54096
 Alpha  occ. eigenvalues --   -0.54025  -0.53750  -0.53423  -0.53115  -0.52969
 Alpha  occ. eigenvalues --   -0.52861  -0.52384  -0.52065  -0.51936  -0.51708
 Alpha  occ. eigenvalues --   -0.51423  -0.51173  -0.51129  -0.51012  -0.50867
 Alpha  occ. eigenvalues --   -0.50665  -0.50454  -0.50191  -0.50027  -0.49670
 Alpha  occ. eigenvalues --   -0.49613  -0.49469  -0.49203  -0.48724  -0.48644
 Alpha  occ. eigenvalues --   -0.48494  -0.48366  -0.48343  -0.48153  -0.47980
 Alpha  occ. eigenvalues --   -0.47634  -0.47290  -0.46996  -0.46791  -0.46659
 Alpha  occ. eigenvalues --   -0.46554  -0.46328  -0.46104  -0.45873  -0.45643
 Alpha  occ. eigenvalues --   -0.45476  -0.45385  -0.45173  -0.44865  -0.44560
 Alpha  occ. eigenvalues --   -0.44465  -0.44396  -0.44298  -0.44186  -0.44044
 Alpha  occ. eigenvalues --   -0.43967  -0.43860  -0.43711  -0.43071  -0.42763
 Alpha  occ. eigenvalues --   -0.42629  -0.42420  -0.42364  -0.42271  -0.42045
 Alpha  occ. eigenvalues --   -0.41974  -0.41418  -0.41055  -0.41027  -0.40968
 Alpha  occ. eigenvalues --   -0.40754  -0.40629  -0.40440  -0.40355  -0.40109
 Alpha  occ. eigenvalues --   -0.39793  -0.39694  -0.39680  -0.39262  -0.38690
 Alpha  occ. eigenvalues --   -0.38488  -0.38210  -0.38068  -0.37728  -0.37278
 Alpha  occ. eigenvalues --   -0.37076  -0.36802  -0.36380  -0.36171  -0.36087
 Alpha  occ. eigenvalues --   -0.35862  -0.35362  -0.35248  -0.34590  -0.34091
 Alpha  occ. eigenvalues --   -0.33771  -0.33701  -0.32970  -0.32059  -0.31171
 Alpha  occ. eigenvalues --   -0.30771  -0.30134  -0.29814  -0.28935  -0.24670
 Alpha  occ. eigenvalues --   -0.20496
 Alpha virt. eigenvalues --   -0.08282  -0.01724   0.00247   0.02402   0.02662
 Alpha virt. eigenvalues --    0.05301   0.05717   0.05846   0.06518   0.07103
 Alpha virt. eigenvalues --    0.07941   0.08240   0.08501   0.08948   0.09069

 Mulliken charges:
               1
     1  Mg   0.830223
     2  C   -0.015476
     3  C   -0.113441
     4  C   -0.090546
     5  C   -0.138262
     6  N   -0.211962
     7  C   -0.080926
     8  C    0.046256
     9  C   -0.114380
    10  C    0.002713
    11  C    0.090241
    12  C    0.136327
    13  C   -0.011072
    14  C    0.186052
    15  O   -0.221871
    16  O   -0.397740
    17  N   -0.404350
    18  C    0.196504
    19  C   -0.160347
    20  C   -0.088948
    21  C    0.122432
    22  C    0.134580
    23  C    0.011265
    24  O   -0.144740
    25  C    0.034303
    26  N   -0.298415
    27  C    0.062269
    28  C   -0.054492
    29  C   -0.045559
    30  C    0.092739
    31  C    0.112603
    32  C    0.018059
    33  C    0.000280
    34  N   -0.369539
    35  C    0.169259
    36  C   -0.178330
    37  C    0.057307
    38  C    0.120413
    39  C    0.150931
    40  C    0.016303
    41  O   -0.222980
    42  C    0.021683
    43  C    0.150884
    44  O   -0.187965
    45  O   -0.329420
    46  C    0.190206
    47  C    0.307802
    48  C   -0.144700
    49  C   -0.197552
    50  C    0.067242
    51  C    0.080907
    52  C    0.045553
    53  C    0.019679
    54  C   -0.134406
    55  C    0.045039
    56  C    0.028434
    57  C    0.031179
    58  C    0.040861
    59  C   -0.128198
    60  C    0.049206
    61  C    0.073411
    62  C    0.008701
    63  C    0.031638
    64  C   -0.117982
    65  C    0.017924
    66  C    0.055360
    67  H   -0.034297
    68  H   -0.014087
    69  H   -0.030673
    70  H    0.011747
    71  H   -0.000190
    72  H    0.027042
    73  H    0.020883
    74  H    0.020030
    75  H   -0.005906
    76  H    0.021967
    77  H    0.029811
    78  H    0.040396
    79  H    0.027441
    80  H    0.024911
    81  H    0.030611
    82  H    0.047396
    83  H    0.016459
    84  H    0.034674
    85  H   -0.000136
    86  H   -0.002020
    87  H    0.029715
    88  H    0.026840
    89  H    0.020092
    90  H    0.007264
    91  H    0.009102
    92  H    0.013371
    93  H    0.005575
    94  H    0.031279
    95  H    0.028470
    96  H    0.028725
    97  H    0.030703
    98  H    0.053559
    99  H    0.011988
   100  H    0.040681
   101  H    0.035203
   102  H    0.036739
   103  H    0.056571
   104  H    0.000672
   105  H    0.010815
   106  H    0.052110
   107  H    0.003454
   108  H   -0.007995
   109  H   -0.000180
   110  H   -0.002875
   111  H    0.010865
   112  H   -0.005662
   113  H   -0.011683
   114  H   -0.017881
   115  H    0.015819
   116  H    0.011032
   117  H    0.016375
   118  H   -0.005036
   119  H   -0.004165
   120  H   -0.004384
   121  H   -0.008912
   122  H   -0.013240
   123  H   -0.001347
   124  H   -0.009762
   125  H    0.018699
   126  H   -0.007520
   127  H    0.005872
   128  H   -0.020270
   129  H   -0.004082
   130  H    0.000164
   131  H    0.002082
   132  H   -0.009089
   133  H   -0.016869
   134  H   -0.006894
   135  H   -0.000013
   136  H    0.003770
   137  H   -0.000596
   138  H    0.028635
   139  H   -0.007535
   140  H    0.000520
 Sum of Mulliken charges =  -0.00000

 Dipole moment (field-independent basis, Debye):
    X=             -3.1500    Y=              6.9013    Z=             -2.3901  Tot=              7.9538
 Quadrupole moment (field-independent basis, Debye-Ang):
   XX=           -382.0797   YY=           -428.3723   ZZ=           -400.6065
   XY=             22.4603   XZ=             10.1214   YZ=              8.4697

 Normal termination of Gaussian 16 at Wed May  4 04:44:38 2022.
