 Gaussian 16, Revision A.03,
 Gaussian 16:  ES64L-G16RevA.03 25-Dec-2016

 ---------------------------------
 #p PBE1PBE/Def2SVP td=(nstates=5)
 ---------------------------------

 ------------------------------------------------------
 step_1401_chromophore_10 TDDFT with PBE1PBE functional
 ------------------------------------------------------
 Symbolic Z-matrix:
 Charge =  0 Multiplicity = 1

                         Standard orientation:
 ---------------------------------------------------------------------
 Center     Atomic      Atomic             Coordinates (Angstroms)
 Number     Number       Type             X           Y           Z
 ---------------------------------------------------------------------
      1         12           0        5.546565    0.515619   -0.027592
      2          6           0        3.341176   -2.131152    0.686806
      3          6           0        3.122746    1.962241   -1.871574
      4          6           0        7.801193    2.694830   -0.934503
      5          6           0        8.025119   -1.385457    1.540210
      6          7           0        3.431277   -0.015220   -0.456893
      7          6           0        2.765539   -1.148170   -0.088976
      8          6           0        1.356551   -1.145203   -0.580576
      9          6           0        1.396419   -0.025982   -1.660786
     10          6           0        2.740612    0.744159   -1.235190
     11          6           0        1.479845   -0.416152   -3.168893
     12          6           0        0.313792   -0.873772    0.564273
     13          6           0       -1.213486   -0.958041    0.230440
     14          6           0       -2.095756   -2.127880    0.504386
     15          8           0       -1.899587   -3.199125    1.086734
     16          8           0       -3.360581   -1.764026    0.001619
     17          7           0        5.471122    2.052212   -1.242048
     18          6           0        4.343812    2.598730   -1.803841
     19          6           0        4.535035    3.897188   -2.368723
     20          6           0        5.912373    4.198562   -2.061145
     21          6           0        6.485166    2.909762   -1.386796
     22          6           0        3.576027    4.723971   -3.253970
     23          6           0        6.709927    5.554161   -2.253971
     24          8           0        7.855012    5.659969   -2.011272
     25          6           0        5.953971    6.727726   -2.763089
     26          7           0        7.643528    0.554780    0.037701
     27          6           0        8.276034    1.714326   -0.203117
     28          6           0        9.691014    1.664565    0.237646
     29          6           0        9.640490    0.515883    1.319976
     30          6           0        8.394658   -0.160587    0.941473
     31          6           0       10.701948    1.418055   -0.939716
     32          6           0        9.817253    1.136344    2.784802
     33          6           0        8.615007    1.835237    3.415879
     34          7           0        5.716592   -1.299384    0.983857
     35          6           0        6.803611   -1.995797    1.560556
     36          6           0        6.403609   -3.259699    2.154335
     37          6           0        5.003835   -3.315337    1.914946
     38          6           0        4.676762   -2.186359    1.144330
     39          6           0        7.271592   -4.279407    2.853838
     40          6           0        3.868179   -4.129057    2.066939
     41          8           0        3.792200   -5.302718    2.541567
     42          6           0        2.682829   -3.403101    1.369723
     43          6           0        2.202174   -4.365314    0.340944
     44          8           0        2.831684   -5.007615   -0.448148
     45          8           0        0.834383   -4.474611    0.446396
     46          6           0        0.199131   -5.308066   -0.571101
     47          6           0       -4.447519   -2.841266    0.045387
     48          6           0       -5.221852   -2.685655   -1.232123
     49          6           0       -6.366662   -3.311613   -1.532972
     50          6           0       -7.263050   -4.244918   -0.695225
     51          6           0       -7.065520   -3.027306   -2.879920
     52          6           0       -7.911106   -1.710957   -2.818477
     53          6           0       -9.380888   -1.997841   -3.202574
     54          6           0      -10.307859   -2.155149   -1.966798
     55          6           0      -11.459934   -3.148333   -2.269171
     56          6           0      -10.907390   -0.773455   -1.472213
     57          6           0      -10.609801   -0.294138   -0.016206
     58          6           0      -10.564650    1.218135    0.101378
     59          6           0      -11.753786    1.845973    0.878857
     60          6           0      -13.090699    1.679669    0.141073
     61          6           0      -11.484882    3.337134    1.303731
     62          6           0      -11.364284    3.581584    2.801026
     63          6           0       -9.935065    4.070157    3.093477
     64          6           0       -9.858710    5.614181    3.211498
     65          6           0       -8.730531    6.179037    2.281360
     66          6           0       -9.788775    6.225933    4.662660
     67          1           0        2.326778    2.462495   -2.427302
     68          1           0        8.485595    3.519200   -1.143998
     69          1           0        8.876898   -1.916773    1.969336
     70          1           0        1.232409   -2.123443   -1.046118
     71          1           0        0.624969    0.738497   -1.567562
     72          1           0        2.404861    0.016884   -3.550135
     73          1           0        0.623110   -0.036369   -3.726388
     74          1           0        1.536039   -1.502995   -3.227239
     75          1           0        0.383379    0.171583    0.863725
     76          1           0        0.416721   -1.432926    1.494859
     77          1           0       -1.385809   -0.710335   -0.816691
     78          1           0       -1.814319   -0.236418    0.785294
     79          1           0        3.329824    5.620190   -2.684132
     80          1           0        2.689990    4.194437   -3.603733
     81          1           0        4.095808    5.059052   -4.151853
     82          1           0        5.942714    6.775972   -3.851239
     83          1           0        6.595597    7.572433   -2.510123
     84          1           0        5.015967    6.952230   -2.256171
     85          1           0        9.860699    2.598140    0.774160
     86          1           0       10.511962   -0.137589    1.309897
     87          1           0       11.128774    0.416668   -0.887139
     88          1           0       11.354957    2.286044   -0.847977
     89          1           0       10.095344    1.544065   -1.837339
     90          1           0       10.549926    1.934512    2.666094
     91          1           0       10.146380    0.363639    3.479956
     92          1           0        7.913458    2.243112    2.688220
     93          1           0        9.020289    2.750026    3.846776
     94          1           0        8.128376    1.204402    4.160453
     95          1           0        7.616361   -4.949789    2.066377
     96          1           0        6.635529   -4.992116    3.379769
     97          1           0        8.054457   -3.743550    3.390354
     98          1           0        1.872202   -3.232015    2.078835
     99          1           0        0.363160   -4.663082   -1.434016
    100          1           0       -0.833288   -5.593525   -0.368989
    101          1           0        0.633943   -6.295849   -0.727089
    102          1           0       -5.208061   -2.682569    0.810517
    103          1           0       -4.124350   -3.876569   -0.059030
    104          1           0       -4.713165   -2.083115   -1.985465
    105          1           0       -7.805380   -4.949904   -1.324929
    106          1           0       -7.873717   -3.725670    0.043631
    107          1           0       -6.687523   -5.003791   -0.164614
    108          1           0       -7.665623   -3.896479   -3.148609
    109          1           0       -6.286419   -3.019222   -3.641612
    110          1           0       -7.622880   -0.916505   -3.507819
    111          1           0       -7.861107   -1.307379   -1.807213
    112          1           0       -9.464770   -2.849362   -3.877915
    113          1           0       -9.663111   -1.120287   -3.784626
    114          1           0       -9.700462   -2.574855   -1.164537
    115          1           0      -11.805477   -2.692317   -3.196874
    116          1           0      -12.210523   -3.051673   -1.485459
    117          1           0      -11.008231   -4.138601   -2.329490
    118          1           0      -11.994511   -0.797011   -1.550791
    119          1           0      -10.503486   -0.051955   -2.183038
    120          1           0       -9.765408   -0.795321    0.455856
    121          1           0      -11.468672   -0.646689    0.556119
    122          1           0      -10.757396    1.607434   -0.898645
    123          1           0       -9.616350    1.614216    0.465677
    124          1           0      -11.815756    1.177723    1.737134
    125          1           0      -13.906202    1.909226    0.826454
    126          1           0      -13.167889    0.647677   -0.201928
    127          1           0      -13.105297    2.252222   -0.786656
    128          1           0      -12.326347    3.943462    0.969371
    129          1           0      -10.671449    3.791387    0.737575
    130          1           0      -11.360549    2.704054    3.447741
    131          1           0      -12.134537    4.254242    3.178058
    132          1           0       -9.342706    3.590243    2.314389
    133          1           0       -9.536175    3.643229    4.013833
    134          1           0      -10.711572    6.052694    2.693876
    135          1           0       -8.545856    5.581842    1.388306
    136          1           0       -7.776765    6.290294    2.796178
    137          1           0       -9.056428    7.146868    1.897095
    138          1           0       -8.860623    6.159371    5.230460
    139          1           0      -10.622738    5.745939    5.173571
    140          1           0      -10.218195    7.226938    4.690327
 ---------------------------------------------------------------------

 SCF Done:  E(RPBE1PBE) =  -3005.32916026     A.U. after   15 cycles

 Excitation energies and oscillator strengths:

 Excited State   1:      Singlet-A      1.8144 eV  683.34 nm  f=0.3468  <S**2>=0.000
     245 -> 248       -0.16317
     246 -> 247        0.69695
     246 <- 247       -0.11564
 This state for optimization and/or second-order correction.
 Total Energy, E(TD-HF/TD-DFT) =  -3005.26248319
 Copying the excited state density for this state as the 1-particle RhoCI density.

 Excited State   2:      Singlet-A      2.3510 eV  527.38 nm  f=0.0660  <S**2>=0.000
     245 -> 247        0.61405
     246 -> 248        0.33539

 Excited State   3:      Singlet-A      2.8812 eV  430.32 nm  f=0.0003  <S**2>=0.000
     242 -> 247        0.34597
     242 -> 249        0.15259
     244 -> 247        0.56698
     244 -> 249        0.13072

 Excited State   4:      Singlet-A      3.1043 eV  399.40 nm  f=0.0099  <S**2>=0.000
     242 -> 247        0.55752
     244 -> 247       -0.35245
     246 -> 248        0.20151

 Excited State   5:      Singlet-A      3.2854 eV  377.38 nm  f=0.4713  <S**2>=0.000
     241 -> 247       -0.10325
     242 -> 247       -0.13618
     244 -> 247        0.12228
     245 -> 247       -0.28666
     246 -> 248        0.50002
     246 -> 249       -0.29566
     246 -> 250        0.15249

 The electronic state is 1-A.
 Alpha  occ. eigenvalues --  -46.91160 -19.25365 -19.23785 -19.20231 -19.20137
 Alpha  occ. eigenvalues --  -19.18741 -19.18012 -14.41671 -14.40666 -14.39654
 Alpha  occ. eigenvalues --  -14.38641 -10.36623 -10.34738 -10.32830 -10.30975
 Alpha  occ. eigenvalues --  -10.29709 -10.28813 -10.28670 -10.28278 -10.27967
 Alpha  occ. eigenvalues --  -10.27738 -10.27381 -10.26835 -10.26781 -10.26662
 Alpha  occ. eigenvalues --  -10.26354 -10.26271 -10.26187 -10.25920 -10.25768
 Alpha  occ. eigenvalues --  -10.25697 -10.25667 -10.25661 -10.25652 -10.25564
 Alpha  occ. eigenvalues --  -10.24904 -10.24791 -10.24641 -10.24530 -10.24301
 Alpha  occ. eigenvalues --  -10.23873 -10.23729 -10.23684 -10.23575 -10.23530
 Alpha  occ. eigenvalues --  -10.23487 -10.23282 -10.23281 -10.23218 -10.23153
 Alpha  occ. eigenvalues --  -10.23076 -10.22887 -10.22684 -10.22601 -10.22537
 Alpha  occ. eigenvalues --  -10.22522 -10.22388 -10.22318 -10.22307 -10.22223
 Alpha  occ. eigenvalues --  -10.22112 -10.22004 -10.21980 -10.21944 -10.21843
 Alpha  occ. eigenvalues --  -10.21394  -3.13579  -1.86396  -1.85943  -1.85848
 Alpha  occ. eigenvalues --   -1.10366  -1.09074  -1.08399  -1.01886  -1.01141
 Alpha  occ. eigenvalues --   -1.00985  -1.00309  -0.99270  -0.98224  -0.96543
 Alpha  occ. eigenvalues --   -0.86596  -0.84567  -0.84063  -0.83888  -0.83736
 Alpha  occ. eigenvalues --   -0.82648  -0.82585  -0.82060  -0.81436  -0.81292
 Alpha  occ. eigenvalues --   -0.80323  -0.80197  -0.78328  -0.77998  -0.77865
 Alpha  occ. eigenvalues --   -0.76991  -0.76765  -0.75834  -0.75124  -0.74909
 Alpha  occ. eigenvalues --   -0.74235  -0.72939  -0.72427  -0.71826  -0.70364
 Alpha  occ. eigenvalues --   -0.69895  -0.69574  -0.69392  -0.68906  -0.68172
 Alpha  occ. eigenvalues --   -0.67861  -0.67021  -0.66107  -0.64762  -0.63951
 Alpha  occ. eigenvalues --   -0.63165  -0.62428  -0.61883  -0.60813  -0.60496
 Alpha  occ. eigenvalues --   -0.59722  -0.59357  -0.59288  -0.58272  -0.57712
 Alpha  occ. eigenvalues --   -0.57199  -0.56941  -0.56745  -0.55826  -0.55001
 Alpha  occ. eigenvalues --   -0.54176  -0.53715  -0.53299  -0.52842  -0.52194
 Alpha  occ. eigenvalues --   -0.51502  -0.51112  -0.50797  -0.50293  -0.49731
 Alpha  occ. eigenvalues --   -0.49292  -0.49249  -0.49129  -0.48724  -0.48617
 Alpha  occ. eigenvalues --   -0.48386  -0.48132  -0.47798  -0.47666  -0.47507
 Alpha  occ. eigenvalues --   -0.47389  -0.46866  -0.46613  -0.46521  -0.46165
 Alpha  occ. eigenvalues --   -0.45872  -0.45846  -0.45624  -0.45533  -0.45403
 Alpha  occ. eigenvalues --   -0.45123  -0.44978  -0.44835  -0.44560  -0.44275
 Alpha  occ. eigenvalues --   -0.44151  -0.44070  -0.43743  -0.43309  -0.43233
 Alpha  occ. eigenvalues --   -0.43096  -0.43037  -0.42915  -0.42801  -0.42524
 Alpha  occ. eigenvalues --   -0.42216  -0.41977  -0.41714  -0.41536  -0.41330
 Alpha  occ. eigenvalues --   -0.41121  -0.40962  -0.40894  -0.40514  -0.40444
 Alpha  occ. eigenvalues --   -0.40178  -0.39978  -0.39941  -0.39612  -0.39296
 Alpha  occ. eigenvalues --   -0.39229  -0.39068  -0.39010  -0.38975  -0.38853
 Alpha  occ. eigenvalues --   -0.38716  -0.38627  -0.38440  -0.37785  -0.37546
 Alpha  occ. eigenvalues --   -0.37396  -0.37379  -0.37141  -0.37073  -0.36898
 Alpha  occ. eigenvalues --   -0.36777  -0.36320  -0.35875  -0.35791  -0.35696
 Alpha  occ. eigenvalues --   -0.35660  -0.35486  -0.35397  -0.35131  -0.34922
 Alpha  occ. eigenvalues --   -0.34766  -0.34657  -0.34462  -0.34017  -0.33737
 Alpha  occ. eigenvalues --   -0.33292  -0.33237  -0.32862  -0.32525  -0.32090
 Alpha  occ. eigenvalues --   -0.31946  -0.31886  -0.31435  -0.31096  -0.30900
 Alpha  occ. eigenvalues --   -0.30700  -0.30275  -0.30178  -0.29793  -0.29342
 Alpha  occ. eigenvalues --   -0.28718  -0.28645  -0.27964  -0.26932  -0.26567
 Alpha  occ. eigenvalues --   -0.26174  -0.25203  -0.25064  -0.24619  -0.21496
 Alpha  occ. eigenvalues --   -0.18203
 Alpha virt. eigenvalues --   -0.10827  -0.05211  -0.03959  -0.01925  -0.00140
 Alpha virt. eigenvalues --    0.00702   0.01285   0.01479   0.02163   0.03441
 Alpha virt. eigenvalues --    0.04296   0.04574   0.04829   0.05003   0.05706

 Mulliken charges:
               1
     1  Mg   0.984907
     2  C   -0.031970
     3  C   -0.099563
     4  C   -0.075184
     5  C   -0.121076
     6  N   -0.324533
     7  C   -0.007798
     8  C   -0.038864
     9  C   -0.185307
    10  C    0.047180
    11  C    0.033090
    12  C    0.086783
    13  C   -0.082016
    14  C    0.251738
    15  O   -0.256836
    16  O   -0.425181
    17  N   -0.527654
    18  C    0.201255
    19  C   -0.174718
    20  C   -0.132535
    21  C    0.152340
    22  C    0.071322
    23  C    0.061667
    24  O   -0.184897
    25  C   -0.039625
    26  N   -0.397739
    27  C    0.080253
    28  C   -0.129027
    29  C   -0.117684
    30  C    0.127780
    31  C    0.053684
    32  C   -0.044801
    33  C   -0.072235
    34  N   -0.488235
    35  C    0.177987
    36  C   -0.184299
    37  C    0.003359
    38  C    0.178180
    39  C    0.095401
    40  C    0.111137
    41  O   -0.265121
    42  C   -0.092912
    43  C    0.248500
    44  O   -0.223772
    45  O   -0.361201
    46  C    0.133668
    47  C    0.265960
    48  C   -0.153350
    49  C   -0.245100
    50  C    0.007137
    51  C    0.019513
    52  C   -0.015763
    53  C   -0.036415
    54  C   -0.222341
    55  C   -0.021918
    56  C   -0.021424
    57  C   -0.033733
    58  C   -0.015170
    59  C   -0.212644
    60  C   -0.014640
    61  C    0.015840
    62  C   -0.051946
    63  C   -0.027698
    64  C   -0.208536
    65  C   -0.040792
    66  C   -0.007917
    67  H   -0.002556
    68  H    0.018332
    69  H    0.001377
    70  H    0.056915
    71  H    0.036012
    72  H    0.056183
    73  H    0.047413
    74  H    0.047048
    75  H    0.028239
    76  H    0.054620
    77  H    0.061731
    78  H    0.071975
    79  H    0.054765
    80  H    0.050235
    81  H    0.057556
    82  H    0.073353
    83  H    0.044033
    84  H    0.060480
    85  H    0.037164
    86  H    0.034899
    87  H    0.056163
    88  H    0.054311
    89  H    0.049641
    90  H    0.041200
    91  H    0.041038
    92  H    0.045342
    93  H    0.034480
    94  H    0.058438
    95  H    0.058586
    96  H    0.057615
    97  H    0.056921
    98  H    0.088700
    99  H    0.035257
   100  H    0.062376
   101  H    0.056992
   102  H    0.063524
   103  H    0.082496
   104  H    0.030171
   105  H    0.036743
   106  H    0.076255
   107  H    0.031678
   108  H    0.023589
   109  H    0.032401
   110  H    0.029606
   111  H    0.045118
   112  H    0.026465
   113  H    0.020815
   114  H    0.028228
   115  H    0.044520
   116  H    0.039906
   117  H    0.044488
   118  H    0.027245
   119  H    0.027751
   120  H    0.027057
   121  H    0.024852
   122  H    0.021635
   123  H    0.031734
   124  H    0.028765
   125  H    0.047479
   126  H    0.022513
   127  H    0.033327
   128  H    0.013384
   129  H    0.027750
   130  H    0.032190
   131  H    0.033515
   132  H    0.024838
   133  H    0.016422
   134  H    0.031660
   135  H    0.027035
   136  H    0.031537
   137  H    0.027086
   138  H    0.054472
   139  H    0.021662
   140  H    0.028740
 Sum of Mulliken charges =  -0.00000

 Dipole moment (field-independent basis, Debye):
    X=             -2.9191    Y=              6.5204    Z=             -2.1107  Tot=              7.4493
 Quadrupole moment (field-independent basis, Debye-Ang):
   XX=           -374.1202   YY=           -426.0560   ZZ=           -397.8863
   XY=             20.0767   XZ=             12.7325   YZ=              8.5805

 Normal termination of Gaussian 16 at Wed May  4 05:09:35 2022.
