 Gaussian 16, Revision A.03,
 Gaussian 16:  ES64L-G16RevA.03 25-Dec-2016

 --------------------------------
 #p wB97XD/Def2SVP td=(nstates=5)
 --------------------------------

 -----------------------------------------------------
 step_1401_chromophore_10 TDDFT with wB97XD functional
 -----------------------------------------------------
 Symbolic Z-matrix:
 Charge =  0 Multiplicity = 1

                         Standard orientation:
 ---------------------------------------------------------------------
 Center     Atomic      Atomic             Coordinates (Angstroms)
 Number     Number       Type             X           Y           Z
 ---------------------------------------------------------------------
      1         12           0        5.546565    0.515619   -0.027592
      2          6           0        3.341176   -2.131152    0.686806
      3          6           0        3.122746    1.962241   -1.871574
      4          6           0        7.801193    2.694830   -0.934503
      5          6           0        8.025119   -1.385457    1.540210
      6          7           0        3.431277   -0.015220   -0.456893
      7          6           0        2.765539   -1.148170   -0.088976
      8          6           0        1.356551   -1.145203   -0.580576
      9          6           0        1.396419   -0.025982   -1.660786
     10          6           0        2.740612    0.744159   -1.235190
     11          6           0        1.479845   -0.416152   -3.168893
     12          6           0        0.313792   -0.873772    0.564273
     13          6           0       -1.213486   -0.958041    0.230440
     14          6           0       -2.095756   -2.127880    0.504386
     15          8           0       -1.899587   -3.199125    1.086734
     16          8           0       -3.360581   -1.764026    0.001619
     17          7           0        5.471122    2.052212   -1.242048
     18          6           0        4.343812    2.598730   -1.803841
     19          6           0        4.535035    3.897188   -2.368723
     20          6           0        5.912373    4.198562   -2.061145
     21          6           0        6.485166    2.909762   -1.386796
     22          6           0        3.576027    4.723971   -3.253970
     23          6           0        6.709927    5.554161   -2.253971
     24          8           0        7.855012    5.659969   -2.011272
     25          6           0        5.953971    6.727726   -2.763089
     26          7           0        7.643528    0.554780    0.037701
     27          6           0        8.276034    1.714326   -0.203117
     28          6           0        9.691014    1.664565    0.237646
     29          6           0        9.640490    0.515883    1.319976
     30          6           0        8.394658   -0.160587    0.941473
     31          6           0       10.701948    1.418055   -0.939716
     32          6           0        9.817253    1.136344    2.784802
     33          6           0        8.615007    1.835237    3.415879
     34          7           0        5.716592   -1.299384    0.983857
     35          6           0        6.803611   -1.995797    1.560556
     36          6           0        6.403609   -3.259699    2.154335
     37          6           0        5.003835   -3.315337    1.914946
     38          6           0        4.676762   -2.186359    1.144330
     39          6           0        7.271592   -4.279407    2.853838
     40          6           0        3.868179   -4.129057    2.066939
     41          8           0        3.792200   -5.302718    2.541567
     42          6           0        2.682829   -3.403101    1.369723
     43          6           0        2.202174   -4.365314    0.340944
     44          8           0        2.831684   -5.007615   -0.448148
     45          8           0        0.834383   -4.474611    0.446396
     46          6           0        0.199131   -5.308066   -0.571101
     47          6           0       -4.447519   -2.841266    0.045387
     48          6           0       -5.221852   -2.685655   -1.232123
     49          6           0       -6.366662   -3.311613   -1.532972
     50          6           0       -7.263050   -4.244918   -0.695225
     51          6           0       -7.065520   -3.027306   -2.879920
     52          6           0       -7.911106   -1.710957   -2.818477
     53          6           0       -9.380888   -1.997841   -3.202574
     54          6           0      -10.307859   -2.155149   -1.966798
     55          6           0      -11.459934   -3.148333   -2.269171
     56          6           0      -10.907390   -0.773455   -1.472213
     57          6           0      -10.609801   -0.294138   -0.016206
     58          6           0      -10.564650    1.218135    0.101378
     59          6           0      -11.753786    1.845973    0.878857
     60          6           0      -13.090699    1.679669    0.141073
     61          6           0      -11.484882    3.337134    1.303731
     62          6           0      -11.364284    3.581584    2.801026
     63          6           0       -9.935065    4.070157    3.093477
     64          6           0       -9.858710    5.614181    3.211498
     65          6           0       -8.730531    6.179037    2.281360
     66          6           0       -9.788775    6.225933    4.662660
     67          1           0        2.326778    2.462495   -2.427302
     68          1           0        8.485595    3.519200   -1.143998
     69          1           0        8.876898   -1.916773    1.969336
     70          1           0        1.232409   -2.123443   -1.046118
     71          1           0        0.624969    0.738497   -1.567562
     72          1           0        2.404861    0.016884   -3.550135
     73          1           0        0.623110   -0.036369   -3.726388
     74          1           0        1.536039   -1.502995   -3.227239
     75          1           0        0.383379    0.171583    0.863725
     76          1           0        0.416721   -1.432926    1.494859
     77          1           0       -1.385809   -0.710335   -0.816691
     78          1           0       -1.814319   -0.236418    0.785294
     79          1           0        3.329824    5.620190   -2.684132
     80          1           0        2.689990    4.194437   -3.603733
     81          1           0        4.095808    5.059052   -4.151853
     82          1           0        5.942714    6.775972   -3.851239
     83          1           0        6.595597    7.572433   -2.510123
     84          1           0        5.015967    6.952230   -2.256171
     85          1           0        9.860699    2.598140    0.774160
     86          1           0       10.511962   -0.137589    1.309897
     87          1           0       11.128774    0.416668   -0.887139
     88          1           0       11.354957    2.286044   -0.847977
     89          1           0       10.095344    1.544065   -1.837339
     90          1           0       10.549926    1.934512    2.666094
     91          1           0       10.146380    0.363639    3.479956
     92          1           0        7.913458    2.243112    2.688220
     93          1           0        9.020289    2.750026    3.846776
     94          1           0        8.128376    1.204402    4.160453
     95          1           0        7.616361   -4.949789    2.066377
     96          1           0        6.635529   -4.992116    3.379769
     97          1           0        8.054457   -3.743550    3.390354
     98          1           0        1.872202   -3.232015    2.078835
     99          1           0        0.363160   -4.663082   -1.434016
    100          1           0       -0.833288   -5.593525   -0.368989
    101          1           0        0.633943   -6.295849   -0.727089
    102          1           0       -5.208061   -2.682569    0.810517
    103          1           0       -4.124350   -3.876569   -0.059030
    104          1           0       -4.713165   -2.083115   -1.985465
    105          1           0       -7.805380   -4.949904   -1.324929
    106          1           0       -7.873717   -3.725670    0.043631
    107          1           0       -6.687523   -5.003791   -0.164614
    108          1           0       -7.665623   -3.896479   -3.148609
    109          1           0       -6.286419   -3.019222   -3.641612
    110          1           0       -7.622880   -0.916505   -3.507819
    111          1           0       -7.861107   -1.307379   -1.807213
    112          1           0       -9.464770   -2.849362   -3.877915
    113          1           0       -9.663111   -1.120287   -3.784626
    114          1           0       -9.700462   -2.574855   -1.164537
    115          1           0      -11.805477   -2.692317   -3.196874
    116          1           0      -12.210523   -3.051673   -1.485459
    117          1           0      -11.008231   -4.138601   -2.329490
    118          1           0      -11.994511   -0.797011   -1.550791
    119          1           0      -10.503486   -0.051955   -2.183038
    120          1           0       -9.765408   -0.795321    0.455856
    121          1           0      -11.468672   -0.646689    0.556119
    122          1           0      -10.757396    1.607434   -0.898645
    123          1           0       -9.616350    1.614216    0.465677
    124          1           0      -11.815756    1.177723    1.737134
    125          1           0      -13.906202    1.909226    0.826454
    126          1           0      -13.167889    0.647677   -0.201928
    127          1           0      -13.105297    2.252222   -0.786656
    128          1           0      -12.326347    3.943462    0.969371
    129          1           0      -10.671449    3.791387    0.737575
    130          1           0      -11.360549    2.704054    3.447741
    131          1           0      -12.134537    4.254242    3.178058
    132          1           0       -9.342706    3.590243    2.314389
    133          1           0       -9.536175    3.643229    4.013833
    134          1           0      -10.711572    6.052694    2.693876
    135          1           0       -8.545856    5.581842    1.388306
    136          1           0       -7.776765    6.290294    2.796178
    137          1           0       -9.056428    7.146868    1.897095
    138          1           0       -8.860623    6.159371    5.230460
    139          1           0      -10.622738    5.745939    5.173571
    140          1           0      -10.218195    7.226938    4.690327
 ---------------------------------------------------------------------

 SCF Done:  E(RwB97XD) =  -3007.84008065     A.U. after   19 cycles

 Excitation energies and oscillator strengths:

 Excited State   1:      Singlet-A      1.6294 eV  760.93 nm  f=0.3645  <S**2>=0.000
     245 -> 248       -0.17387
     246 -> 247        0.68626
     245 <- 248       -0.11487
 This state for optimization and/or second-order correction.
 Total Energy, E(TD-HF/TD-DFT) =  -3007.78020225
 Copying the excited state density for this state as the 1-particle RhoCI density.

 Excited State   2:      Singlet-A      2.3074 eV  537.34 nm  f=0.0503  <S**2>=0.000
     245 -> 247        0.59054
     246 -> 248        0.37514

 Excited State   3:      Singlet-A      3.3728 eV  367.60 nm  f=0.1272  <S**2>=0.000
     242 -> 247        0.23290
     242 -> 249        0.22414
     242 -> 250       -0.14795
     244 -> 247        0.47284
     244 -> 249        0.14525
     245 -> 247        0.14404
     246 -> 248       -0.29634

 Excited State   4:      Singlet-A      3.4474 eV  359.65 nm  f=0.4457  <S**2>=0.000
     242 -> 247        0.36550
     242 -> 249        0.25519
     242 -> 250       -0.14681
     245 -> 247       -0.26471
     246 -> 248        0.43318

 Excited State   5:      Singlet-A      3.5625 eV  348.02 nm  f=0.3359  <S**2>=0.000
     241 -> 247       -0.21097
     242 -> 247       -0.30518
     242 -> 249       -0.13095
     244 -> 247        0.44719
     245 -> 247       -0.21448
     246 -> 248        0.27404

 The electronic state is 1-A.
 Alpha  occ. eigenvalues --  -46.94112 -19.29893 -19.28312 -19.25186 -19.24878
 Alpha  occ. eigenvalues --  -19.23428 -19.22629 -14.46897 -14.45598 -14.44764
 Alpha  occ. eigenvalues --  -14.43441 -10.43393 -10.41523 -10.39882 -10.37691
 Alpha  occ. eigenvalues --  -10.36190 -10.35454 -10.35165 -10.34436 -10.34428
 Alpha  occ. eigenvalues --  -10.33986 -10.33876 -10.33660 -10.33086 -10.32786
 Alpha  occ. eigenvalues --  -10.32620 -10.32568 -10.32517 -10.32330 -10.32316
 Alpha  occ. eigenvalues --  -10.32116 -10.32066 -10.32029 -10.32016 -10.31807
 Alpha  occ. eigenvalues --  -10.31436 -10.30972 -10.30852 -10.30804 -10.30463
 Alpha  occ. eigenvalues --  -10.30343 -10.30329 -10.30188 -10.29978 -10.29821
 Alpha  occ. eigenvalues --  -10.29709 -10.29574 -10.29542 -10.29506 -10.29504
 Alpha  occ. eigenvalues --  -10.29449 -10.29260 -10.29013 -10.28981 -10.28917
 Alpha  occ. eigenvalues --  -10.28899 -10.28828 -10.28669 -10.28591 -10.28479
 Alpha  occ. eigenvalues --  -10.28450 -10.28440 -10.28404 -10.28306 -10.28204
 Alpha  occ. eigenvalues --  -10.27835  -3.20360  -1.93931  -1.93480  -1.93379
 Alpha  occ. eigenvalues --   -1.17723  -1.16451  -1.16061  -1.09220  -1.08474
 Alpha  occ. eigenvalues --   -1.08324  -1.07768  -1.06668  -1.05693  -1.03715
 Alpha  occ. eigenvalues --   -0.94125  -0.92249  -0.91729  -0.91576  -0.91386
 Alpha  occ. eigenvalues --   -0.90320  -0.90085  -0.89674  -0.89116  -0.89065
 Alpha  occ. eigenvalues --   -0.87888  -0.87814  -0.85998  -0.85544  -0.85479
 Alpha  occ. eigenvalues --   -0.84655  -0.84562  -0.83565  -0.82776  -0.82467
 Alpha  occ. eigenvalues --   -0.81910  -0.80537  -0.80336  -0.79360  -0.77941
 Alpha  occ. eigenvalues --   -0.77571  -0.77288  -0.76980  -0.76611  -0.75839
 Alpha  occ. eigenvalues --   -0.75455  -0.74500  -0.73656  -0.72389  -0.71441
 Alpha  occ. eigenvalues --   -0.70673  -0.70073  -0.69517  -0.68466  -0.68070
 Alpha  occ. eigenvalues --   -0.67374  -0.66814  -0.66703  -0.65644  -0.65419
 Alpha  occ. eigenvalues --   -0.64858  -0.64603  -0.64198  -0.63207  -0.62581
 Alpha  occ. eigenvalues --   -0.61604  -0.61225  -0.60660  -0.60255  -0.59526
 Alpha  occ. eigenvalues --   -0.59014  -0.58586  -0.58319  -0.57675  -0.57203
 Alpha  occ. eigenvalues --   -0.56725  -0.56627  -0.56505  -0.56135  -0.56019
 Alpha  occ. eigenvalues --   -0.55866  -0.55707  -0.55382  -0.54963  -0.54872
 Alpha  occ. eigenvalues --   -0.54778  -0.54277  -0.53974  -0.53859  -0.53567
 Alpha  occ. eigenvalues --   -0.53387  -0.53106  -0.53007  -0.52926  -0.52752
 Alpha  occ. eigenvalues --   -0.52630  -0.52347  -0.52114  -0.51954  -0.51583
 Alpha  occ. eigenvalues --   -0.51493  -0.51371  -0.51129  -0.50637  -0.50531
 Alpha  occ. eigenvalues --   -0.50386  -0.50331  -0.50228  -0.50045  -0.49929
 Alpha  occ. eigenvalues --   -0.49527  -0.49227  -0.48920  -0.48709  -0.48585
 Alpha  occ. eigenvalues --   -0.48394  -0.48197  -0.48042  -0.47728  -0.47549
 Alpha  occ. eigenvalues --   -0.47390  -0.47244  -0.47071  -0.46785  -0.46507
 Alpha  occ. eigenvalues --   -0.46398  -0.46257  -0.46187  -0.46103  -0.45968
 Alpha  occ. eigenvalues --   -0.45849  -0.45757  -0.45604  -0.45041  -0.44690
 Alpha  occ. eigenvalues --   -0.44521  -0.44301  -0.44245  -0.44173  -0.43942
 Alpha  occ. eigenvalues --   -0.43881  -0.43331  -0.42912  -0.42904  -0.42813
 Alpha  occ. eigenvalues --   -0.42714  -0.42565  -0.42315  -0.42222  -0.42041
 Alpha  occ. eigenvalues --   -0.41723  -0.41602  -0.41528  -0.41118  -0.40611
 Alpha  occ. eigenvalues --   -0.40333  -0.40125  -0.39909  -0.39588  -0.39118
 Alpha  occ. eigenvalues --   -0.39000  -0.38846  -0.38332  -0.38079  -0.37911
 Alpha  occ. eigenvalues --   -0.37702  -0.37241  -0.37204  -0.36585  -0.36153
 Alpha  occ. eigenvalues --   -0.35694  -0.35596  -0.34964  -0.34066  -0.33367
 Alpha  occ. eigenvalues --   -0.32986  -0.32083  -0.31844  -0.31050  -0.26595
 Alpha  occ. eigenvalues --   -0.22298
 Alpha virt. eigenvalues --   -0.06621   0.00188   0.02318   0.04574   0.05660
 Alpha virt. eigenvalues --    0.07607   0.08000   0.08231   0.08973   0.09752
 Alpha virt. eigenvalues --    0.10968   0.11356   0.11586   0.11745   0.12392

 Mulliken charges:
               1
     1  Mg   0.972060
     2  C   -0.030941
     3  C   -0.119428
     4  C   -0.099976
     5  C   -0.140756
     6  N   -0.283876
     7  C   -0.043660
     8  C   -0.001767
     9  C   -0.162999
    10  C    0.030333
    11  C    0.043878
    12  C    0.095604
    13  C   -0.065091
    14  C    0.239670
    15  O   -0.252510
    16  O   -0.425688
    17  N   -0.493771
    18  C    0.204065
    19  C   -0.169921
    20  C   -0.129150
    21  C    0.147334
    22  C    0.086262
    23  C    0.062050
    24  O   -0.178142
    25  C   -0.032234
    26  N   -0.368081
    27  C    0.078090
    28  C   -0.103620
    29  C   -0.093253
    30  C    0.111465
    31  C    0.063675
    32  C   -0.029360
    33  C   -0.054396
    34  N   -0.454390
    35  C    0.174673
    36  C   -0.186260
    37  C    0.009390
    38  C    0.157865
    39  C    0.106068
    40  C    0.091885
    41  O   -0.256725
    42  C   -0.052998
    43  C    0.222537
    44  O   -0.218354
    45  O   -0.358199
    46  C    0.148370
    47  C    0.278793
    48  C   -0.163225
    49  C   -0.228479
    50  C    0.018065
    51  C    0.037568
    52  C    0.000673
    53  C   -0.020855
    54  C   -0.185943
    55  C   -0.003888
    56  C   -0.004435
    57  C   -0.016960
    58  C    0.002880
    59  C   -0.180612
    60  C    0.000771
    61  C    0.030184
    62  C   -0.037301
    63  C   -0.008483
    64  C   -0.182374
    65  C   -0.027855
    66  C    0.005064
    67  H   -0.008972
    68  H    0.013544
    69  H   -0.004430
    70  H    0.037645
    71  H    0.025230
    72  H    0.048173
    73  H    0.043126
    74  H    0.042478
    75  H    0.020003
    76  H    0.046287
    77  H    0.053821
    78  H    0.066052
    79  H    0.049369
    80  H    0.048099
    81  H    0.052642
    82  H    0.070904
    83  H    0.042983
    84  H    0.056025
    85  H    0.024836
    86  H    0.025367
    87  H    0.051939
    88  H    0.049196
    89  H    0.041844
    90  H    0.031035
    91  H    0.034513
    92  H    0.032861
    93  H    0.028577
    94  H    0.053605
    95  H    0.052299
    96  H    0.053239
    97  H    0.051297
    98  H    0.083773
    99  H    0.029584
   100  H    0.060263
   101  H    0.053059
   102  H    0.058742
   103  H    0.077373
   104  H    0.027516
   105  H    0.031820
   106  H    0.072093
   107  H    0.026735
   108  H    0.012662
   109  H    0.025761
   110  H    0.024093
   111  H    0.031366
   112  H    0.017670
   113  H    0.011954
   114  H    0.003667
   115  H    0.035994
   116  H    0.033722
   117  H    0.038544
   118  H    0.015580
   119  H    0.015260
   120  H    0.020556
   121  H    0.013430
   122  H    0.007050
   123  H    0.024539
   124  H    0.013904
   125  H    0.042155
   126  H    0.012033
   127  H    0.026867
   128  H    0.005658
   129  H    0.016376
   130  H    0.024301
   131  H    0.025964
   132  H    0.011228
   133  H    0.009083
   134  H    0.019118
   135  H    0.020406
   136  H    0.025188
   137  H    0.021253
   138  H    0.050082
   139  H    0.013580
   140  H    0.023099
 Sum of Mulliken charges =  -0.00000

 Dipole moment (field-independent basis, Debye):
    X=             -3.2054    Y=              7.1070    Z=             -2.4862  Tot=              8.1832
 Quadrupole moment (field-independent basis, Debye-Ang):
   XX=           -377.4025   YY=           -423.9324   ZZ=           -397.1709
   XY=             23.4786   XZ=             10.5297   YZ=              7.8785

 Normal termination of Gaussian 16 at Wed May  4 05:34:31 2022.
