 Gaussian 16, Revision A.03,
 Gaussian 16:  ES64L-G16RevA.03 25-Dec-2016

 --------------------
 #p ZINDO=(nstates=5)
 --------------------

 ------------------------------
 step_1401_chromophore_10 ZINDO
 ------------------------------
 Symbolic Z-matrix:
 Charge =  0 Multiplicity = 1

                         Standard orientation:
 ---------------------------------------------------------------------
 Center     Atomic      Atomic             Coordinates (Angstroms)
 Number     Number       Type             X           Y           Z
 ---------------------------------------------------------------------
      1         12           0        5.546565    0.515619   -0.027592
      2          6           0        3.341176   -2.131152    0.686806
      3          6           0        3.122746    1.962241   -1.871574
      4          6           0        7.801193    2.694830   -0.934503
      5          6           0        8.025119   -1.385457    1.540210
      6          7           0        3.431277   -0.015220   -0.456893
      7          6           0        2.765539   -1.148170   -0.088976
      8          6           0        1.356551   -1.145203   -0.580576
      9          6           0        1.396419   -0.025982   -1.660786
     10          6           0        2.740612    0.744159   -1.235190
     11          6           0        1.479845   -0.416152   -3.168893
     12          6           0        0.313792   -0.873772    0.564273
     13          6           0       -1.213486   -0.958041    0.230440
     14          6           0       -2.095756   -2.127880    0.504386
     15          8           0       -1.899587   -3.199125    1.086734
     16          8           0       -3.360581   -1.764026    0.001619
     17          7           0        5.471122    2.052212   -1.242048
     18          6           0        4.343812    2.598730   -1.803841
     19          6           0        4.535035    3.897188   -2.368723
     20          6           0        5.912373    4.198562   -2.061145
     21          6           0        6.485166    2.909762   -1.386796
     22          6           0        3.576027    4.723971   -3.253970
     23          6           0        6.709927    5.554161   -2.253971
     24          8           0        7.855012    5.659969   -2.011272
     25          6           0        5.953971    6.727726   -2.763089
     26          7           0        7.643528    0.554780    0.037701
     27          6           0        8.276034    1.714326   -0.203117
     28          6           0        9.691014    1.664565    0.237646
     29          6           0        9.640490    0.515883    1.319976
     30          6           0        8.394658   -0.160587    0.941473
     31          6           0       10.701948    1.418055   -0.939716
     32          6           0        9.817253    1.136344    2.784802
     33          6           0        8.615007    1.835237    3.415879
     34          7           0        5.716592   -1.299384    0.983857
     35          6           0        6.803611   -1.995797    1.560556
     36          6           0        6.403609   -3.259699    2.154335
     37          6           0        5.003835   -3.315337    1.914946
     38          6           0        4.676762   -2.186359    1.144330
     39          6           0        7.271592   -4.279407    2.853838
     40          6           0        3.868179   -4.129057    2.066939
     41          8           0        3.792200   -5.302718    2.541567
     42          6           0        2.682829   -3.403101    1.369723
     43          6           0        2.202174   -4.365314    0.340944
     44          8           0        2.831684   -5.007615   -0.448148
     45          8           0        0.834383   -4.474611    0.446396
     46          6           0        0.199131   -5.308066   -0.571101
     47          6           0       -4.447519   -2.841266    0.045387
     48          6           0       -5.221852   -2.685655   -1.232123
     49          6           0       -6.366662   -3.311613   -1.532972
     50          6           0       -7.263050   -4.244918   -0.695225
     51          6           0       -7.065520   -3.027306   -2.879920
     52          6           0       -7.911106   -1.710957   -2.818477
     53          6           0       -9.380888   -1.997841   -3.202574
     54          6           0      -10.307859   -2.155149   -1.966798
     55          6           0      -11.459934   -3.148333   -2.269171
     56          6           0      -10.907390   -0.773455   -1.472213
     57          6           0      -10.609801   -0.294138   -0.016206
     58          6           0      -10.564650    1.218135    0.101378
     59          6           0      -11.753786    1.845973    0.878857
     60          6           0      -13.090699    1.679669    0.141073
     61          6           0      -11.484882    3.337134    1.303731
     62          6           0      -11.364284    3.581584    2.801026
     63          6           0       -9.935065    4.070157    3.093477
     64          6           0       -9.858710    5.614181    3.211498
     65          6           0       -8.730531    6.179037    2.281360
     66          6           0       -9.788775    6.225933    4.662660
     67          1           0        2.326778    2.462495   -2.427302
     68          1           0        8.485595    3.519200   -1.143998
     69          1           0        8.876898   -1.916773    1.969336
     70          1           0        1.232409   -2.123443   -1.046118
     71          1           0        0.624969    0.738497   -1.567562
     72          1           0        2.404861    0.016884   -3.550135
     73          1           0        0.623110   -0.036369   -3.726388
     74          1           0        1.536039   -1.502995   -3.227239
     75          1           0        0.383379    0.171583    0.863725
     76          1           0        0.416721   -1.432926    1.494859
     77          1           0       -1.385809   -0.710335   -0.816691
     78          1           0       -1.814319   -0.236418    0.785294
     79          1           0        3.329824    5.620190   -2.684132
     80          1           0        2.689990    4.194437   -3.603733
     81          1           0        4.095808    5.059052   -4.151853
     82          1           0        5.942714    6.775972   -3.851239
     83          1           0        6.595597    7.572433   -2.510123
     84          1           0        5.015967    6.952230   -2.256171
     85          1           0        9.860699    2.598140    0.774160
     86          1           0       10.511962   -0.137589    1.309897
     87          1           0       11.128774    0.416668   -0.887139
     88          1           0       11.354957    2.286044   -0.847977
     89          1           0       10.095344    1.544065   -1.837339
     90          1           0       10.549926    1.934512    2.666094
     91          1           0       10.146380    0.363639    3.479956
     92          1           0        7.913458    2.243112    2.688220
     93          1           0        9.020289    2.750026    3.846776
     94          1           0        8.128376    1.204402    4.160453
     95          1           0        7.616361   -4.949789    2.066377
     96          1           0        6.635529   -4.992116    3.379769
     97          1           0        8.054457   -3.743550    3.390354
     98          1           0        1.872202   -3.232015    2.078835
     99          1           0        0.363160   -4.663082   -1.434016
    100          1           0       -0.833288   -5.593525   -0.368989
    101          1           0        0.633943   -6.295849   -0.727089
    102          1           0       -5.208061   -2.682569    0.810517
    103          1           0       -4.124350   -3.876569   -0.059030
    104          1           0       -4.713165   -2.083115   -1.985465
    105          1           0       -7.805380   -4.949904   -1.324929
    106          1           0       -7.873717   -3.725670    0.043631
    107          1           0       -6.687523   -5.003791   -0.164614
    108          1           0       -7.665623   -3.896479   -3.148609
    109          1           0       -6.286419   -3.019222   -3.641612
    110          1           0       -7.622880   -0.916505   -3.507819
    111          1           0       -7.861107   -1.307379   -1.807213
    112          1           0       -9.464770   -2.849362   -3.877915
    113          1           0       -9.663111   -1.120287   -3.784626
    114          1           0       -9.700462   -2.574855   -1.164537
    115          1           0      -11.805477   -2.692317   -3.196874
    116          1           0      -12.210523   -3.051673   -1.485459
    117          1           0      -11.008231   -4.138601   -2.329490
    118          1           0      -11.994511   -0.797011   -1.550791
    119          1           0      -10.503486   -0.051955   -2.183038
    120          1           0       -9.765408   -0.795321    0.455856
    121          1           0      -11.468672   -0.646689    0.556119
    122          1           0      -10.757396    1.607434   -0.898645
    123          1           0       -9.616350    1.614216    0.465677
    124          1           0      -11.815756    1.177723    1.737134
    125          1           0      -13.906202    1.909226    0.826454
    126          1           0      -13.167889    0.647677   -0.201928
    127          1           0      -13.105297    2.252222   -0.786656
    128          1           0      -12.326347    3.943462    0.969371
    129          1           0      -10.671449    3.791387    0.737575
    130          1           0      -11.360549    2.704054    3.447741
    131          1           0      -12.134537    4.254242    3.178058
    132          1           0       -9.342706    3.590243    2.314389
    133          1           0       -9.536175    3.643229    4.013833
    134          1           0      -10.711572    6.052694    2.693876
    135          1           0       -8.545856    5.581842    1.388306
    136          1           0       -7.776765    6.290294    2.796178
    137          1           0       -9.056428    7.146868    1.897095
    138          1           0       -8.860623    6.159371    5.230460
    139          1           0      -10.622738    5.745939    5.173571
    140          1           0      -10.218195    7.226938    4.690327
 ---------------------------------------------------------------------

 SCF Done:  E(RZINDO/S) =  -474.367658103     A.U. after   20 cycles

 Excitation energies and oscillator strengths:

 Excited State   1:      Singlet-A      1.2415 eV  998.65 nm  f=0.5780  <S**2>=0.000
     175 ->178        -0.18058
     176 ->177         0.66573
 This state for optimization and/or second-order correction.
 Total Energy, E(CIS/TDA) =  -474.322033364
 Copying the excited state density for this state as the 1-particle RhoCI density.

 Excited State   2:      Singlet-A      1.9531 eV  634.81 nm  f=0.0008  <S**2>=0.000
     175 ->177         0.46583
     176 ->178         0.50830

 Excited State   3:      Singlet-A      2.8607 eV  433.41 nm  f=0.2631  <S**2>=0.000
     175 ->177        -0.26153
     176 ->178         0.30483
     176 ->179         0.51644
     176 ->180        -0.16527

 Excited State   4:      Singlet-A      2.9120 eV  425.76 nm  f=0.0050  <S**2>=0.000
     170 ->177         0.31126
     170 ->178         0.21340
     170 ->179         0.34130
     170 ->180        -0.33966
     170 ->186         0.16969
     170 ->188         0.14868
     170 ->204        -0.12440

 Excited State   5:      Singlet-A      3.0473 eV  406.86 nm  f=0.9569  <S**2>=0.000
     175 ->177         0.39650
     176 ->178        -0.33198
     176 ->179         0.40685
     176 ->182         0.15204

 The electronic state is 1-A.
 Alpha  occ. eigenvalues --   -1.85658  -1.84081  -1.81540  -1.73378  -1.71718
 Alpha  occ. eigenvalues --   -1.69214  -1.65874  -1.62698  -1.61413  -1.56985
 Alpha  occ. eigenvalues --   -1.55193  -1.50218  -1.47283  -1.45681  -1.44737
 Alpha  occ. eigenvalues --   -1.43585  -1.43230  -1.40356  -1.39190  -1.38733
 Alpha  occ. eigenvalues --   -1.36009  -1.34248  -1.32513  -1.32117  -1.30017
 Alpha  occ. eigenvalues --   -1.27446  -1.25722  -1.23890  -1.22266  -1.19230
 Alpha  occ. eigenvalues --   -1.17474  -1.16362  -1.15467  -1.14177  -1.13424
 Alpha  occ. eigenvalues --   -1.12664  -1.10618  -1.09884  -1.05812  -1.03491
 Alpha  occ. eigenvalues --   -1.02894  -1.00826  -0.98822  -0.98205  -0.97277
 Alpha  occ. eigenvalues --   -0.95385  -0.94772  -0.93265  -0.92727  -0.92146
 Alpha  occ. eigenvalues --   -0.91664  -0.89668  -0.88622  -0.88243  -0.87826
 Alpha  occ. eigenvalues --   -0.85779  -0.83555  -0.82254  -0.81245  -0.80285
 Alpha  occ. eigenvalues --   -0.78552  -0.78530  -0.77733  -0.76593  -0.76302
 Alpha  occ. eigenvalues --   -0.74619  -0.74022  -0.73825  -0.72944  -0.72697
 Alpha  occ. eigenvalues --   -0.72376  -0.72160  -0.72156  -0.71213  -0.70987
 Alpha  occ. eigenvalues --   -0.70302  -0.70198  -0.69353  -0.68998  -0.68640
 Alpha  occ. eigenvalues --   -0.67737  -0.67343  -0.67003  -0.65660  -0.65571
 Alpha  occ. eigenvalues --   -0.65051  -0.64569  -0.64539  -0.63610  -0.63288
 Alpha  occ. eigenvalues --   -0.62847  -0.62758  -0.62217  -0.61990  -0.61730
 Alpha  occ. eigenvalues --   -0.61534  -0.61098  -0.60736  -0.60633  -0.60256
 Alpha  occ. eigenvalues --   -0.59895  -0.59301  -0.58845  -0.58465  -0.58117
 Alpha  occ. eigenvalues --   -0.57769  -0.57696  -0.57004  -0.56752  -0.56382
 Alpha  occ. eigenvalues --   -0.56060  -0.55476  -0.55342  -0.55013  -0.54736
 Alpha  occ. eigenvalues --   -0.54351  -0.54069  -0.53274  -0.53062  -0.52989
 Alpha  occ. eigenvalues --   -0.52593  -0.52164  -0.52097  -0.51793  -0.51629
 Alpha  occ. eigenvalues --   -0.51465  -0.50965  -0.50737  -0.50580  -0.49999
 Alpha  occ. eigenvalues --   -0.49857  -0.49502  -0.49340  -0.49232  -0.49052
 Alpha  occ. eigenvalues --   -0.48692  -0.48207  -0.47949  -0.47746  -0.47605
 Alpha  occ. eigenvalues --   -0.47420  -0.47178  -0.47124  -0.46791  -0.46600
 Alpha  occ. eigenvalues --   -0.46212  -0.46124  -0.45685  -0.45447  -0.45142
 Alpha  occ. eigenvalues --   -0.45129  -0.44839  -0.43893  -0.43637  -0.43295
 Alpha  occ. eigenvalues --   -0.43232  -0.43052  -0.42959  -0.42215  -0.42064
 Alpha  occ. eigenvalues --   -0.41979  -0.41600  -0.40482  -0.39143  -0.39019
 Alpha  occ. eigenvalues --   -0.37485  -0.37138  -0.35858  -0.35027  -0.34041
 Alpha  occ. eigenvalues --   -0.33651  -0.32477  -0.31958  -0.31694  -0.27041
 Alpha  occ. eigenvalues --   -0.21129
 Alpha virt. eigenvalues --   -0.07953  -0.02132  -0.00246   0.01622   0.01817
 Alpha virt. eigenvalues --    0.02530   0.02903   0.04296   0.05120   0.05252
 Alpha virt. eigenvalues --    0.06062   0.06417   0.07510   0.07557   0.08588

 Mulliken charges:
               1
     1  Mg   0.429387
     2  C   -0.036817
     3  C   -0.084548
     4  C   -0.075880
     5  C   -0.065216
     6  N   -0.252709
     7  C    0.101485
     8  C    0.019043
     9  C   -0.008560
    10  C    0.139554
    11  C   -0.049701
    12  C   -0.020237
    13  C    0.004670
    14  C    0.469225
    15  O   -0.512805
    16  O   -0.293485
    17  N   -0.311183
    18  C    0.126531
    19  C    0.006930
    20  C   -0.077549
    21  C    0.151285
    22  C   -0.037010
    23  C    0.340265
    24  O   -0.488725
    25  C   -0.036877
    26  N   -0.285348
    27  C    0.174175
    28  C   -0.007197
    29  C   -0.002288
    30  C    0.116929
    31  C   -0.052323
    32  C   -0.030672
    33  C   -0.056232
    34  N   -0.348181
    35  C    0.089025
    36  C    0.021724
    37  C   -0.046230
    38  C    0.107391
    39  C   -0.041814
    40  C    0.332521
    41  O   -0.547393
    42  C    0.051266
    43  C    0.493341
    44  O   -0.512113
    45  O   -0.276896
    46  C    0.072269
    47  C    0.093614
    48  C   -0.080224
    49  C   -0.023600
    50  C   -0.047957
    51  C   -0.027649
    52  C   -0.031499
    53  C   -0.036180
    54  C   -0.021336
    55  C   -0.065786
    56  C   -0.041098
    57  C   -0.033568
    58  C   -0.034574
    59  C   -0.014174
    60  C   -0.055043
    61  C   -0.029557
    62  C   -0.034991
    63  C   -0.032826
    64  C   -0.010485
    65  C   -0.063267
    66  C   -0.060058
    67  H    0.025306
    68  H    0.032868
    69  H    0.017550
    70  H    0.040311
    71  H    0.021066
    72  H    0.028936
    73  H    0.023463
    74  H    0.028138
    75  H    0.016937
    76  H    0.038581
    77  H    0.038825
    78  H    0.047092
    79  H    0.033329
    80  H    0.030355
    81  H    0.028228
    82  H    0.048304
    83  H    0.025012
    84  H    0.036774
    85  H    0.027656
    86  H    0.023396
    87  H    0.037048
    88  H    0.029768
    89  H    0.026948
    90  H    0.019457
    91  H    0.022221
    92  H    0.023049
    93  H    0.012565
    94  H    0.027489
    95  H    0.036767
    96  H    0.042140
    97  H    0.035962
    98  H    0.062930
    99  H    0.033938
   100  H    0.039759
   101  H    0.044591
   102  H    0.057743
   103  H    0.070818
   104  H    0.035147
   105  H    0.025505
   106  H    0.037903
   107  H    0.013603
   108  H    0.020933
   109  H    0.016279
   110  H    0.019976
   111  H    0.024607
   112  H    0.020677
   113  H    0.011369
   114  H    0.016204
   115  H    0.026907
   116  H    0.020934
   117  H    0.025337
   118  H    0.022011
   119  H    0.017884
   120  H    0.021676
   121  H    0.012946
   122  H    0.013524
   123  H    0.021308
   124  H    0.015735
   125  H    0.021929
   126  H    0.013782
   127  H    0.020597
   128  H    0.006614
   129  H    0.023956
   130  H    0.017503
   131  H    0.023191
   132  H    0.022369
   133  H    0.008741
   134  H    0.019195
   135  H    0.014664
   136  H    0.016952
   137  H    0.011367
   138  H    0.036589
   139  H    0.009708
   140  H    0.018286
 Sum of Mulliken charges =  -0.00000

 Dipole moment (field-independent basis, Debye):
    X=             -5.2228    Y=             11.2441    Z=             -3.8285  Tot=             12.9755
 N-N= 4.302146174036D+03 E-N= 0.000000000000D+00  KE=-9.278928016683D+03
 Leave Link  601 at Wed May  4 05:47:24 2022, MaxMem=  6710886400 cpu:               0.8 elap:               0.0
 (Enter /sw/apps/gaussian-16.0/g16/l9999.exe)
 1\1\GINC-BP1-COMPUTE123\SP\RZINDO CIS\STO-3G\C55H74Mg1N4O6\OF15641\04-
 May-2022\0\\#p ZINDO=(nstates=5)\\step_1401_chromophore_10 ZINDO\\0,1\
 Mg,0,40.95,7.827,29.508\C,0,42.685,9.282,32.201\C,0,38.72,6.566,31.7\C
 ,0,39.667,6.209,26.98\C,0,43.62,8.842,27.494\N,0,40.709,7.998,31.711\C
 ,0,41.549,8.609,32.596\C,0,41.05,8.498,33.998\C,0,39.993,7.363,33.873\
 C,0,39.743,7.369,32.286\C,0,40.359,5.918,34.333\C,0,40.457,9.849,34.54
 1\C,0,40.002,9.927,36.037\C,0,40.8,10.506,37.155\O,0,41.884,11.097,37.

 Normal termination of Gaussian 16 at Wed May  4 05:47:24 2022.
