 Gaussian 16, Revision A.03,
 Gaussian 16:  ES64L-G16RevA.03 25-Dec-2016

 ------------------------------
 #p blyp/Def2SVP td=(nstates=5)
 ------------------------------

 ---------------------------------------------------
 step_1001_chromophore_25 TDDFT with blyp functional
 ---------------------------------------------------
 Symbolic Z-matrix:
 Charge =  0 Multiplicity = 1

                         Standard orientation:
 ---------------------------------------------------------------------
 Center     Atomic      Atomic             Coordinates (Angstroms)
 Number     Number       Type             X           Y           Z
 ---------------------------------------------------------------------
      1         12           0        5.657469    0.247638    0.313498
      2          6           0        3.227457   -2.296356    0.290727
      3          6           0        3.134978    2.592111   -0.168277
      4          6           0        7.898300    2.613224   -0.408498
      5          6           0        8.156083   -2.125261    0.459566
      6          7           0        3.505599    0.109615    0.131641
      7          6           0        2.725709   -1.014758    0.244877
      8          6           0        1.127987   -0.718962    0.117540
      9          6           0        1.243101    0.833034   -0.054001
     10          6           0        2.711422    1.237607   -0.051749
     11          6           0        0.311282    1.507717   -1.149249
     12          6           0        0.152649   -1.315406    1.198259
     13          6           0       -1.039018   -2.139854    0.765327
     14          6           0       -2.385050   -1.823649    1.395456
     15          8           0       -2.832235   -1.974026    2.532748
     16          8           0       -3.105768   -1.285558    0.399852
     17          7           0        5.550701    2.359989   -0.047013
     18          6           0        4.433648    3.133843   -0.214264
     19          6           0        4.802001    4.549958   -0.435777
     20          6           0        6.236464    4.560007   -0.512417
     21          6           0        6.641165    3.120046   -0.322054
     22          6           0        3.792608    5.594179   -0.601455
     23          6           0        7.164431    5.725956   -0.790160
     24          8           0        8.365185    5.596810   -0.873889
     25          6           0        6.618601    7.129167   -1.042173
     26          7           0        7.714221    0.144285   -0.200007
     27          6           0        8.410298    1.303966   -0.353275
     28          6           0        9.947462    1.121547   -0.247302
     29          6           0        9.982911   -0.383149    0.187445
     30          6           0        8.505011   -0.828789    0.233873
     31          6           0       10.846698    1.470556   -1.491467
     32          6           0       10.780868   -0.569151    1.515824
     33          6           0        9.989683   -0.475905    2.879821
     34          7           0        5.793597   -1.789174    0.341496
     35          6           0        6.916264   -2.647287    0.381660
     36          6           0        6.382712   -3.964217    0.461366
     37          6           0        4.944594   -3.860036    0.391418
     38          6           0        4.642769   -2.503977    0.300352
     39          6           0        7.249715   -5.194718    0.499023
     40          6           0        3.698141   -4.595560    0.359992
     41          8           0        3.465192   -5.828222    0.361433
     42          6           0        2.511195   -3.582068    0.303256
     43          6           0        1.859980   -3.787704   -0.996199
     44          8           0        2.290214   -3.410531   -2.038758
     45          8           0        0.553199   -4.296602   -0.879120
     46          6           0       -0.093584   -4.770121   -2.129291
     47          6           0       -4.471378   -0.864963    0.667025
     48          6           0       -5.001515   -0.408735   -0.682575
     49          6           0       -6.245055    0.166565   -0.865023
     50          6           0       -7.370565    0.348190    0.237326
     51          6           0       -6.841389    0.507746   -2.244673
     52          6           0       -7.824411   -0.503768   -2.913715
     53          6           0       -9.112612    0.144993   -3.360892
     54          6           0      -10.407920   -0.481244   -2.797650
     55          6           0      -10.876843   -1.559980   -3.770684
     56          6           0      -11.413487    0.732944   -2.697657
     57          6           0      -11.229227    1.543192   -1.365105
     58          6           0      -12.446876    1.405776   -0.420786
     59          6           0      -12.283857    0.207540    0.585403
     60          6           0      -13.197640   -0.924319    0.313097
     61          6           0      -12.580406    0.723530    2.096714
     62          6           0      -11.335986    0.749036    3.028061
     63          6           0      -10.668303    2.122098    3.089689
     64          6           0       -9.174689    1.972121    2.978306
     65          6           0       -8.656304    1.292786    4.272461
     66          6           0       -8.451801    3.259274    2.628194
     67          1           0        2.275868    3.196053   -0.469201
     68          1           0        8.592862    3.453269   -0.348766
     69          1           0        8.990573   -2.815735    0.600227
     70          1           0        0.821363   -1.182142   -0.819585
     71          1           0        0.998709    1.264965    0.916620
     72          1           0       -0.520579    0.892091   -1.489814
     73          1           0        0.833145    1.500450   -2.105371
     74          1           0       -0.069561    2.515957   -0.981334
     75          1           0       -0.227949   -0.474299    1.776789
     76          1           0        0.810306   -1.905792    1.835155
     77          1           0       -0.834059   -3.131018    1.170271
     78          1           0       -1.097080   -2.066327   -0.320809
     79          1           0        2.895825    5.368799   -0.024497
     80          1           0        3.468400    5.609592   -1.641740
     81          1           0        4.177620    6.528452   -0.190228
     82          1           0        6.319731    7.087121   -2.090038
     83          1           0        7.453497    7.830005   -1.037919
     84          1           0        5.912708    7.537633   -0.318685
     85          1           0       10.334354    1.790744    0.521529
     86          1           0       10.462586   -0.981309   -0.587794
     87          1           0       10.152420    1.763760   -2.279831
     88          1           0       11.475761    0.687143   -1.913066
     89          1           0       11.461444    2.346366   -1.289042
     90          1           0       11.666135    0.066209    1.556304
     91          1           0       11.230285   -1.562191    1.536060
     92          1           0        8.907569   -0.539667    2.765318
     93          1           0       10.279887    0.415112    3.436724
     94          1           0       10.257579   -1.326251    3.506459
     95          1           0        8.007305   -5.095932    1.276552
     96          1           0        7.708298   -5.267029   -0.487448
     97          1           0        6.554287   -6.012368    0.688665
     98          1           0        1.838356   -3.727323    1.148081
     99          1           0        0.669588   -4.862767   -2.902028
    100          1           0       -0.965183   -4.205507   -2.460386
    101          1           0       -0.396338   -5.810824   -2.013786
    102          1           0       -4.393568   -0.088752    1.427354
    103          1           0       -5.105962   -1.668741    1.038150
    104          1           0       -4.331479   -0.431945   -1.541273
    105          1           0       -8.065167    1.154503    0.001085
    106          1           0       -6.837734    0.603582    1.153199
    107          1           0       -8.008784   -0.512285    0.441908
    108          1           0       -6.100446    0.649334   -3.031409
    109          1           0       -7.256630    1.507454   -2.113609
    110          1           0       -8.043222   -1.356863   -2.271280
    111          1           0       -7.346092   -0.929082   -3.796199
    112          1           0       -9.174537    0.230730   -4.446034
    113          1           0       -8.987421    1.202890   -3.128506
    114          1           0      -10.414232   -0.953401   -1.815242
    115          1           0      -11.723617   -1.286554   -4.400809
    116          1           0      -11.184410   -2.477011   -3.269045
    117          1           0      -10.121966   -1.643839   -4.552801
    118          1           0      -12.434081    0.349223   -2.697217
    119          1           0      -11.290313    1.407385   -3.546030
    120          1           0      -11.101101    2.595310   -1.617094
    121          1           0      -10.324551    1.188067   -0.870408
    122          1           0      -13.345138    1.332838   -1.033481
    123          1           0      -12.561487    2.238055    0.273425
    124          1           0      -11.310691   -0.281775    0.542609
    125          1           0      -14.182966   -0.474336    0.435560
    126          1           0      -13.123518   -1.792316    0.966954
    127          1           0      -13.125993   -1.373506   -0.677109
    128          1           0      -13.154187    0.041367    2.724925
    129          1           0      -13.179410    1.626100    2.213038
    130          1           0      -10.708540   -0.111230    2.795502
    131          1           0      -11.589869    0.524620    4.063524
    132          1           0      -10.841617    2.626574    4.039934
    133          1           0      -11.058141    2.716563    2.262505
    134          1           0       -9.064995    1.239833    2.178696
    135          1           0       -8.179393    0.382102    3.911500
    136          1           0       -9.444847    0.997300    4.964040
    137          1           0       -7.932705    1.961159    4.739427
    138          1           0       -7.750154    3.047509    1.822152
    139          1           0       -7.924629    3.681645    3.484067
    140          1           0       -9.076479    4.057948    2.227532
 ---------------------------------------------------------------------

 SCF Done:  E(RB-LYP) =  -3007.35383767     A.U. after   21 cycles

 Excitation energies and oscillator strengths:

 Excited State   1:      Singlet-A      1.8011 eV  688.38 nm  f=0.2918  <S**2>=0.000
     244 -> 247       -0.10854
     245 -> 248       -0.17586
     246 -> 247        0.68017
     246 <- 247       -0.14809
 This state for optimization and/or second-order correction.
 Total Energy, E(TD-HF/TD-DFT) =  -3007.28764818
 Copying the excited state density for this state as the 1-particle RhoCI density.

 Excited State   2:      Singlet-A      1.8536 eV  668.90 nm  f=0.0141  <S**2>=0.000
     244 -> 247        0.69230
     246 -> 247        0.10967

 Excited State   3:      Singlet-A      2.0061 eV  618.04 nm  f=0.0545  <S**2>=0.000
     243 -> 247       -0.29295
     245 -> 247        0.58609
     246 -> 248        0.21437

 Excited State   4:      Singlet-A      2.1126 eV  586.87 nm  f=0.0141  <S**2>=0.000
     243 -> 247        0.63844
     245 -> 247        0.24972
     246 -> 248        0.12610

 Excited State   5:      Singlet-A      2.3693 eV  523.30 nm  f=0.0078  <S**2>=0.000
     242 -> 247        0.69067

 The electronic state is 1-A.
 Alpha  occ. eigenvalues --  -46.26924 -18.82045 -18.81370 -18.76967 -18.76525
 Alpha  occ. eigenvalues --  -18.76143 -18.75200 -14.03695 -14.03189 -14.01464
 Alpha  occ. eigenvalues --  -14.00280 -10.03851 -10.03756 -10.00471  -9.99604
 Alpha  occ. eigenvalues --   -9.98334  -9.97358  -9.97336  -9.96682  -9.96655
 Alpha  occ. eigenvalues --   -9.96193  -9.95977  -9.95756  -9.94760  -9.94679
 Alpha  occ. eigenvalues --   -9.94668  -9.94636  -9.94367  -9.94075  -9.93992
 Alpha  occ. eigenvalues --   -9.93593  -9.93583  -9.93481  -9.93441  -9.93370
 Alpha  occ. eigenvalues --   -9.93368  -9.93340  -9.93217  -9.93018  -9.92873
 Alpha  occ. eigenvalues --   -9.92817  -9.92778  -9.92746  -9.92385  -9.92315
 Alpha  occ. eigenvalues --   -9.92306  -9.92196  -9.92150  -9.91990  -9.91906
 Alpha  occ. eigenvalues --   -9.91888  -9.91687  -9.91531  -9.91392  -9.91385
 Alpha  occ. eigenvalues --   -9.91203  -9.91201  -9.91182  -9.91038  -9.90983
 Alpha  occ. eigenvalues --   -9.90822  -9.90763  -9.90629  -9.90539  -9.90492
 Alpha  occ. eigenvalues --   -9.90186  -2.91621  -1.72036  -1.71510  -1.71327
 Alpha  occ. eigenvalues --   -0.98687  -0.97706  -0.92899  -0.89941  -0.89415
 Alpha  occ. eigenvalues --   -0.89394  -0.87060  -0.85732  -0.85348  -0.84362
 Alpha  occ. eigenvalues --   -0.76384  -0.73627  -0.73094  -0.72875  -0.72537
 Alpha  occ. eigenvalues --   -0.71956  -0.71491  -0.71360  -0.71175  -0.70835
 Alpha  occ. eigenvalues --   -0.69738  -0.69213  -0.68223  -0.67564  -0.67040
 Alpha  occ. eigenvalues --   -0.66434  -0.65750  -0.65499  -0.65256  -0.64654
 Alpha  occ. eigenvalues --   -0.64391  -0.62917  -0.62192  -0.61897  -0.61042
 Alpha  occ. eigenvalues --   -0.60430  -0.60259  -0.60100  -0.59623  -0.58908
 Alpha  occ. eigenvalues --   -0.58582  -0.57656  -0.57303  -0.55580  -0.55126
 Alpha  occ. eigenvalues --   -0.53954  -0.53542  -0.53087  -0.52225  -0.51411
 Alpha  occ. eigenvalues --   -0.51256  -0.51207  -0.50980  -0.50437  -0.50207
 Alpha  occ. eigenvalues --   -0.50106  -0.49611  -0.48601  -0.48121  -0.46823
 Alpha  occ. eigenvalues --   -0.46306  -0.46202  -0.45688  -0.45103  -0.44703
 Alpha  occ. eigenvalues --   -0.43809  -0.43679  -0.43245  -0.42799  -0.42608
 Alpha  occ. eigenvalues --   -0.42064  -0.41836  -0.41704  -0.41543  -0.41259
 Alpha  occ. eigenvalues --   -0.41069  -0.40831  -0.40641  -0.40330  -0.40165
 Alpha  occ. eigenvalues --   -0.40056  -0.39821  -0.39493  -0.39491  -0.39378
 Alpha  occ. eigenvalues --   -0.39249  -0.38960  -0.38854  -0.38682  -0.38349
 Alpha  occ. eigenvalues --   -0.38131  -0.37801  -0.37710  -0.37535  -0.37238
 Alpha  occ. eigenvalues --   -0.37201  -0.37026  -0.36706  -0.36639  -0.36405
 Alpha  occ. eigenvalues --   -0.36348  -0.36281  -0.35966  -0.35909  -0.35716
 Alpha  occ. eigenvalues --   -0.35385  -0.35240  -0.35024  -0.34895  -0.34722
 Alpha  occ. eigenvalues --   -0.34623  -0.34493  -0.34405  -0.34136  -0.33961
 Alpha  occ. eigenvalues --   -0.33787  -0.33637  -0.33171  -0.33072  -0.33006
 Alpha  occ. eigenvalues --   -0.32946  -0.32838  -0.32650  -0.32585  -0.32486
 Alpha  occ. eigenvalues --   -0.32027  -0.31890  -0.31781  -0.31650  -0.31500
 Alpha  occ. eigenvalues --   -0.31136  -0.31107  -0.31019  -0.30774  -0.30709
 Alpha  occ. eigenvalues --   -0.30589  -0.30317  -0.30199  -0.30122  -0.29947
 Alpha  occ. eigenvalues --   -0.29709  -0.29580  -0.29517  -0.29480  -0.28816
 Alpha  occ. eigenvalues --   -0.28721  -0.28589  -0.28531  -0.28026  -0.27855
 Alpha  occ. eigenvalues --   -0.27442  -0.26879  -0.26877  -0.26743  -0.26706
 Alpha  occ. eigenvalues --   -0.26004  -0.25888  -0.25654  -0.25446  -0.25239
 Alpha  occ. eigenvalues --   -0.25016  -0.24802  -0.24285  -0.24221  -0.23573
 Alpha  occ. eigenvalues --   -0.23064  -0.22503  -0.22143  -0.21603  -0.21107
 Alpha  occ. eigenvalues --   -0.20545  -0.19819  -0.19262  -0.18382  -0.17568
 Alpha  occ. eigenvalues --   -0.15930
 Alpha virt. eigenvalues --   -0.11678  -0.07295  -0.06198  -0.04901  -0.03248
 Alpha virt. eigenvalues --   -0.02850  -0.02508  -0.02196  -0.01589   0.00139
 Alpha virt. eigenvalues --    0.01052   0.01358   0.02051   0.02434   0.02830

 Mulliken charges:
               1
     1  Mg   0.688513
     2  C   -0.065125
     3  C   -0.095605
     4  C   -0.044375
     5  C   -0.102149
     6  N   -0.236918
     7  C   -0.086383
     8  C   -0.027151
     9  C    0.057383
    10  C    0.013465
    11  C    0.108442
    12  C    0.122761
    13  C    0.173804
    14  C    0.035105
    15  O   -0.197625
    16  O   -0.258820
    17  N   -0.256821
    18  C    0.148752
    19  C   -0.149920
    20  C    0.049833
    21  C    0.068162
    22  C    0.194441
    23  C   -0.095492
    24  O   -0.147696
    25  C    0.127125
    26  N   -0.198587
    27  C    0.050493
    28  C   -0.008554
    29  C    0.081689
    30  C    0.013155
    31  C    0.116782
    32  C    0.055357
    33  C    0.052604
    34  N   -0.318929
    35  C    0.190111
    36  C   -0.204903
    37  C    0.118495
    38  C    0.138550
    39  C    0.171915
    40  C   -0.094620
    41  O   -0.170214
    42  C    0.168927
    43  C    0.096922
    44  O   -0.140452
    45  O   -0.301635
    46  C    0.204850
    47  C    0.307703
    48  C   -0.087463
    49  C   -0.127976
    50  C    0.046271
    51  C    0.110737
    52  C    0.119826
    53  C    0.082924
    54  C   -0.082978
    55  C    0.132415
    56  C    0.088824
    57  C    0.062426
    58  C    0.132516
    59  C   -0.026856
    60  C    0.084437
    61  C    0.092743
    62  C    0.027307
    63  C    0.114009
    64  C   -0.143268
    65  C    0.111591
    66  C    0.132049
    67  H   -0.061799
    68  H   -0.039330
    69  H   -0.063583
    70  H   -0.005460
    71  H   -0.018392
    72  H   -0.014440
    73  H   -0.012973
    74  H    0.005298
    75  H   -0.020984
    76  H   -0.020044
    77  H    0.002309
    78  H   -0.002838
    79  H   -0.009970
    80  H    0.013666
    81  H   -0.008012
    82  H    0.011691
    83  H   -0.016945
    84  H    0.016747
    85  H   -0.015437
    86  H   -0.026607
    87  H   -0.009841
    88  H   -0.005602
    89  H   -0.004108
    90  H   -0.021271
    91  H   -0.030663
    92  H    0.008417
    93  H   -0.005087
    94  H   -0.013598
    95  H   -0.001808
    96  H    0.008687
    97  H    0.010016
    98  H    0.000866
    99  H    0.017212
   100  H    0.022703
   101  H    0.010499
   102  H    0.011420
   103  H    0.012492
   104  H   -0.027355
   105  H    0.027977
   106  H    0.007209
   107  H    0.018360
   108  H   -0.042790
   109  H   -0.020588
   110  H   -0.024722
   111  H   -0.033454
   112  H   -0.039402
   113  H   -0.042034
   114  H   -0.031019
   115  H   -0.031770
   116  H   -0.010554
   117  H   -0.026961
   118  H   -0.039532
   119  H   -0.033881
   120  H   -0.036929
   121  H   -0.020783
   122  H   -0.029277
   123  H   -0.037207
   124  H   -0.034504
   125  H   -0.020199
   126  H   -0.020501
   127  H   -0.024053
   128  H   -0.049021
   129  H   -0.032585
   130  H   -0.034751
   131  H   -0.041929
   132  H   -0.035009
   133  H   -0.039520
   134  H   -0.026710
   135  H   -0.017130
   136  H   -0.008275
   137  H   -0.015842
   138  H   -0.024062
   139  H   -0.020596
   140  H   -0.026731
 Sum of Mulliken charges =  -0.00000

 Dipole moment (field-independent basis, Debye):
    X=             -1.5263    Y=              4.5039    Z=             -0.9527  Tot=              4.8500
 Quadrupole moment (field-independent basis, Debye-Ang):
   XX=           -377.5345   YY=           -423.8037   ZZ=           -408.9545
   XY=             -3.8184   XZ=             21.1742   YZ=              5.8851

 Normal termination of Gaussian 16 at Tue Apr 26 22:43:16 2022.
