 Gaussian 16, Revision A.03,
 Gaussian 16:  ES64L-G16RevA.03 25-Dec-2016

 -----------------------------------
 #p cam-b3lyp/Def2SVP td=(nstates=5)
 -----------------------------------

 --------------------------------------------------------
 step_1001_chromophore_25 TDDFT with cam-b3lyp functional
 --------------------------------------------------------
 Symbolic Z-matrix:
 Charge =  0 Multiplicity = 1

                         Standard orientation:
 ---------------------------------------------------------------------
 Center     Atomic      Atomic             Coordinates (Angstroms)
 Number     Number       Type             X           Y           Z
 ---------------------------------------------------------------------
      1         12           0        5.657469    0.247638    0.313498
      2          6           0        3.227457   -2.296356    0.290727
      3          6           0        3.134978    2.592111   -0.168277
      4          6           0        7.898300    2.613224   -0.408498
      5          6           0        8.156083   -2.125261    0.459566
      6          7           0        3.505599    0.109615    0.131641
      7          6           0        2.725709   -1.014758    0.244877
      8          6           0        1.127987   -0.718962    0.117540
      9          6           0        1.243101    0.833034   -0.054001
     10          6           0        2.711422    1.237607   -0.051749
     11          6           0        0.311282    1.507717   -1.149249
     12          6           0        0.152649   -1.315406    1.198259
     13          6           0       -1.039018   -2.139854    0.765327
     14          6           0       -2.385050   -1.823649    1.395456
     15          8           0       -2.832235   -1.974026    2.532748
     16          8           0       -3.105768   -1.285558    0.399852
     17          7           0        5.550701    2.359989   -0.047013
     18          6           0        4.433648    3.133843   -0.214264
     19          6           0        4.802001    4.549958   -0.435777
     20          6           0        6.236464    4.560007   -0.512417
     21          6           0        6.641165    3.120046   -0.322054
     22          6           0        3.792608    5.594179   -0.601455
     23          6           0        7.164431    5.725956   -0.790160
     24          8           0        8.365185    5.596810   -0.873889
     25          6           0        6.618601    7.129167   -1.042173
     26          7           0        7.714221    0.144285   -0.200007
     27          6           0        8.410298    1.303966   -0.353275
     28          6           0        9.947462    1.121547   -0.247302
     29          6           0        9.982911   -0.383149    0.187445
     30          6           0        8.505011   -0.828789    0.233873
     31          6           0       10.846698    1.470556   -1.491467
     32          6           0       10.780868   -0.569151    1.515824
     33          6           0        9.989683   -0.475905    2.879821
     34          7           0        5.793597   -1.789174    0.341496
     35          6           0        6.916264   -2.647287    0.381660
     36          6           0        6.382712   -3.964217    0.461366
     37          6           0        4.944594   -3.860036    0.391418
     38          6           0        4.642769   -2.503977    0.300352
     39          6           0        7.249715   -5.194718    0.499023
     40          6           0        3.698141   -4.595560    0.359992
     41          8           0        3.465192   -5.828222    0.361433
     42          6           0        2.511195   -3.582068    0.303256
     43          6           0        1.859980   -3.787704   -0.996199
     44          8           0        2.290214   -3.410531   -2.038758
     45          8           0        0.553199   -4.296602   -0.879120
     46          6           0       -0.093584   -4.770121   -2.129291
     47          6           0       -4.471378   -0.864963    0.667025
     48          6           0       -5.001515   -0.408735   -0.682575
     49          6           0       -6.245055    0.166565   -0.865023
     50          6           0       -7.370565    0.348190    0.237326
     51          6           0       -6.841389    0.507746   -2.244673
     52          6           0       -7.824411   -0.503768   -2.913715
     53          6           0       -9.112612    0.144993   -3.360892
     54          6           0      -10.407920   -0.481244   -2.797650
     55          6           0      -10.876843   -1.559980   -3.770684
     56          6           0      -11.413487    0.732944   -2.697657
     57          6           0      -11.229227    1.543192   -1.365105
     58          6           0      -12.446876    1.405776   -0.420786
     59          6           0      -12.283857    0.207540    0.585403
     60          6           0      -13.197640   -0.924319    0.313097
     61          6           0      -12.580406    0.723530    2.096714
     62          6           0      -11.335986    0.749036    3.028061
     63          6           0      -10.668303    2.122098    3.089689
     64          6           0       -9.174689    1.972121    2.978306
     65          6           0       -8.656304    1.292786    4.272461
     66          6           0       -8.451801    3.259274    2.628194
     67          1           0        2.275868    3.196053   -0.469201
     68          1           0        8.592862    3.453269   -0.348766
     69          1           0        8.990573   -2.815735    0.600227
     70          1           0        0.821363   -1.182142   -0.819585
     71          1           0        0.998709    1.264965    0.916620
     72          1           0       -0.520579    0.892091   -1.489814
     73          1           0        0.833145    1.500450   -2.105371
     74          1           0       -0.069561    2.515957   -0.981334
     75          1           0       -0.227949   -0.474299    1.776789
     76          1           0        0.810306   -1.905792    1.835155
     77          1           0       -0.834059   -3.131018    1.170271
     78          1           0       -1.097080   -2.066327   -0.320809
     79          1           0        2.895825    5.368799   -0.024497
     80          1           0        3.468400    5.609592   -1.641740
     81          1           0        4.177620    6.528452   -0.190228
     82          1           0        6.319731    7.087121   -2.090038
     83          1           0        7.453497    7.830005   -1.037919
     84          1           0        5.912708    7.537633   -0.318685
     85          1           0       10.334354    1.790744    0.521529
     86          1           0       10.462586   -0.981309   -0.587794
     87          1           0       10.152420    1.763760   -2.279831
     88          1           0       11.475761    0.687143   -1.913066
     89          1           0       11.461444    2.346366   -1.289042
     90          1           0       11.666135    0.066209    1.556304
     91          1           0       11.230285   -1.562191    1.536060
     92          1           0        8.907569   -0.539667    2.765318
     93          1           0       10.279887    0.415112    3.436724
     94          1           0       10.257579   -1.326251    3.506459
     95          1           0        8.007305   -5.095932    1.276552
     96          1           0        7.708298   -5.267029   -0.487448
     97          1           0        6.554287   -6.012368    0.688665
     98          1           0        1.838356   -3.727323    1.148081
     99          1           0        0.669588   -4.862767   -2.902028
    100          1           0       -0.965183   -4.205507   -2.460386
    101          1           0       -0.396338   -5.810824   -2.013786
    102          1           0       -4.393568   -0.088752    1.427354
    103          1           0       -5.105962   -1.668741    1.038150
    104          1           0       -4.331479   -0.431945   -1.541273
    105          1           0       -8.065167    1.154503    0.001085
    106          1           0       -6.837734    0.603582    1.153199
    107          1           0       -8.008784   -0.512285    0.441908
    108          1           0       -6.100446    0.649334   -3.031409
    109          1           0       -7.256630    1.507454   -2.113609
    110          1           0       -8.043222   -1.356863   -2.271280
    111          1           0       -7.346092   -0.929082   -3.796199
    112          1           0       -9.174537    0.230730   -4.446034
    113          1           0       -8.987421    1.202890   -3.128506
    114          1           0      -10.414232   -0.953401   -1.815242
    115          1           0      -11.723617   -1.286554   -4.400809
    116          1           0      -11.184410   -2.477011   -3.269045
    117          1           0      -10.121966   -1.643839   -4.552801
    118          1           0      -12.434081    0.349223   -2.697217
    119          1           0      -11.290313    1.407385   -3.546030
    120          1           0      -11.101101    2.595310   -1.617094
    121          1           0      -10.324551    1.188067   -0.870408
    122          1           0      -13.345138    1.332838   -1.033481
    123          1           0      -12.561487    2.238055    0.273425
    124          1           0      -11.310691   -0.281775    0.542609
    125          1           0      -14.182966   -0.474336    0.435560
    126          1           0      -13.123518   -1.792316    0.966954
    127          1           0      -13.125993   -1.373506   -0.677109
    128          1           0      -13.154187    0.041367    2.724925
    129          1           0      -13.179410    1.626100    2.213038
    130          1           0      -10.708540   -0.111230    2.795502
    131          1           0      -11.589869    0.524620    4.063524
    132          1           0      -10.841617    2.626574    4.039934
    133          1           0      -11.058141    2.716563    2.262505
    134          1           0       -9.064995    1.239833    2.178696
    135          1           0       -8.179393    0.382102    3.911500
    136          1           0       -9.444847    0.997300    4.964040
    137          1           0       -7.932705    1.961159    4.739427
    138          1           0       -7.750154    3.047509    1.822152
    139          1           0       -7.924629    3.681645    3.484067
    140          1           0       -9.076479    4.057948    2.227532
 ---------------------------------------------------------------------

 SCF Done:  E(RCAM-B3LYP) =  -3007.15144342     A.U. after   19 cycles

 Excitation energies and oscillator strengths:

 Excited State   1:      Singlet-A      1.7276 eV  717.66 nm  f=0.3823  <S**2>=0.000
     245 -> 248       -0.17218
     246 -> 247        0.68653
     245 <- 248       -0.10202
 This state for optimization and/or second-order correction.
 Total Energy, E(TD-HF/TD-DFT) =  -3007.08795497
 Copying the excited state density for this state as the 1-particle RhoCI density.

 Excited State   2:      Singlet-A      2.2620 eV  548.13 nm  f=0.0905  <S**2>=0.000
     245 -> 247        0.62707
     246 -> 248        0.30621

 Excited State   3:      Singlet-A      3.2614 eV  380.16 nm  f=0.0057  <S**2>=0.000
     241 -> 247       -0.12477
     244 -> 247        0.67983

 Excited State   4:      Singlet-A      3.4494 eV  359.44 nm  f=0.5012  <S**2>=0.000
     239 -> 247        0.11848
     241 -> 247       -0.24441
     242 -> 247       -0.10507
     245 -> 247       -0.25569
     246 -> 248        0.57846

 Excited State   5:      Singlet-A      3.5000 eV  354.24 nm  f=0.0109  <S**2>=0.000
     242 -> 247        0.55957
     242 -> 249       -0.26919
     242 -> 250       -0.26121

 The electronic state is 1-A.
 Alpha  occ. eigenvalues --  -46.88380 -19.24867 -19.24191 -19.20000 -19.19728
 Alpha  occ. eigenvalues --  -19.19436 -19.18034 -14.42428 -14.42079 -14.40111
 Alpha  occ. eigenvalues --  -14.38367 -10.39164 -10.38975 -10.36013 -10.34701
 Alpha  occ. eigenvalues --  -10.32335 -10.32230 -10.31390 -10.31269 -10.31065
 Alpha  occ. eigenvalues --  -10.30983 -10.30479 -10.29932 -10.29818 -10.28889
 Alpha  occ. eigenvalues --  -10.28700 -10.28503 -10.28359 -10.28288 -10.28215
 Alpha  occ. eigenvalues --  -10.28188 -10.27571 -10.27554 -10.27363 -10.27334
 Alpha  occ. eigenvalues --  -10.27319 -10.27291 -10.27261 -10.26842 -10.26770
 Alpha  occ. eigenvalues --  -10.26767 -10.26666 -10.26543 -10.26468 -10.26155
 Alpha  occ. eigenvalues --  -10.26093 -10.26043 -10.25892 -10.25729 -10.25701
 Alpha  occ. eigenvalues --  -10.25401 -10.25323 -10.25299 -10.25091 -10.25076
 Alpha  occ. eigenvalues --  -10.24928 -10.24905 -10.24858 -10.24724 -10.24574
 Alpha  occ. eigenvalues --  -10.24498 -10.24341 -10.24232 -10.24148 -10.24062
 Alpha  occ. eigenvalues --  -10.23818  -3.16983  -1.91874  -1.91446  -1.91278
 Alpha  occ. eigenvalues --   -1.17115  -1.16230  -1.11703  -1.07730  -1.07403
 Alpha  occ. eigenvalues --   -1.07245  -1.04766  -1.03554  -1.02855  -1.01648
 Alpha  occ. eigenvalues --   -0.93340  -0.90484  -0.89887  -0.89635  -0.89453
 Alpha  occ. eigenvalues --   -0.88668  -0.88108  -0.88026  -0.87768  -0.87555
 Alpha  occ. eigenvalues --   -0.86144  -0.85397  -0.84428  -0.83717  -0.83189
 Alpha  occ. eigenvalues --   -0.82511  -0.82126  -0.81383  -0.81075  -0.80514
 Alpha  occ. eigenvalues --   -0.80173  -0.78921  -0.77734  -0.77272  -0.76349
 Alpha  occ. eigenvalues --   -0.75795  -0.75634  -0.75374  -0.74922  -0.74146
 Alpha  occ. eigenvalues --   -0.73655  -0.72519  -0.72224  -0.70408  -0.69708
 Alpha  occ. eigenvalues --   -0.68600  -0.68143  -0.67567  -0.66576  -0.65528
 Alpha  occ. eigenvalues --   -0.65487  -0.65174  -0.65054  -0.64324  -0.64211
 Alpha  occ. eigenvalues --   -0.64002  -0.63581  -0.62534  -0.61652  -0.60649
 Alpha  occ. eigenvalues --   -0.59736  -0.59694  -0.59286  -0.58539  -0.57953
 Alpha  occ. eigenvalues --   -0.57221  -0.56981  -0.56505  -0.56064  -0.55586
 Alpha  occ. eigenvalues --   -0.55048  -0.54773  -0.54674  -0.54395  -0.54264
 Alpha  occ. eigenvalues --   -0.53883  -0.53756  -0.53489  -0.53293  -0.53185
 Alpha  occ. eigenvalues --   -0.52895  -0.52610  -0.52036  -0.51949  -0.51885
 Alpha  occ. eigenvalues --   -0.51837  -0.51524  -0.51358  -0.51322  -0.50651
 Alpha  occ. eigenvalues --   -0.50438  -0.50396  -0.50137  -0.49879  -0.49723
 Alpha  occ. eigenvalues --   -0.49611  -0.49426  -0.49167  -0.48957  -0.48508
 Alpha  occ. eigenvalues --   -0.48436  -0.48411  -0.48148  -0.48075  -0.47975
 Alpha  occ. eigenvalues --   -0.47793  -0.47459  -0.46861  -0.46837  -0.46741
 Alpha  occ. eigenvalues --   -0.46584  -0.46337  -0.46165  -0.45960  -0.45660
 Alpha  occ. eigenvalues --   -0.45489  -0.45388  -0.45144  -0.44854  -0.44719
 Alpha  occ. eigenvalues --   -0.44513  -0.44461  -0.44214  -0.44101  -0.43994
 Alpha  occ. eigenvalues --   -0.43866  -0.43665  -0.43298  -0.43105  -0.42981
 Alpha  occ. eigenvalues --   -0.42876  -0.42509  -0.42471  -0.42174  -0.42075
 Alpha  occ. eigenvalues --   -0.41864  -0.41793  -0.41717  -0.41488  -0.41366
 Alpha  occ. eigenvalues --   -0.41238  -0.40782  -0.40711  -0.40584  -0.40037
 Alpha  occ. eigenvalues --   -0.39739  -0.39733  -0.39453  -0.39169  -0.38729
 Alpha  occ. eigenvalues --   -0.38315  -0.37946  -0.37650  -0.37513  -0.37358
 Alpha  occ. eigenvalues --   -0.37140  -0.36871  -0.36579  -0.36385  -0.36295
 Alpha  occ. eigenvalues --   -0.35963  -0.35493  -0.34712  -0.34672  -0.34111
 Alpha  occ. eigenvalues --   -0.34043  -0.33729  -0.33505  -0.31839  -0.31474
 Alpha  occ. eigenvalues --   -0.30593  -0.30235  -0.30100  -0.28683  -0.24422
 Alpha  occ. eigenvalues --   -0.21175
 Alpha virt. eigenvalues --   -0.08681  -0.02068   0.00148   0.02091   0.02236
 Alpha virt. eigenvalues --    0.04171   0.05132   0.05450   0.06063   0.06985
 Alpha virt. eigenvalues --    0.07132   0.08046   0.08687   0.08895   0.09050

 Mulliken charges:
               1
     1  Mg   0.819367
     2  C   -0.095771
     3  C   -0.110435
     4  C   -0.065742
     5  C   -0.098916
     6  N   -0.315033
     7  C   -0.034662
     8  C   -0.064044
     9  C   -0.007894
    10  C    0.046267
    11  C    0.046747
    12  C    0.067258
    13  C    0.099822
    14  C    0.122319
    15  O   -0.240539
    16  O   -0.323756
    17  N   -0.343803
    18  C    0.159449
    19  C   -0.151411
    20  C   -0.017124
    21  C    0.095955
    22  C    0.132871
    23  C   -0.015348
    24  O   -0.187504
    25  C    0.046630
    26  N   -0.267475
    27  C    0.073290
    28  C   -0.062982
    29  C    0.029173
    30  C    0.018638
    31  C    0.060680
    32  C    0.000678
    33  C   -0.005934
    34  N   -0.408678
    35  C    0.182972
    36  C   -0.191967
    37  C    0.024341
    38  C    0.178159
    39  C    0.120251
    40  C    0.005656
    41  O   -0.212470
    42  C    0.083014
    43  C    0.187133
    44  O   -0.175085
    45  O   -0.366614
    46  C    0.170291
    47  C    0.277187
    48  C   -0.107428
    49  C   -0.146507
    50  C   -0.003590
    51  C    0.052562
    52  C    0.062550
    53  C    0.026313
    54  C   -0.136890
    55  C    0.072403
    56  C    0.037417
    57  C    0.014429
    58  C    0.078535
    59  C   -0.084209
    60  C    0.033367
    61  C    0.033758
    62  C   -0.025221
    63  C    0.065283
    64  C   -0.195754
    65  C    0.051263
    66  C    0.073512
    67  H   -0.028381
    68  H    0.001113
    69  H   -0.027411
    70  H    0.025851
    71  H    0.017033
    72  H    0.012165
    73  H    0.013231
    74  H    0.028682
    75  H    0.010573
    76  H    0.010923
    77  H    0.034919
    78  H    0.029289
    79  H    0.020415
    80  H    0.043473
    81  H    0.018263
    82  H    0.040986
    83  H    0.020242
    84  H    0.043683
    85  H    0.018420
    86  H    0.008861
    87  H    0.015573
    88  H    0.019538
    89  H    0.019577
    90  H    0.006398
    91  H   -0.002202
    92  H    0.029562
    93  H    0.017158
    94  H    0.010668
    95  H    0.020640
    96  H    0.033125
    97  H    0.036252
    98  H    0.043372
    99  H    0.042914
   100  H    0.041037
   101  H    0.032500
   102  H    0.038649
   103  H    0.039857
   104  H    0.007201
   105  H    0.043572
   106  H    0.026527
   107  H    0.038985
   108  H   -0.011386
   109  H    0.007320
   110  H    0.003727
   111  H   -0.002882
   112  H   -0.008617
   113  H   -0.013291
   114  H   -0.003517
   115  H   -0.005418
   116  H    0.013521
   117  H   -0.001761
   118  H   -0.012067
   119  H   -0.004761
   120  H   -0.006688
   121  H   -0.001944
   122  H   -0.000238
   123  H   -0.007727
   124  H   -0.008050
   125  H    0.002269
   126  H    0.004803
   127  H   -0.001724
   128  H   -0.016519
   129  H   -0.003478
   130  H   -0.007100
   131  H   -0.012069
   132  H   -0.005770
   133  H   -0.014051
   134  H   -0.003574
   135  H    0.006050
   136  H    0.014951
   137  H    0.008669
   138  H   -0.001451
   139  H    0.003505
   140  H   -0.000719
 Sum of Mulliken charges =  -0.00000

 Dipole moment (field-independent basis, Debye):
    X=             -1.6039    Y=              5.9016    Z=             -1.2093  Tot=              6.2341
 Quadrupole moment (field-independent basis, Debye-Ang):
   XX=           -374.7617   YY=           -418.5109   ZZ=           -408.8600
   XY=              2.9316   XZ=             21.0358   YZ=              5.6016

 Normal termination of Gaussian 16 at Tue Apr 26 21:38:47 2022.
