 Gaussian 16, Revision A.03,
 Gaussian 16:  ES64L-G16RevA.03 25-Dec-2016

 ---------------------------------
 #p PBE1PBE/Def2SVP td=(nstates=5)
 ---------------------------------

 ------------------------------------------------------
 step_1001_chromophore_25 TDDFT with PBE1PBE functional
 ------------------------------------------------------
 Symbolic Z-matrix:
 Charge =  0 Multiplicity = 1

                         Standard orientation:
 ---------------------------------------------------------------------
 Center     Atomic      Atomic             Coordinates (Angstroms)
 Number     Number       Type             X           Y           Z
 ---------------------------------------------------------------------
      1         12           0        5.657469    0.247638    0.313498
      2          6           0        3.227457   -2.296356    0.290727
      3          6           0        3.134978    2.592111   -0.168277
      4          6           0        7.898300    2.613224   -0.408498
      5          6           0        8.156083   -2.125261    0.459566
      6          7           0        3.505599    0.109615    0.131641
      7          6           0        2.725709   -1.014758    0.244877
      8          6           0        1.127987   -0.718962    0.117540
      9          6           0        1.243101    0.833034   -0.054001
     10          6           0        2.711422    1.237607   -0.051749
     11          6           0        0.311282    1.507717   -1.149249
     12          6           0        0.152649   -1.315406    1.198259
     13          6           0       -1.039018   -2.139854    0.765327
     14          6           0       -2.385050   -1.823649    1.395456
     15          8           0       -2.832235   -1.974026    2.532748
     16          8           0       -3.105768   -1.285558    0.399852
     17          7           0        5.550701    2.359989   -0.047013
     18          6           0        4.433648    3.133843   -0.214264
     19          6           0        4.802001    4.549958   -0.435777
     20          6           0        6.236464    4.560007   -0.512417
     21          6           0        6.641165    3.120046   -0.322054
     22          6           0        3.792608    5.594179   -0.601455
     23          6           0        7.164431    5.725956   -0.790160
     24          8           0        8.365185    5.596810   -0.873889
     25          6           0        6.618601    7.129167   -1.042173
     26          7           0        7.714221    0.144285   -0.200007
     27          6           0        8.410298    1.303966   -0.353275
     28          6           0        9.947462    1.121547   -0.247302
     29          6           0        9.982911   -0.383149    0.187445
     30          6           0        8.505011   -0.828789    0.233873
     31          6           0       10.846698    1.470556   -1.491467
     32          6           0       10.780868   -0.569151    1.515824
     33          6           0        9.989683   -0.475905    2.879821
     34          7           0        5.793597   -1.789174    0.341496
     35          6           0        6.916264   -2.647287    0.381660
     36          6           0        6.382712   -3.964217    0.461366
     37          6           0        4.944594   -3.860036    0.391418
     38          6           0        4.642769   -2.503977    0.300352
     39          6           0        7.249715   -5.194718    0.499023
     40          6           0        3.698141   -4.595560    0.359992
     41          8           0        3.465192   -5.828222    0.361433
     42          6           0        2.511195   -3.582068    0.303256
     43          6           0        1.859980   -3.787704   -0.996199
     44          8           0        2.290214   -3.410531   -2.038758
     45          8           0        0.553199   -4.296602   -0.879120
     46          6           0       -0.093584   -4.770121   -2.129291
     47          6           0       -4.471378   -0.864963    0.667025
     48          6           0       -5.001515   -0.408735   -0.682575
     49          6           0       -6.245055    0.166565   -0.865023
     50          6           0       -7.370565    0.348190    0.237326
     51          6           0       -6.841389    0.507746   -2.244673
     52          6           0       -7.824411   -0.503768   -2.913715
     53          6           0       -9.112612    0.144993   -3.360892
     54          6           0      -10.407920   -0.481244   -2.797650
     55          6           0      -10.876843   -1.559980   -3.770684
     56          6           0      -11.413487    0.732944   -2.697657
     57          6           0      -11.229227    1.543192   -1.365105
     58          6           0      -12.446876    1.405776   -0.420786
     59          6           0      -12.283857    0.207540    0.585403
     60          6           0      -13.197640   -0.924319    0.313097
     61          6           0      -12.580406    0.723530    2.096714
     62          6           0      -11.335986    0.749036    3.028061
     63          6           0      -10.668303    2.122098    3.089689
     64          6           0       -9.174689    1.972121    2.978306
     65          6           0       -8.656304    1.292786    4.272461
     66          6           0       -8.451801    3.259274    2.628194
     67          1           0        2.275868    3.196053   -0.469201
     68          1           0        8.592862    3.453269   -0.348766
     69          1           0        8.990573   -2.815735    0.600227
     70          1           0        0.821363   -1.182142   -0.819585
     71          1           0        0.998709    1.264965    0.916620
     72          1           0       -0.520579    0.892091   -1.489814
     73          1           0        0.833145    1.500450   -2.105371
     74          1           0       -0.069561    2.515957   -0.981334
     75          1           0       -0.227949   -0.474299    1.776789
     76          1           0        0.810306   -1.905792    1.835155
     77          1           0       -0.834059   -3.131018    1.170271
     78          1           0       -1.097080   -2.066327   -0.320809
     79          1           0        2.895825    5.368799   -0.024497
     80          1           0        3.468400    5.609592   -1.641740
     81          1           0        4.177620    6.528452   -0.190228
     82          1           0        6.319731    7.087121   -2.090038
     83          1           0        7.453497    7.830005   -1.037919
     84          1           0        5.912708    7.537633   -0.318685
     85          1           0       10.334354    1.790744    0.521529
     86          1           0       10.462586   -0.981309   -0.587794
     87          1           0       10.152420    1.763760   -2.279831
     88          1           0       11.475761    0.687143   -1.913066
     89          1           0       11.461444    2.346366   -1.289042
     90          1           0       11.666135    0.066209    1.556304
     91          1           0       11.230285   -1.562191    1.536060
     92          1           0        8.907569   -0.539667    2.765318
     93          1           0       10.279887    0.415112    3.436724
     94          1           0       10.257579   -1.326251    3.506459
     95          1           0        8.007305   -5.095932    1.276552
     96          1           0        7.708298   -5.267029   -0.487448
     97          1           0        6.554287   -6.012368    0.688665
     98          1           0        1.838356   -3.727323    1.148081
     99          1           0        0.669588   -4.862767   -2.902028
    100          1           0       -0.965183   -4.205507   -2.460386
    101          1           0       -0.396338   -5.810824   -2.013786
    102          1           0       -4.393568   -0.088752    1.427354
    103          1           0       -5.105962   -1.668741    1.038150
    104          1           0       -4.331479   -0.431945   -1.541273
    105          1           0       -8.065167    1.154503    0.001085
    106          1           0       -6.837734    0.603582    1.153199
    107          1           0       -8.008784   -0.512285    0.441908
    108          1           0       -6.100446    0.649334   -3.031409
    109          1           0       -7.256630    1.507454   -2.113609
    110          1           0       -8.043222   -1.356863   -2.271280
    111          1           0       -7.346092   -0.929082   -3.796199
    112          1           0       -9.174537    0.230730   -4.446034
    113          1           0       -8.987421    1.202890   -3.128506
    114          1           0      -10.414232   -0.953401   -1.815242
    115          1           0      -11.723617   -1.286554   -4.400809
    116          1           0      -11.184410   -2.477011   -3.269045
    117          1           0      -10.121966   -1.643839   -4.552801
    118          1           0      -12.434081    0.349223   -2.697217
    119          1           0      -11.290313    1.407385   -3.546030
    120          1           0      -11.101101    2.595310   -1.617094
    121          1           0      -10.324551    1.188067   -0.870408
    122          1           0      -13.345138    1.332838   -1.033481
    123          1           0      -12.561487    2.238055    0.273425
    124          1           0      -11.310691   -0.281775    0.542609
    125          1           0      -14.182966   -0.474336    0.435560
    126          1           0      -13.123518   -1.792316    0.966954
    127          1           0      -13.125993   -1.373506   -0.677109
    128          1           0      -13.154187    0.041367    2.724925
    129          1           0      -13.179410    1.626100    2.213038
    130          1           0      -10.708540   -0.111230    2.795502
    131          1           0      -11.589869    0.524620    4.063524
    132          1           0      -10.841617    2.626574    4.039934
    133          1           0      -11.058141    2.716563    2.262505
    134          1           0       -9.064995    1.239833    2.178696
    135          1           0       -8.179393    0.382102    3.911500
    136          1           0       -9.444847    0.997300    4.964040
    137          1           0       -7.932705    1.961159    4.739427
    138          1           0       -7.750154    3.047509    1.822152
    139          1           0       -7.924629    3.681645    3.484067
    140          1           0       -9.076479    4.057948    2.227532
 ---------------------------------------------------------------------

 SCF Done:  E(RPBE1PBE) =  -3005.33935571     A.U. after   16 cycles

 Excitation energies and oscillator strengths:

 Excited State   1:      Singlet-A      1.8578 eV  667.38 nm  f=0.3704  <S**2>=0.000
     245 -> 248       -0.16550
     246 -> 247        0.69344
     246 <- 247       -0.10815
 This state for optimization and/or second-order correction.
 Total Energy, E(TD-HF/TD-DFT) =  -3005.27108410
 Copying the excited state density for this state as the 1-particle RhoCI density.

 Excited State   2:      Singlet-A      2.2552 eV  549.77 nm  f=0.0893  <S**2>=0.000
     245 -> 247        0.64063
     246 -> 248        0.27603

 Excited State   3:      Singlet-A      2.8712 eV  431.82 nm  f=0.0063  <S**2>=0.000
     243 -> 247        0.15992
     244 -> 247        0.67264

 Excited State   4:      Singlet-A      2.9603 eV  418.83 nm  f=0.0010  <S**2>=0.000
     243 -> 247        0.65659
     243 -> 249       -0.14123
     243 -> 250        0.10356
     244 -> 247       -0.17285

 Excited State   5:      Singlet-A      3.1744 eV  390.58 nm  f=0.0236  <S**2>=0.000
     239 -> 247       -0.10668
     240 -> 247        0.59831
     240 -> 248       -0.11701
     240 -> 249        0.13919
     241 -> 247       -0.20063
     246 -> 248        0.18870

 The electronic state is 1-A.
 Alpha  occ. eigenvalues --  -46.91804 -19.25614 -19.24895 -19.20243 -19.19776
 Alpha  occ. eigenvalues --  -19.19710 -19.18523 -14.42061 -14.41532 -14.39636
 Alpha  occ. eigenvalues --  -14.38252 -10.36231 -10.36060 -10.32920 -10.32074
 Alpha  occ. eigenvalues --  -10.29750 -10.29746 -10.28962 -10.28897 -10.28539
 Alpha  occ. eigenvalues --  -10.28420 -10.27913 -10.27894 -10.27156 -10.26751
 Alpha  occ. eigenvalues --  -10.26458 -10.26343 -10.26269 -10.25942 -10.25934
 Alpha  occ. eigenvalues --  -10.25924 -10.25361 -10.25347 -10.25235 -10.25186
 Alpha  occ. eigenvalues --  -10.24983 -10.24957 -10.24757 -10.24351 -10.24312
 Alpha  occ. eigenvalues --  -10.24279 -10.24165 -10.23956 -10.23864 -10.23780
 Alpha  occ. eigenvalues --  -10.23758 -10.23727 -10.23475 -10.23247 -10.23150
 Alpha  occ. eigenvalues --  -10.22913 -10.22876 -10.22863 -10.22668 -10.22638
 Alpha  occ. eigenvalues --  -10.22627 -10.22568 -10.22496 -10.22444 -10.22366
 Alpha  occ. eigenvalues --  -10.22061 -10.21737 -10.21633 -10.21511 -10.21417
 Alpha  occ. eigenvalues --  -10.21340  -3.13985  -1.86817  -1.86368  -1.86203
 Alpha  occ. eigenvalues --   -1.11999  -1.11012  -1.06223  -1.02616  -1.02328
 Alpha  occ. eigenvalues --   -1.02152  -0.99388  -0.98054  -0.97555  -0.96439
 Alpha  occ. eigenvalues --   -0.87869  -0.84571  -0.84034  -0.83809  -0.83647
 Alpha  occ. eigenvalues --   -0.82802  -0.82354  -0.82297  -0.81946  -0.81788
 Alpha  occ. eigenvalues --   -0.80480  -0.79819  -0.78692  -0.78032  -0.77404
 Alpha  occ. eigenvalues --   -0.76721  -0.76133  -0.75661  -0.75346  -0.74767
 Alpha  occ. eigenvalues --   -0.74439  -0.73071  -0.72008  -0.71629  -0.70712
 Alpha  occ. eigenvalues --   -0.69925  -0.69734  -0.69719  -0.69066  -0.68324
 Alpha  occ. eigenvalues --   -0.67986  -0.67045  -0.66659  -0.64740  -0.64082
 Alpha  occ. eigenvalues --   -0.62881  -0.62479  -0.62049  -0.60806  -0.59955
 Alpha  occ. eigenvalues --   -0.59779  -0.59686  -0.59545  -0.58919  -0.58518
 Alpha  occ. eigenvalues --   -0.58270  -0.57749  -0.56709  -0.56316  -0.55065
 Alpha  occ. eigenvalues --   -0.54314  -0.54174  -0.53756  -0.53157  -0.52600
 Alpha  occ. eigenvalues --   -0.51837  -0.51464  -0.50904  -0.50617  -0.50185
 Alpha  occ. eigenvalues --   -0.49605  -0.49270  -0.49162  -0.48912  -0.48663
 Alpha  occ. eigenvalues --   -0.48446  -0.48242  -0.47947  -0.47867  -0.47643
 Alpha  occ. eigenvalues --   -0.47362  -0.47170  -0.46718  -0.46511  -0.46419
 Alpha  occ. eigenvalues --   -0.46393  -0.46060  -0.45922  -0.45746  -0.45158
 Alpha  occ. eigenvalues --   -0.45065  -0.44967  -0.44593  -0.44456  -0.44251
 Alpha  occ. eigenvalues --   -0.44232  -0.43946  -0.43719  -0.43537  -0.43132
 Alpha  occ. eigenvalues --   -0.43078  -0.42987  -0.42853  -0.42782  -0.42595
 Alpha  occ. eigenvalues --   -0.42367  -0.42005  -0.41595  -0.41490  -0.41457
 Alpha  occ. eigenvalues --   -0.41200  -0.41104  -0.41072  -0.40645  -0.40226
 Alpha  occ. eigenvalues --   -0.40201  -0.40081  -0.39952  -0.39617  -0.39508
 Alpha  occ. eigenvalues --   -0.39350  -0.39164  -0.39015  -0.38806  -0.38659
 Alpha  occ. eigenvalues --   -0.38552  -0.38388  -0.38137  -0.37964  -0.37721
 Alpha  occ. eigenvalues --   -0.37588  -0.37315  -0.37193  -0.37085  -0.36813
 Alpha  occ. eigenvalues --   -0.36667  -0.36621  -0.36589  -0.36389  -0.36174
 Alpha  occ. eigenvalues --   -0.35971  -0.35687  -0.35487  -0.35473  -0.34958
 Alpha  occ. eigenvalues --   -0.34675  -0.34520  -0.34194  -0.34149  -0.33525
 Alpha  occ. eigenvalues --   -0.33079  -0.32911  -0.32512  -0.32449  -0.32324
 Alpha  occ. eigenvalues --   -0.32148  -0.31884  -0.31408  -0.31318  -0.31141
 Alpha  occ. eigenvalues --   -0.31058  -0.30420  -0.29613  -0.29507  -0.29448
 Alpha  occ. eigenvalues --   -0.29068  -0.28994  -0.28536  -0.27165  -0.26302
 Alpha  occ. eigenvalues --   -0.26111  -0.25415  -0.25299  -0.24553  -0.21310
 Alpha  occ. eigenvalues --   -0.18825
 Alpha virt. eigenvalues --   -0.11222  -0.05601  -0.03978  -0.02335  -0.00560
 Alpha virt. eigenvalues --   -0.00288   0.00590   0.00837   0.01458   0.03190
 Alpha virt. eigenvalues --    0.03760   0.04529   0.04701   0.05339   0.05747

 Mulliken charges:
               1
     1  Mg   0.965948
     2  C   -0.101473
     3  C   -0.094365
     4  C   -0.054914
     5  C   -0.093551
     6  N   -0.424010
     7  C    0.047562
     8  C   -0.121528
     9  C   -0.088509
    10  C    0.083520
    11  C   -0.015750
    12  C    0.015183
    13  C    0.015611
    14  C    0.196701
    15  O   -0.276684
    16  O   -0.356471
    17  N   -0.455658
    18  C    0.173505
    19  C   -0.178744
    20  C   -0.064274
    21  C    0.122896
    22  C    0.071678
    23  C    0.034980
    24  O   -0.226069
    25  C   -0.025599
    26  N   -0.376202
    27  C    0.103382
    28  C   -0.131203
    29  C   -0.043789
    30  C    0.052178
    31  C    0.004025
    32  C   -0.060152
    33  C   -0.077604
    34  N   -0.535815
    35  C    0.210175
    36  C   -0.202189
    37  C   -0.028248
    38  C    0.235324
    39  C    0.065793
    40  C    0.099799
    41  O   -0.254843
    42  C   -0.049708
    43  C    0.285822
    44  O   -0.209337
    45  O   -0.399110
    46  C    0.116762
    47  C    0.242092
    48  C   -0.122324
    49  C   -0.185845
    50  C   -0.071098
    51  C   -0.012267
    52  C    0.006380
    53  C   -0.029411
    54  C   -0.232972
    55  C    0.018924
    56  C   -0.013324
    57  C   -0.059057
    58  C    0.024767
    59  C   -0.168875
    60  C   -0.026167
    61  C   -0.022134
    62  C   -0.085053
    63  C    0.009689
    64  C   -0.303302
    65  C   -0.007390
    66  C    0.013578
    67  H    0.004396
    68  H    0.032053
    69  H    0.004082
    70  H    0.065240
    71  H    0.056963
    72  H    0.039650
    73  H    0.041809
    74  H    0.054289
    75  H    0.043824
    76  H    0.044086
    77  H    0.068152
    78  H    0.061997
    79  H    0.046508
    80  H    0.070372
    81  H    0.046027
    82  H    0.068495
    83  H    0.047492
    84  H    0.067353
    85  H    0.055207
    86  H    0.046774
    87  H    0.044424
    88  H    0.045133
    89  H    0.046251
    90  H    0.039590
    91  H    0.030085
    92  H    0.059388
    93  H    0.045261
    94  H    0.038399
    95  H    0.048492
    96  H    0.062372
    97  H    0.065364
    98  H    0.079265
    99  H    0.063530
   100  H    0.061826
   101  H    0.054672
   102  H    0.064110
   103  H    0.066060
   104  H    0.036302
   105  H    0.070418
   106  H    0.055586
   107  H    0.064498
   108  H    0.021411
   109  H    0.039013
   110  H    0.036282
   111  H    0.029795
   112  H    0.024005
   113  H    0.019729
   114  H    0.034970
   115  H    0.021656
   116  H    0.040119
   117  H    0.025796
   118  H    0.020538
   119  H    0.027703
   120  H    0.026455
   121  H    0.040241
   122  H    0.031013
   123  H    0.025234
   124  H    0.027777
   125  H    0.030776
   126  H    0.032766
   127  H    0.027620
   128  H    0.016575
   129  H    0.027891
   130  H    0.023280
   131  H    0.020641
   132  H    0.028341
   133  H    0.021046
   134  H    0.047669
   135  H    0.033092
   136  H    0.041685
   137  H    0.036050
   138  H    0.027417
   139  H    0.030106
   140  H    0.026253
 Sum of Mulliken charges =  -0.00000

 Dipole moment (field-independent basis, Debye):
    X=             -1.5950    Y=              5.3013    Z=             -1.1321  Tot=              5.6506
 Quadrupole moment (field-independent basis, Debye-Ang):
   XX=           -368.1963   YY=           -416.5720   ZZ=           -406.1653
   XY=             -1.0045   XZ=             21.8641   YZ=              5.5242

 Normal termination of Gaussian 16 at Tue Apr 26 22:00:16 2022.
