 Gaussian 16, Revision A.03,
 Gaussian 16:  ES64L-G16RevA.03 25-Dec-2016

 --------------------------------
 #p wB97XD/Def2SVP td=(nstates=5)
 --------------------------------

 -----------------------------------------------------
 step_1001_chromophore_25 TDDFT with wB97XD functional
 -----------------------------------------------------
 Symbolic Z-matrix:
 Charge =  0 Multiplicity = 1

                         Standard orientation:
 ---------------------------------------------------------------------
 Center     Atomic      Atomic             Coordinates (Angstroms)
 Number     Number       Type             X           Y           Z
 ---------------------------------------------------------------------
      1         12           0        5.657469    0.247638    0.313498
      2          6           0        3.227457   -2.296356    0.290727
      3          6           0        3.134978    2.592111   -0.168277
      4          6           0        7.898300    2.613224   -0.408498
      5          6           0        8.156083   -2.125261    0.459566
      6          7           0        3.505599    0.109615    0.131641
      7          6           0        2.725709   -1.014758    0.244877
      8          6           0        1.127987   -0.718962    0.117540
      9          6           0        1.243101    0.833034   -0.054001
     10          6           0        2.711422    1.237607   -0.051749
     11          6           0        0.311282    1.507717   -1.149249
     12          6           0        0.152649   -1.315406    1.198259
     13          6           0       -1.039018   -2.139854    0.765327
     14          6           0       -2.385050   -1.823649    1.395456
     15          8           0       -2.832235   -1.974026    2.532748
     16          8           0       -3.105768   -1.285558    0.399852
     17          7           0        5.550701    2.359989   -0.047013
     18          6           0        4.433648    3.133843   -0.214264
     19          6           0        4.802001    4.549958   -0.435777
     20          6           0        6.236464    4.560007   -0.512417
     21          6           0        6.641165    3.120046   -0.322054
     22          6           0        3.792608    5.594179   -0.601455
     23          6           0        7.164431    5.725956   -0.790160
     24          8           0        8.365185    5.596810   -0.873889
     25          6           0        6.618601    7.129167   -1.042173
     26          7           0        7.714221    0.144285   -0.200007
     27          6           0        8.410298    1.303966   -0.353275
     28          6           0        9.947462    1.121547   -0.247302
     29          6           0        9.982911   -0.383149    0.187445
     30          6           0        8.505011   -0.828789    0.233873
     31          6           0       10.846698    1.470556   -1.491467
     32          6           0       10.780868   -0.569151    1.515824
     33          6           0        9.989683   -0.475905    2.879821
     34          7           0        5.793597   -1.789174    0.341496
     35          6           0        6.916264   -2.647287    0.381660
     36          6           0        6.382712   -3.964217    0.461366
     37          6           0        4.944594   -3.860036    0.391418
     38          6           0        4.642769   -2.503977    0.300352
     39          6           0        7.249715   -5.194718    0.499023
     40          6           0        3.698141   -4.595560    0.359992
     41          8           0        3.465192   -5.828222    0.361433
     42          6           0        2.511195   -3.582068    0.303256
     43          6           0        1.859980   -3.787704   -0.996199
     44          8           0        2.290214   -3.410531   -2.038758
     45          8           0        0.553199   -4.296602   -0.879120
     46          6           0       -0.093584   -4.770121   -2.129291
     47          6           0       -4.471378   -0.864963    0.667025
     48          6           0       -5.001515   -0.408735   -0.682575
     49          6           0       -6.245055    0.166565   -0.865023
     50          6           0       -7.370565    0.348190    0.237326
     51          6           0       -6.841389    0.507746   -2.244673
     52          6           0       -7.824411   -0.503768   -2.913715
     53          6           0       -9.112612    0.144993   -3.360892
     54          6           0      -10.407920   -0.481244   -2.797650
     55          6           0      -10.876843   -1.559980   -3.770684
     56          6           0      -11.413487    0.732944   -2.697657
     57          6           0      -11.229227    1.543192   -1.365105
     58          6           0      -12.446876    1.405776   -0.420786
     59          6           0      -12.283857    0.207540    0.585403
     60          6           0      -13.197640   -0.924319    0.313097
     61          6           0      -12.580406    0.723530    2.096714
     62          6           0      -11.335986    0.749036    3.028061
     63          6           0      -10.668303    2.122098    3.089689
     64          6           0       -9.174689    1.972121    2.978306
     65          6           0       -8.656304    1.292786    4.272461
     66          6           0       -8.451801    3.259274    2.628194
     67          1           0        2.275868    3.196053   -0.469201
     68          1           0        8.592862    3.453269   -0.348766
     69          1           0        8.990573   -2.815735    0.600227
     70          1           0        0.821363   -1.182142   -0.819585
     71          1           0        0.998709    1.264965    0.916620
     72          1           0       -0.520579    0.892091   -1.489814
     73          1           0        0.833145    1.500450   -2.105371
     74          1           0       -0.069561    2.515957   -0.981334
     75          1           0       -0.227949   -0.474299    1.776789
     76          1           0        0.810306   -1.905792    1.835155
     77          1           0       -0.834059   -3.131018    1.170271
     78          1           0       -1.097080   -2.066327   -0.320809
     79          1           0        2.895825    5.368799   -0.024497
     80          1           0        3.468400    5.609592   -1.641740
     81          1           0        4.177620    6.528452   -0.190228
     82          1           0        6.319731    7.087121   -2.090038
     83          1           0        7.453497    7.830005   -1.037919
     84          1           0        5.912708    7.537633   -0.318685
     85          1           0       10.334354    1.790744    0.521529
     86          1           0       10.462586   -0.981309   -0.587794
     87          1           0       10.152420    1.763760   -2.279831
     88          1           0       11.475761    0.687143   -1.913066
     89          1           0       11.461444    2.346366   -1.289042
     90          1           0       11.666135    0.066209    1.556304
     91          1           0       11.230285   -1.562191    1.536060
     92          1           0        8.907569   -0.539667    2.765318
     93          1           0       10.279887    0.415112    3.436724
     94          1           0       10.257579   -1.326251    3.506459
     95          1           0        8.007305   -5.095932    1.276552
     96          1           0        7.708298   -5.267029   -0.487448
     97          1           0        6.554287   -6.012368    0.688665
     98          1           0        1.838356   -3.727323    1.148081
     99          1           0        0.669588   -4.862767   -2.902028
    100          1           0       -0.965183   -4.205507   -2.460386
    101          1           0       -0.396338   -5.810824   -2.013786
    102          1           0       -4.393568   -0.088752    1.427354
    103          1           0       -5.105962   -1.668741    1.038150
    104          1           0       -4.331479   -0.431945   -1.541273
    105          1           0       -8.065167    1.154503    0.001085
    106          1           0       -6.837734    0.603582    1.153199
    107          1           0       -8.008784   -0.512285    0.441908
    108          1           0       -6.100446    0.649334   -3.031409
    109          1           0       -7.256630    1.507454   -2.113609
    110          1           0       -8.043222   -1.356863   -2.271280
    111          1           0       -7.346092   -0.929082   -3.796199
    112          1           0       -9.174537    0.230730   -4.446034
    113          1           0       -8.987421    1.202890   -3.128506
    114          1           0      -10.414232   -0.953401   -1.815242
    115          1           0      -11.723617   -1.286554   -4.400809
    116          1           0      -11.184410   -2.477011   -3.269045
    117          1           0      -10.121966   -1.643839   -4.552801
    118          1           0      -12.434081    0.349223   -2.697217
    119          1           0      -11.290313    1.407385   -3.546030
    120          1           0      -11.101101    2.595310   -1.617094
    121          1           0      -10.324551    1.188067   -0.870408
    122          1           0      -13.345138    1.332838   -1.033481
    123          1           0      -12.561487    2.238055    0.273425
    124          1           0      -11.310691   -0.281775    0.542609
    125          1           0      -14.182966   -0.474336    0.435560
    126          1           0      -13.123518   -1.792316    0.966954
    127          1           0      -13.125993   -1.373506   -0.677109
    128          1           0      -13.154187    0.041367    2.724925
    129          1           0      -13.179410    1.626100    2.213038
    130          1           0      -10.708540   -0.111230    2.795502
    131          1           0      -11.589869    0.524620    4.063524
    132          1           0      -10.841617    2.626574    4.039934
    133          1           0      -11.058141    2.716563    2.262505
    134          1           0       -9.064995    1.239833    2.178696
    135          1           0       -8.179393    0.382102    3.911500
    136          1           0       -9.444847    0.997300    4.964040
    137          1           0       -7.932705    1.961159    4.739427
    138          1           0       -7.750154    3.047509    1.822152
    139          1           0       -7.924629    3.681645    3.484067
    140          1           0       -9.076479    4.057948    2.227532
 ---------------------------------------------------------------------

 SCF Done:  E(RwB97XD) =  -3007.85435713     A.U. after   19 cycles

 Excitation energies and oscillator strengths:

 Excited State   1:      Singlet-A      1.6835 eV  736.45 nm  f=0.3807  <S**2>=0.000
     245 -> 248        0.17613
     246 -> 247        0.68434
     245 <- 248        0.10967
 This state for optimization and/or second-order correction.
 Total Energy, E(TD-HF/TD-DFT) =  -3007.79248808
 Copying the excited state density for this state as the 1-particle RhoCI density.

 Excited State   2:      Singlet-A      2.2114 eV  560.67 nm  f=0.0900  <S**2>=0.000
     245 -> 247        0.62557
     246 -> 248       -0.30551

 Excited State   3:      Singlet-A      3.3002 eV  375.68 nm  f=0.0033  <S**2>=0.000
     241 -> 247       -0.14555
     244 -> 247        0.66793

 Excited State   4:      Singlet-A      3.4616 eV  358.17 nm  f=0.4822  <S**2>=0.000
     239 -> 247       -0.14168
     241 -> 247        0.29083
     245 -> 247        0.24378
     246 -> 248        0.56390

 Excited State   5:      Singlet-A      3.5482 eV  349.42 nm  f=0.0127  <S**2>=0.000
     242 -> 247       -0.25608
     242 -> 249        0.13897
     242 -> 250       -0.13834
     243 -> 247        0.47647
     243 -> 249       -0.25737
     243 -> 250        0.25590

 The electronic state is 1-A.
 Alpha  occ. eigenvalues --  -46.94726 -19.30132 -19.29385 -19.24862 -19.24799
 Alpha  occ. eigenvalues --  -19.24419 -19.23044 -14.47025 -14.46662 -14.44742
 Alpha  occ. eigenvalues --  -14.42940 -10.42963 -10.42810 -10.40031 -10.38686
 Alpha  occ. eigenvalues --  -10.36331 -10.36230 -10.35468 -10.35203 -10.34991
 Alpha  occ. eigenvalues --  -10.34985 -10.34573 -10.34047 -10.33848 -10.32963
 Alpha  occ. eigenvalues --  -10.32760 -10.32702 -10.32294 -10.32287 -10.32196
 Alpha  occ. eigenvalues --  -10.32187 -10.31628 -10.31529 -10.31410 -10.31409
 Alpha  occ. eigenvalues --  -10.31319 -10.31319 -10.31282 -10.30745 -10.30737
 Alpha  occ. eigenvalues --  -10.30701 -10.30580 -10.30432 -10.30395 -10.30149
 Alpha  occ. eigenvalues --  -10.30054 -10.30039 -10.29851 -10.29798 -10.29568
 Alpha  occ. eigenvalues --  -10.29243 -10.29209 -10.29116 -10.29037 -10.29002
 Alpha  occ. eigenvalues --  -10.28897 -10.28857 -10.28805 -10.28662 -10.28548
 Alpha  occ. eigenvalues --  -10.28420 -10.28167 -10.28054 -10.27954 -10.27876
 Alpha  occ. eigenvalues --  -10.27719  -3.20756  -1.94338  -1.93890  -1.93723
 Alpha  occ. eigenvalues --   -1.19334  -1.18319  -1.13968  -1.09894  -1.09575
 Alpha  occ. eigenvalues --   -1.09463  -1.06764  -1.05628  -1.04849  -1.03644
 Alpha  occ. eigenvalues --   -0.95285  -0.92251  -0.91684  -0.91496  -0.91379
 Alpha  occ. eigenvalues --   -0.90476  -0.90081  -0.89867  -0.89612  -0.89474
 Alpha  occ. eigenvalues --   -0.88061  -0.87283  -0.86294  -0.85621  -0.85062
 Alpha  occ. eigenvalues --   -0.84377  -0.84054  -0.83250  -0.82945  -0.82429
 Alpha  occ. eigenvalues --   -0.82068  -0.80927  -0.79619  -0.79169  -0.78253
 Alpha  occ. eigenvalues --   -0.77621  -0.77432  -0.77316  -0.76750  -0.75981
 Alpha  occ. eigenvalues --   -0.75580  -0.74472  -0.74203  -0.72369  -0.71600
 Alpha  occ. eigenvalues --   -0.70540  -0.70094  -0.69568  -0.68443  -0.67472
 Alpha  occ. eigenvalues --   -0.67351  -0.67156  -0.67003  -0.66301  -0.66039
 Alpha  occ. eigenvalues --   -0.65930  -0.65403  -0.64355  -0.63629  -0.62697
 Alpha  occ. eigenvalues --   -0.61700  -0.61658  -0.61179  -0.60502  -0.59938
 Alpha  occ. eigenvalues --   -0.59232  -0.58897  -0.58388  -0.58040  -0.57521
 Alpha  occ. eigenvalues --   -0.56989  -0.56668  -0.56597  -0.56305  -0.56122
 Alpha  occ. eigenvalues --   -0.55795  -0.55701  -0.55444  -0.55223  -0.55088
 Alpha  occ. eigenvalues --   -0.54856  -0.54537  -0.53947  -0.53806  -0.53781
 Alpha  occ. eigenvalues --   -0.53764  -0.53461  -0.53303  -0.53202  -0.52515
 Alpha  occ. eigenvalues --   -0.52340  -0.52291  -0.52106  -0.51770  -0.51591
 Alpha  occ. eigenvalues --   -0.51480  -0.51368  -0.51067  -0.50861  -0.50430
 Alpha  occ. eigenvalues --   -0.50340  -0.50294  -0.50054  -0.50019  -0.49903
 Alpha  occ. eigenvalues --   -0.49687  -0.49429  -0.48776  -0.48751  -0.48653
 Alpha  occ. eigenvalues --   -0.48521  -0.48251  -0.48062  -0.47862  -0.47490
 Alpha  occ. eigenvalues --   -0.47380  -0.47269  -0.47063  -0.46760  -0.46649
 Alpha  occ. eigenvalues --   -0.46391  -0.46332  -0.46101  -0.45989  -0.45880
 Alpha  occ. eigenvalues --   -0.45852  -0.45610  -0.45224  -0.45058  -0.44909
 Alpha  occ. eigenvalues --   -0.44812  -0.44428  -0.44343  -0.44080  -0.43936
 Alpha  occ. eigenvalues --   -0.43767  -0.43688  -0.43631  -0.43416  -0.43268
 Alpha  occ. eigenvalues --   -0.43087  -0.42679  -0.42567  -0.42514  -0.41954
 Alpha  occ. eigenvalues --   -0.41642  -0.41590  -0.41287  -0.41076  -0.40582
 Alpha  occ. eigenvalues --   -0.40143  -0.39868  -0.39509  -0.39464  -0.39350
 Alpha  occ. eigenvalues --   -0.39075  -0.38917  -0.38413  -0.38337  -0.38133
 Alpha  occ. eigenvalues --   -0.37894  -0.37342  -0.36583  -0.36528  -0.36125
 Alpha  occ. eigenvalues --   -0.35943  -0.35825  -0.35489  -0.33930  -0.33609
 Alpha  occ. eigenvalues --   -0.32822  -0.32163  -0.32153  -0.30787  -0.26363
 Alpha  occ. eigenvalues --   -0.22994
 Alpha virt. eigenvalues --   -0.07017  -0.00134   0.02201   0.04216   0.05335
 Alpha virt. eigenvalues --    0.06405   0.07451   0.07669   0.08356   0.09808
 Alpha virt. eigenvalues --    0.10267   0.10901   0.11521   0.12065   0.12444

 Mulliken charges:
               1
     1  Mg   0.955521
     2  C   -0.102192
     3  C   -0.117595
     4  C   -0.072560
     5  C   -0.107343
     6  N   -0.390968
     7  C    0.012734
     8  C   -0.099662
     9  C   -0.060461
    10  C    0.074794
    11  C   -0.004659
    12  C    0.026998
    13  C    0.035887
    14  C    0.183650
    15  O   -0.272731
    16  O   -0.354363
    17  N   -0.424302
    18  C    0.173993
    19  C   -0.168039
    20  C   -0.058686
    21  C    0.119121
    22  C    0.084629
    23  C    0.032042
    24  O   -0.219290
    25  C   -0.016437
    26  N   -0.338988
    27  C    0.093147
    28  C   -0.110904
    29  C   -0.020422
    30  C    0.039218
    31  C    0.013931
    32  C   -0.046562
    33  C   -0.059374
    34  N   -0.498216
    35  C    0.194170
    36  C   -0.199784
    37  C   -0.025008
    38  C    0.212192
    39  C    0.075198
    40  C    0.080659
    41  O   -0.247755
    42  C   -0.002197
    43  C    0.257491
    44  O   -0.204304
    45  O   -0.396615
    46  C    0.133243
    47  C    0.250767
    48  C   -0.129028
    49  C   -0.172413
    50  C   -0.048210
    51  C    0.009885
    52  C    0.014726
    53  C   -0.009312
    54  C   -0.196240
    55  C    0.026787
    56  C    0.000834
    57  C   -0.026570
    58  C    0.039955
    59  C   -0.140388
    60  C   -0.011501
    61  C   -0.006569
    62  C   -0.068728
    63  C    0.026428
    64  C   -0.252436
    65  C    0.003181
    66  C    0.027317
    67  H   -0.004643
    68  H    0.027078
    69  H   -0.000454
    70  H    0.049691
    71  H    0.044091
    72  H    0.035218
    73  H    0.034857
    74  H    0.050164
    75  H    0.035884
    76  H    0.034858
    77  H    0.062178
    78  H    0.053531
    79  H    0.043190
    80  H    0.068009
    81  H    0.040220
    82  H    0.064568
    83  H    0.046841
    84  H    0.064291
    85  H    0.044664
    86  H    0.036321
    87  H    0.037162
    88  H    0.041111
    89  H    0.041431
    90  H    0.031190
    91  H    0.022411
    92  H    0.049070
    93  H    0.039180
    94  H    0.033055
    95  H    0.042130
    96  H    0.056080
    97  H    0.060947
    98  H    0.072467
    99  H    0.059173
   100  H    0.057759
   101  H    0.050322
   102  H    0.059788
   103  H    0.061767
   104  H    0.034214
   105  H    0.058882
   106  H    0.046197
   107  H    0.059186
   108  H    0.014898
   109  H    0.028914
   110  H    0.026679
   111  H    0.023631
   112  H    0.015463
   113  H    0.005845
   114  H    0.019286
   115  H    0.016143
   116  H    0.036090
   117  H    0.018570
   118  H    0.008498
   119  H    0.019496
   120  H    0.020222
   121  H    0.012027
   122  H    0.022708
   123  H    0.015303
   124  H    0.012384
   125  H    0.022335
   126  H    0.027295
   127  H    0.020273
   128  H    0.008149
   129  H    0.019836
   130  H    0.013852
   131  H    0.012381
   132  H    0.019334
   133  H    0.007399
   134  H    0.014620
   135  H    0.027592
   136  H    0.034863
   137  H    0.029968
   138  H    0.019417
   139  H    0.023809
   140  H    0.020961
 Sum of Mulliken charges =  -0.00000

 Dipole moment (field-independent basis, Debye):
    X=             -1.6377    Y=              6.1441    Z=             -1.2564  Tot=              6.4815
 Quadrupole moment (field-independent basis, Debye-Ang):
   XX=           -368.9604   YY=           -414.0639   ZZ=           -405.8255
   XY=              3.9779   XZ=             21.4115   YZ=              5.4245

 Normal termination of Gaussian 16 at Tue Apr 26 22:28:49 2022.
