 Gaussian 16, Revision A.03,
 Gaussian 16:  ES64L-G16RevA.03 25-Dec-2016

 --------------------
 #p ZINDO=(nstates=5)
 --------------------

 ------------------------------
 step_1001_chromophore_25 ZINDO
 ------------------------------
 Symbolic Z-matrix:
 Charge =  0 Multiplicity = 1

                         Standard orientation:
 ---------------------------------------------------------------------
 Center     Atomic      Atomic             Coordinates (Angstroms)
 Number     Number       Type             X           Y           Z
 ---------------------------------------------------------------------
      1         12           0        5.657469    0.247638    0.313498
      2          6           0        3.227457   -2.296356    0.290727
      3          6           0        3.134978    2.592111   -0.168277
      4          6           0        7.898300    2.613224   -0.408498
      5          6           0        8.156083   -2.125261    0.459566
      6          7           0        3.505599    0.109615    0.131641
      7          6           0        2.725709   -1.014758    0.244877
      8          6           0        1.127987   -0.718962    0.117540
      9          6           0        1.243101    0.833034   -0.054001
     10          6           0        2.711422    1.237607   -0.051749
     11          6           0        0.311282    1.507717   -1.149249
     12          6           0        0.152649   -1.315406    1.198259
     13          6           0       -1.039018   -2.139854    0.765327
     14          6           0       -2.385050   -1.823649    1.395456
     15          8           0       -2.832235   -1.974026    2.532748
     16          8           0       -3.105768   -1.285558    0.399852
     17          7           0        5.550701    2.359989   -0.047013
     18          6           0        4.433648    3.133843   -0.214264
     19          6           0        4.802001    4.549958   -0.435777
     20          6           0        6.236464    4.560007   -0.512417
     21          6           0        6.641165    3.120046   -0.322054
     22          6           0        3.792608    5.594179   -0.601455
     23          6           0        7.164431    5.725956   -0.790160
     24          8           0        8.365185    5.596810   -0.873889
     25          6           0        6.618601    7.129167   -1.042173
     26          7           0        7.714221    0.144285   -0.200007
     27          6           0        8.410298    1.303966   -0.353275
     28          6           0        9.947462    1.121547   -0.247302
     29          6           0        9.982911   -0.383149    0.187445
     30          6           0        8.505011   -0.828789    0.233873
     31          6           0       10.846698    1.470556   -1.491467
     32          6           0       10.780868   -0.569151    1.515824
     33          6           0        9.989683   -0.475905    2.879821
     34          7           0        5.793597   -1.789174    0.341496
     35          6           0        6.916264   -2.647287    0.381660
     36          6           0        6.382712   -3.964217    0.461366
     37          6           0        4.944594   -3.860036    0.391418
     38          6           0        4.642769   -2.503977    0.300352
     39          6           0        7.249715   -5.194718    0.499023
     40          6           0        3.698141   -4.595560    0.359992
     41          8           0        3.465192   -5.828222    0.361433
     42          6           0        2.511195   -3.582068    0.303256
     43          6           0        1.859980   -3.787704   -0.996199
     44          8           0        2.290214   -3.410531   -2.038758
     45          8           0        0.553199   -4.296602   -0.879120
     46          6           0       -0.093584   -4.770121   -2.129291
     47          6           0       -4.471378   -0.864963    0.667025
     48          6           0       -5.001515   -0.408735   -0.682575
     49          6           0       -6.245055    0.166565   -0.865023
     50          6           0       -7.370565    0.348190    0.237326
     51          6           0       -6.841389    0.507746   -2.244673
     52          6           0       -7.824411   -0.503768   -2.913715
     53          6           0       -9.112612    0.144993   -3.360892
     54          6           0      -10.407920   -0.481244   -2.797650
     55          6           0      -10.876843   -1.559980   -3.770684
     56          6           0      -11.413487    0.732944   -2.697657
     57          6           0      -11.229227    1.543192   -1.365105
     58          6           0      -12.446876    1.405776   -0.420786
     59          6           0      -12.283857    0.207540    0.585403
     60          6           0      -13.197640   -0.924319    0.313097
     61          6           0      -12.580406    0.723530    2.096714
     62          6           0      -11.335986    0.749036    3.028061
     63          6           0      -10.668303    2.122098    3.089689
     64          6           0       -9.174689    1.972121    2.978306
     65          6           0       -8.656304    1.292786    4.272461
     66          6           0       -8.451801    3.259274    2.628194
     67          1           0        2.275868    3.196053   -0.469201
     68          1           0        8.592862    3.453269   -0.348766
     69          1           0        8.990573   -2.815735    0.600227
     70          1           0        0.821363   -1.182142   -0.819585
     71          1           0        0.998709    1.264965    0.916620
     72          1           0       -0.520579    0.892091   -1.489814
     73          1           0        0.833145    1.500450   -2.105371
     74          1           0       -0.069561    2.515957   -0.981334
     75          1           0       -0.227949   -0.474299    1.776789
     76          1           0        0.810306   -1.905792    1.835155
     77          1           0       -0.834059   -3.131018    1.170271
     78          1           0       -1.097080   -2.066327   -0.320809
     79          1           0        2.895825    5.368799   -0.024497
     80          1           0        3.468400    5.609592   -1.641740
     81          1           0        4.177620    6.528452   -0.190228
     82          1           0        6.319731    7.087121   -2.090038
     83          1           0        7.453497    7.830005   -1.037919
     84          1           0        5.912708    7.537633   -0.318685
     85          1           0       10.334354    1.790744    0.521529
     86          1           0       10.462586   -0.981309   -0.587794
     87          1           0       10.152420    1.763760   -2.279831
     88          1           0       11.475761    0.687143   -1.913066
     89          1           0       11.461444    2.346366   -1.289042
     90          1           0       11.666135    0.066209    1.556304
     91          1           0       11.230285   -1.562191    1.536060
     92          1           0        8.907569   -0.539667    2.765318
     93          1           0       10.279887    0.415112    3.436724
     94          1           0       10.257579   -1.326251    3.506459
     95          1           0        8.007305   -5.095932    1.276552
     96          1           0        7.708298   -5.267029   -0.487448
     97          1           0        6.554287   -6.012368    0.688665
     98          1           0        1.838356   -3.727323    1.148081
     99          1           0        0.669588   -4.862767   -2.902028
    100          1           0       -0.965183   -4.205507   -2.460386
    101          1           0       -0.396338   -5.810824   -2.013786
    102          1           0       -4.393568   -0.088752    1.427354
    103          1           0       -5.105962   -1.668741    1.038150
    104          1           0       -4.331479   -0.431945   -1.541273
    105          1           0       -8.065167    1.154503    0.001085
    106          1           0       -6.837734    0.603582    1.153199
    107          1           0       -8.008784   -0.512285    0.441908
    108          1           0       -6.100446    0.649334   -3.031409
    109          1           0       -7.256630    1.507454   -2.113609
    110          1           0       -8.043222   -1.356863   -2.271280
    111          1           0       -7.346092   -0.929082   -3.796199
    112          1           0       -9.174537    0.230730   -4.446034
    113          1           0       -8.987421    1.202890   -3.128506
    114          1           0      -10.414232   -0.953401   -1.815242
    115          1           0      -11.723617   -1.286554   -4.400809
    116          1           0      -11.184410   -2.477011   -3.269045
    117          1           0      -10.121966   -1.643839   -4.552801
    118          1           0      -12.434081    0.349223   -2.697217
    119          1           0      -11.290313    1.407385   -3.546030
    120          1           0      -11.101101    2.595310   -1.617094
    121          1           0      -10.324551    1.188067   -0.870408
    122          1           0      -13.345138    1.332838   -1.033481
    123          1           0      -12.561487    2.238055    0.273425
    124          1           0      -11.310691   -0.281775    0.542609
    125          1           0      -14.182966   -0.474336    0.435560
    126          1           0      -13.123518   -1.792316    0.966954
    127          1           0      -13.125993   -1.373506   -0.677109
    128          1           0      -13.154187    0.041367    2.724925
    129          1           0      -13.179410    1.626100    2.213038
    130          1           0      -10.708540   -0.111230    2.795502
    131          1           0      -11.589869    0.524620    4.063524
    132          1           0      -10.841617    2.626574    4.039934
    133          1           0      -11.058141    2.716563    2.262505
    134          1           0       -9.064995    1.239833    2.178696
    135          1           0       -8.179393    0.382102    3.911500
    136          1           0       -9.444847    0.997300    4.964040
    137          1           0       -7.932705    1.961159    4.739427
    138          1           0       -7.750154    3.047509    1.822152
    139          1           0       -7.924629    3.681645    3.484067
    140          1           0       -9.076479    4.057948    2.227532
 ---------------------------------------------------------------------

 SCF Done:  E(RZINDO/S) =  -474.345193608     A.U. after   19 cycles

 Excitation energies and oscillator strengths:

 Excited State   1:      Singlet-A      1.3081 eV  947.85 nm  f=0.5632  <S**2>=0.000
     175 ->178         0.16830
     176 ->177         0.66767
 This state for optimization and/or second-order correction.
 Total Energy, E(CIS/TDA) =  -474.297123612
 Copying the excited state density for this state as the 1-particle RhoCI density.

 Excited State   2:      Singlet-A      1.9526 eV  634.97 nm  f=0.0269  <S**2>=0.000
     175 ->177         0.52491
     176 ->178        -0.43787

 Excited State   3:      Singlet-A      2.9119 eV  425.79 nm  f=0.4479  <S**2>=0.000
     168 ->177        -0.21272
     168 ->178         0.10799
     168 ->179         0.23999
     168 ->180        -0.14546
     168 ->186         0.16324
     175 ->177         0.26241
     176 ->178         0.35884
     176 ->179         0.22450

 Excited State   4:      Singlet-A      2.9663 eV  417.97 nm  f=0.4011  <S**2>=0.000
     168 ->177         0.22527
     168 ->178        -0.12520
     168 ->179        -0.28354
     168 ->180         0.18064
     168 ->186        -0.17336
     175 ->177         0.24301
     176 ->178         0.32322
     176 ->179         0.19556

 Excited State   5:      Singlet-A      3.0234 eV  410.09 nm  f=0.1300  <S**2>=0.000
     170 ->180         0.10515
     171 ->177        -0.20570
     171 ->179        -0.21043
     171 ->180        -0.25546
     171 ->186        -0.11579
     171 ->188        -0.11522
     175 ->177        -0.13923
     176 ->178        -0.14217
     176 ->179         0.39437
     176 ->180         0.17229

 The electronic state is 1-A.
 Alpha  occ. eigenvalues --   -1.84395  -1.81376  -1.79291  -1.74994  -1.71914
 Alpha  occ. eigenvalues --   -1.69217  -1.66551  -1.62537  -1.61013  -1.58084
 Alpha  occ. eigenvalues --   -1.55530  -1.50106  -1.47745  -1.47197  -1.45425
 Alpha  occ. eigenvalues --   -1.44363  -1.43785  -1.41253  -1.39351  -1.38660
 Alpha  occ. eigenvalues --   -1.35774  -1.33124  -1.32416  -1.31602  -1.29536
 Alpha  occ. eigenvalues --   -1.28729  -1.26108  -1.22569  -1.21396  -1.17988
 Alpha  occ. eigenvalues --   -1.17090  -1.16634  -1.14954  -1.14084  -1.13185
 Alpha  occ. eigenvalues --   -1.12652  -1.11566  -1.10414  -1.05444  -1.04410
 Alpha  occ. eigenvalues --   -1.02910  -1.00688  -0.99113  -0.97885  -0.97764
 Alpha  occ. eigenvalues --   -0.95905  -0.94343  -0.94126  -0.93681  -0.92601
 Alpha  occ. eigenvalues --   -0.90827  -0.90388  -0.89996  -0.87955  -0.86895
 Alpha  occ. eigenvalues --   -0.85298  -0.85103  -0.83917  -0.80813  -0.80287
 Alpha  occ. eigenvalues --   -0.80105  -0.78906  -0.77744  -0.76681  -0.76241
 Alpha  occ. eigenvalues --   -0.75861  -0.75113  -0.74935  -0.74623  -0.73959
 Alpha  occ. eigenvalues --   -0.72556  -0.72044  -0.71857  -0.71572  -0.71021
 Alpha  occ. eigenvalues --   -0.69512  -0.69159  -0.68797  -0.68434  -0.67938
 Alpha  occ. eigenvalues --   -0.67513  -0.66831  -0.66626  -0.66463  -0.65392
 Alpha  occ. eigenvalues --   -0.65174  -0.64798  -0.64227  -0.64043  -0.63815
 Alpha  occ. eigenvalues --   -0.63620  -0.63055  -0.62975  -0.62589  -0.62349
 Alpha  occ. eigenvalues --   -0.62110  -0.61839  -0.61486  -0.60925  -0.60189
 Alpha  occ. eigenvalues --   -0.59845  -0.59768  -0.58918  -0.58483  -0.58266
 Alpha  occ. eigenvalues --   -0.57816  -0.57200  -0.56962  -0.56534  -0.56102
 Alpha  occ. eigenvalues --   -0.55886  -0.55464  -0.55347  -0.54982  -0.54198
 Alpha  occ. eigenvalues --   -0.54130  -0.53826  -0.53398  -0.53262  -0.52849
 Alpha  occ. eigenvalues --   -0.52453  -0.52392  -0.51959  -0.51764  -0.51141
 Alpha  occ. eigenvalues --   -0.51047  -0.50793  -0.50438  -0.50406  -0.50043
 Alpha  occ. eigenvalues --   -0.49832  -0.49557  -0.49378  -0.49158  -0.48817
 Alpha  occ. eigenvalues --   -0.48759  -0.48476  -0.48397  -0.48143  -0.47775
 Alpha  occ. eigenvalues --   -0.47744  -0.47518  -0.47181  -0.46980  -0.46752
 Alpha  occ. eigenvalues --   -0.46552  -0.46492  -0.45857  -0.45405  -0.45108
 Alpha  occ. eigenvalues --   -0.44914  -0.44754  -0.44237  -0.43963  -0.43431
 Alpha  occ. eigenvalues --   -0.43207  -0.42863  -0.42396  -0.42137  -0.42022
 Alpha  occ. eigenvalues --   -0.41636  -0.41193  -0.41185  -0.39335  -0.38882
 Alpha  occ. eigenvalues --   -0.38098  -0.36483  -0.36249  -0.35045  -0.34240
 Alpha  occ. eigenvalues --   -0.33979  -0.32593  -0.32559  -0.31203  -0.26921
 Alpha  occ. eigenvalues --   -0.21861
 Alpha virt. eigenvalues --   -0.08291  -0.02298  -0.00894   0.01079   0.01982
 Alpha virt. eigenvalues --    0.02043   0.02986   0.03477   0.03754   0.04575
 Alpha virt. eigenvalues --    0.05826   0.06410   0.07151   0.07331   0.08314

 Mulliken charges:
               1
     1  Mg   0.427234
     2  C   -0.019302
     3  C   -0.106304
     4  C   -0.064778
     5  C   -0.031852
     6  N   -0.290934
     7  C    0.088770
     8  C   -0.013071
     9  C    0.013467
    10  C    0.174583
    11  C   -0.058633
    12  C   -0.017585
    13  C    0.010112
    14  C    0.470478
    15  O   -0.527842
    16  O   -0.271912
    17  N   -0.330851
    18  C    0.146365
    19  C    0.029167
    20  C   -0.045900
    21  C    0.150757
    22  C   -0.034919
    23  C    0.333899
    24  O   -0.508531
    25  C   -0.034449
    26  N   -0.247281
    27  C    0.160847
    28  C   -0.002440
    29  C    0.000903
    30  C    0.101619
    31  C   -0.052779
    32  C   -0.033401
    33  C   -0.058222
    34  N   -0.339718
    35  C    0.063752
    36  C    0.016120
    37  C   -0.069756
    38  C    0.113563
    39  C   -0.044014
    40  C    0.328812
    41  O   -0.554945
    42  C    0.068508
    43  C    0.501260
    44  O   -0.512442
    45  O   -0.294741
    46  C    0.069594
    47  C    0.109893
    48  C   -0.082498
    49  C   -0.025166
    50  C   -0.050719
    51  C   -0.024406
    52  C   -0.025617
    53  C   -0.027388
    54  C   -0.010202
    55  C   -0.063991
    56  C   -0.041782
    57  C   -0.039063
    58  C   -0.034028
    59  C   -0.003617
    60  C   -0.052096
    61  C   -0.050961
    62  C   -0.040270
    63  C   -0.027839
    64  C   -0.013206
    65  C   -0.060118
    66  C   -0.056111
    67  H    0.021900
    68  H    0.044286
    69  H    0.021451
    70  H    0.034716
    71  H    0.029294
    72  H    0.020878
    73  H    0.017201
    74  H    0.028689
    75  H    0.024108
    76  H    0.026918
    77  H    0.047139
    78  H    0.047697
    79  H    0.024359
    80  H    0.043958
    81  H    0.031825
    82  H    0.044473
    83  H    0.031223
    84  H    0.039935
    85  H    0.033287
    86  H    0.029295
    87  H    0.018228
    88  H    0.028783
    89  H    0.023344
    90  H    0.018894
    91  H    0.010123
    92  H    0.028995
    93  H    0.019501
    94  H    0.016028
    95  H    0.027827
    96  H    0.034385
    97  H    0.033941
    98  H    0.060046
    99  H    0.049410
   100  H    0.042982
   101  H    0.033013
   102  H    0.053080
   103  H    0.056235
   104  H    0.044393
   105  H    0.025833
   106  H    0.019608
   107  H    0.033944
   108  H    0.010765
   109  H    0.022739
   110  H    0.021012
   111  H    0.016398
   112  H    0.018900
   113  H    0.010732
   114  H    0.032624
   115  H    0.012249
   116  H    0.022379
   117  H    0.020257
   118  H    0.014560
   119  H    0.021290
   120  H    0.013843
   121  H    0.022202
   122  H    0.026341
   123  H    0.019622
   124  H    0.025092
   125  H    0.012396
   126  H    0.014607
   127  H    0.010414
   128  H    0.008787
   129  H    0.027056
   130  H    0.022346
   131  H    0.008448
   132  H    0.020092
   133  H    0.012145
   134  H    0.016585
   135  H    0.015502
   136  H    0.025402
   137  H    0.022646
   138  H    0.012477
   139  H    0.020256
   140  H    0.014585
 Sum of Mulliken charges =  -0.00000

 Dipole moment (field-independent basis, Debye):
    X=             -2.7911    Y=              9.9996    Z=             -0.9353  Tot=             10.4239
 N-N= 4.365536006448D+03 E-N= 0.000000000000D+00  KE=-9.405342922743D+03
 Leave Link  601 at Tue Apr 26 22:43:24 2022, MaxMem=  6710886400 cpu:               0.8 elap:               0.0
 (Enter /sw/apps/gaussian-16.0/g16/l9999.exe)
 1\1\GINC-BP1-COMPUTE134\SP\RZINDO CIS\STO-3G\C55H74Mg1N4O6\OF15641\26-
 Apr-2022\0\\#p ZINDO=(nstates=5)\\step_1001_chromophore_25 ZINDO\\0,1\
 Mg,0,-3.284,34.325,26.832\C,0,-3.906,32.367,29.688\C,0,-1.808,36.73,28
 .864\C,0,-3.31,36.546,24.341\C,0,-5.043,32.078,24.895\N,0,-2.908,34.45
 6,28.959\C,0,-3.163,33.504,29.915\C,0,-2.678,33.932,31.411\C,0,-2.073,
 35.321,31.016\C,0,-2.274,35.558,29.525\C,0,-2.376,36.541,31.987\C,0,-1
 .821,32.918,32.255\C,0,-2.26,32.54,33.652\C,0,-1.213,32.561,34.753\O,0

 Normal termination of Gaussian 16 at Tue Apr 26 22:43:24 2022.
