 Gaussian 16, Revision A.03,
 Gaussian 16:  ES64L-G16RevA.03 25-Dec-2016

 ------------------------------
 #p blyp/Def2SVP td=(nstates=5)
 ------------------------------

 -------------------------------------------------
 step_151_chromophore_2 TDDFT with blyp functional
 -------------------------------------------------
 Symbolic Z-matrix:
 Charge =  0 Multiplicity = 1

                         Standard orientation:
 ---------------------------------------------------------------------
 Center     Atomic      Atomic             Coordinates (Angstroms)
 Number     Number       Type             X           Y           Z
 ---------------------------------------------------------------------
      1         12           0        4.300264    1.531442   -0.447152
      2          6           0        5.213883   -1.962607   -0.576675
      3          6           0        2.183099    0.852515   -3.123803
      4          6           0        2.923809    4.493127   -0.089731
      5          6           0        5.973420    1.662050    2.617000
      6          7           0        3.598701   -0.402787   -1.518280
      7          6           0        4.135111   -1.655537   -1.404142
      8          6           0        3.616647   -2.586668   -2.486517
      9          6           0        2.858004   -1.632365   -3.441479
     10          6           0        2.788914   -0.336406   -2.645951
     11          6           0        3.535417   -1.445804   -4.877809
     12          6           0        2.773208   -3.809987   -1.899531
     13          6           0        2.014391   -3.697607   -0.492755
     14          6           0        0.651884   -4.412085   -0.285563
     15          8           0        0.153299   -5.193074   -1.061200
     16          8           0        0.085052   -4.112307    0.934934
     17          7           0        2.925883    2.692918   -1.632600
     18          6           0        2.199009    2.206571   -2.708897
     19          6           0        1.485087    3.295875   -3.216097
     20          6           0        1.625952    4.424498   -2.325712
     21          6           0        2.556812    3.947166   -1.310997
     22          6           0        0.612855    3.389624   -4.419943
     23          6           0        0.963726    5.786070   -2.386725
     24          8           0        0.118475    6.110579   -3.235747
     25          6           0        1.292274    6.910039   -1.346766
     26          7           0        4.178628    2.758642    1.152520
     27          6           0        3.728039    4.017646    1.006797
     28          6           0        4.015191    4.965663    2.192769
     29          6           0        4.952164    3.949591    3.038097
     30          6           0        5.050142    2.689712    2.218407
     31          6           0        4.767416    6.265798    1.690235
     32          6           0        4.534514    3.796618    4.543457
     33          6           0        5.052554    4.774454    5.638615
     34          7           0        5.436242    0.222420    0.768662
     35          6           0        6.147313    0.487768    1.909278
     36          6           0        7.003183   -0.716752    2.193634
     37          6           0        6.608500   -1.693719    1.241302
     38          6           0        5.716271   -1.071760    0.394042
     39          6           0        8.099553   -0.802027    3.297677
     40          6           0        6.859528   -3.080796    0.753055
     41          8           0        7.635439   -3.948223    1.165388
     42          6           0        5.957223   -3.252054   -0.492757
     43          6           0        6.791226   -3.595810   -1.642589
     44          8           0        7.241733   -4.725397   -1.860135
     45          8           0        6.834355   -2.644676   -2.663969
     46          6           0        7.568948   -2.988696   -3.851103
     47          6           0       -1.141402   -4.739870    1.472824
     48          6           0       -1.920760   -3.656028    2.076838
     49          6           0       -2.622850   -3.757883    3.249081
     50          6           0       -2.827651   -4.956965    4.123940
     51          6           0       -3.385897   -2.541976    3.738699
     52          6           0       -4.261622   -1.713686    2.687189
     53          6           0       -5.795780   -1.884614    2.816412
     54          6           0       -6.483511   -0.612039    2.160911
     55          6           0       -6.745701    0.511630    3.243081
     56          6           0       -7.764898   -1.103679    1.406541
     57          6           0       -8.802542   -0.008619    0.899174
     58          6           0       -8.892042    0.012271   -0.628869
     59          6           0      -10.319178   -0.539547   -1.150206
     60          6           0      -10.123205   -1.369460   -2.341907
     61          6           0      -11.333159    0.505056   -1.378157
     62          6           0      -12.823489   -0.027880   -1.441587
     63          6           0      -13.696699    0.517080   -0.289329
     64          6           0      -15.083176    1.169307   -0.781055
     65          6           0      -15.388861    2.441595    0.072384
     66          6           0      -16.334669    0.298942   -0.664308
     67          1           0        1.701725    0.848559   -4.103902
     68          1           0        2.468146    5.464641    0.113242
     69          1           0        6.648492    1.705823    3.475093
     70          1           0        4.487651   -3.037780   -2.962566
     71          1           0        1.850200   -1.961960   -3.693492
     72          1           0        2.985305   -2.082953   -5.571618
     73          1           0        4.589983   -1.720777   -4.857629
     74          1           0        3.494606   -0.380211   -5.104174
     75          1           0        3.346496   -4.730754   -1.798679
     76          1           0        1.896719   -4.094437   -2.481895
     77          1           0        2.012910   -2.638516   -0.233985
     78          1           0        2.659821   -4.192504    0.232770
     79          1           0       -0.414110    3.597889   -4.119507
     80          1           0        0.709296    2.417326   -4.902099
     81          1           0        0.841698    4.165981   -5.150481
     82          1           0        0.917586    7.890619   -1.638371
     83          1           0        2.361102    7.091270   -1.235390
     84          1           0        0.887468    6.712733   -0.353811
     85          1           0        3.135585    5.053254    2.830895
     86          1           0        5.912741    4.455668    3.131634
     87          1           0        3.927884    6.961198    1.659482
     88          1           0        5.033283    6.265072    0.634099
     89          1           0        5.513472    6.654378    2.383393
     90          1           0        4.810185    2.860504    5.029248
     91          1           0        3.450318    3.861902    4.632651
     92          1           0        6.019968    5.163639    5.320926
     93          1           0        5.217045    4.152936    6.519189
     94          1           0        4.387336    5.625007    5.788370
     95          1           0        8.365920   -1.857134    3.349971
     96          1           0        7.690131   -0.494354    4.260249
     97          1           0        9.037022   -0.300046    3.059476
     98          1           0        5.378383   -4.175749   -0.493901
     99          1           0        6.866826   -3.481333   -4.523944
    100          1           0        8.477304   -3.556532   -3.648069
    101          1           0        7.889946   -2.154768   -4.475387
    102          1           0       -0.727087   -5.447113    2.190662
    103          1           0       -1.750739   -5.329608    0.787113
    104          1           0       -1.966742   -2.660028    1.637232
    105          1           0       -2.571543   -4.787340    5.169503
    106          1           0       -2.134806   -5.726609    3.782194
    107          1           0       -3.824772   -5.365776    3.963254
    108          1           0       -2.617484   -1.852334    4.086013
    109          1           0       -4.069933   -2.978585    4.467423
    110          1           0       -3.990379   -2.207324    1.754037
    111          1           0       -3.947395   -0.669873    2.678135
    112          1           0       -6.129772   -1.922210    3.853069
    113          1           0       -6.108781   -2.860394    2.443783
    114          1           0       -5.773911   -0.319768    1.386285
    115          1           0       -6.366924    1.464108    2.872851
    116          1           0       -6.243254    0.256937    4.175872
    117          1           0       -7.829681    0.591533    3.334331
    118          1           0       -8.287233   -1.820261    2.040985
    119          1           0       -7.419000   -1.644354    0.525687
    120          1           0       -8.579907    0.952480    1.360862
    121          1           0       -9.803777   -0.133672    1.313571
    122          1           0       -8.025380   -0.569115   -0.943240
    123          1           0       -8.795843    1.072232   -0.865549
    124          1           0      -10.691090   -1.282562   -0.445247
    125          1           0      -10.884124   -1.332226   -3.122077
    126          1           0      -10.008202   -2.382221   -1.955726
    127          1           0       -9.220151   -0.967136   -2.802680
    128          1           0      -11.025260    1.008366   -2.295088
    129          1           0      -11.177335    1.282733   -0.631045
    130          1           0      -12.992186   -1.102797   -1.505797
    131          1           0      -13.190378    0.402090   -2.374219
    132          1           0      -13.135881    1.228589    0.316742
    133          1           0      -13.821724   -0.306962    0.413839
    134          1           0      -15.154355    1.345203   -1.854418
    135          1           0      -14.564987    3.155190    0.077266
    136          1           0      -15.726337    2.179495    1.075411
    137          1           0      -16.226397    2.952711   -0.403505
    138          1           0      -16.030324   -0.649313   -0.222624
    139          1           0      -16.899431    0.171588   -1.587997
    140          1           0      -17.021181    0.688435    0.087986
 ---------------------------------------------------------------------

 SCF Done:  E(RB-LYP) =  -3007.34205871     A.U. after   21 cycles

 Excitation energies and oscillator strengths:

 Excited State   1:      Singlet-A      1.7171 eV  722.06 nm  f=0.0011  <S**2>=0.000
     244 -> 247        0.68702
     245 -> 247       -0.16233
 This state for optimization and/or second-order correction.
 Total Energy, E(TD-HF/TD-DFT) =  -3007.27895723
 Copying the excited state density for this state as the 1-particle RhoCI density.

 Excited State   2:      Singlet-A      1.7820 eV  695.74 nm  f=0.2826  <S**2>=0.000
     245 -> 248       -0.19578
     246 -> 247        0.68416
     246 <- 247       -0.14457

 Excited State   3:      Singlet-A      1.9153 eV  647.34 nm  f=0.0489  <S**2>=0.000
     241 -> 247        0.14963
     242 -> 247        0.12127
     244 -> 247        0.15685
     245 -> 247        0.61684
     246 -> 248        0.19983

 Excited State   4:      Singlet-A      2.0306 eV  610.57 nm  f=0.0004  <S**2>=0.000
     243 -> 247        0.70634

 Excited State   5:      Singlet-A      2.1590 eV  574.25 nm  f=0.0059  <S**2>=0.000
     242 -> 247        0.67937
     245 -> 247       -0.11028
     246 -> 248       -0.10064

 The electronic state is 1-A.
 Alpha  occ. eigenvalues --  -46.28200 -18.82631 -18.81074 -18.76955 -18.76697
 Alpha  occ. eigenvalues --  -18.76551 -18.75373 -14.04387 -14.03927 -14.01453
 Alpha  occ. eigenvalues --  -14.00863 -10.04598 -10.04182 -10.01215 -10.00213
 Alpha  occ. eigenvalues --   -9.98065  -9.98044  -9.97924  -9.97696  -9.97358
 Alpha  occ. eigenvalues --   -9.96786  -9.96070  -9.95770  -9.95752  -9.95233
 Alpha  occ. eigenvalues --   -9.95210  -9.95147  -9.94984  -9.94514  -9.94483
 Alpha  occ. eigenvalues --   -9.94170  -9.94030  -9.93845  -9.93738  -9.93662
 Alpha  occ. eigenvalues --   -9.93580  -9.93570  -9.93302  -9.93121  -9.93071
 Alpha  occ. eigenvalues --   -9.93051  -9.92956  -9.92667  -9.92598  -9.92532
 Alpha  occ. eigenvalues --   -9.92442  -9.92249  -9.92210  -9.92151  -9.91998
 Alpha  occ. eigenvalues --   -9.91668  -9.91655  -9.91593  -9.91492  -9.91325
 Alpha  occ. eigenvalues --   -9.91311  -9.91275  -9.91156  -9.91074  -9.90909
 Alpha  occ. eigenvalues --   -9.90763  -9.90697  -9.90632  -9.90620  -9.90312
 Alpha  occ. eigenvalues --   -9.89590  -2.92778  -1.73156  -1.72705  -1.72479
 Alpha  occ. eigenvalues --   -0.98044  -0.96972  -0.91773  -0.90317  -0.89628
 Alpha  occ. eigenvalues --   -0.89420  -0.87275  -0.86314  -0.85915  -0.85236
 Alpha  occ. eigenvalues --   -0.77257  -0.73483  -0.73138  -0.72537  -0.72105
 Alpha  occ. eigenvalues --   -0.71811  -0.71333  -0.71211  -0.70654  -0.69967
 Alpha  occ. eigenvalues --   -0.69221  -0.69077  -0.68561  -0.67935  -0.67318
 Alpha  occ. eigenvalues --   -0.66605  -0.66026  -0.65370  -0.65118  -0.64405
 Alpha  occ. eigenvalues --   -0.64063  -0.63088  -0.62488  -0.62160  -0.61378
 Alpha  occ. eigenvalues --   -0.60442  -0.60250  -0.59419  -0.59336  -0.58934
 Alpha  occ. eigenvalues --   -0.58203  -0.58047  -0.57557  -0.55574  -0.54855
 Alpha  occ. eigenvalues --   -0.54623  -0.53665  -0.53026  -0.52342  -0.51808
 Alpha  occ. eigenvalues --   -0.51582  -0.51337  -0.51222  -0.50876  -0.50201
 Alpha  occ. eigenvalues --   -0.49441  -0.49092  -0.48647  -0.48379  -0.46939
 Alpha  occ. eigenvalues --   -0.46679  -0.45804  -0.45730  -0.45360  -0.45158
 Alpha  occ. eigenvalues --   -0.44341  -0.43866  -0.43498  -0.43200  -0.42510
 Alpha  occ. eigenvalues --   -0.42239  -0.42176  -0.41883  -0.41445  -0.41400
 Alpha  occ. eigenvalues --   -0.41037  -0.40783  -0.40350  -0.40300  -0.40209
 Alpha  occ. eigenvalues --   -0.40082  -0.39616  -0.39435  -0.39314  -0.38896
 Alpha  occ. eigenvalues --   -0.38835  -0.38674  -0.38581  -0.38513  -0.38390
 Alpha  occ. eigenvalues --   -0.38249  -0.38001  -0.37873  -0.37615  -0.37461
 Alpha  occ. eigenvalues --   -0.37252  -0.36971  -0.36891  -0.36675  -0.36501
 Alpha  occ. eigenvalues --   -0.36371  -0.36202  -0.36022  -0.35573  -0.35567
 Alpha  occ. eigenvalues --   -0.35424  -0.35259  -0.35239  -0.35169  -0.34935
 Alpha  occ. eigenvalues --   -0.34896  -0.34709  -0.34370  -0.34239  -0.33971
 Alpha  occ. eigenvalues --   -0.33927  -0.33721  -0.33494  -0.33399  -0.33288
 Alpha  occ. eigenvalues --   -0.33243  -0.33175  -0.32947  -0.32629  -0.32487
 Alpha  occ. eigenvalues --   -0.32309  -0.32078  -0.31927  -0.31654  -0.31409
 Alpha  occ. eigenvalues --   -0.31228  -0.31192  -0.30636  -0.30528  -0.30411
 Alpha  occ. eigenvalues --   -0.30137  -0.29987  -0.29923  -0.29823  -0.29584
 Alpha  occ. eigenvalues --   -0.29308  -0.29094  -0.29005  -0.28941  -0.28787
 Alpha  occ. eigenvalues --   -0.28481  -0.28366  -0.28275  -0.28014  -0.27677
 Alpha  occ. eigenvalues --   -0.27661  -0.27463  -0.27018  -0.26673  -0.26424
 Alpha  occ. eigenvalues --   -0.26402  -0.26314  -0.26282  -0.25488  -0.25081
 Alpha  occ. eigenvalues --   -0.25025  -0.24912  -0.24790  -0.24419  -0.24101
 Alpha  occ. eigenvalues --   -0.23810  -0.22681  -0.21923  -0.21731  -0.21053
 Alpha  occ. eigenvalues --   -0.20079  -0.19826  -0.19587  -0.18383  -0.17709
 Alpha  occ. eigenvalues --   -0.16390
 Alpha virt. eigenvalues --   -0.12126  -0.07959  -0.06935  -0.05508  -0.03971
 Alpha virt. eigenvalues --   -0.03688  -0.02690  -0.02254  -0.01539  -0.00805
 Alpha virt. eigenvalues --    0.00206   0.01656   0.01952   0.02803   0.03155

 Mulliken charges:
               1
     1  Mg   0.694848
     2  C    0.022845
     3  C   -0.045150
     4  C   -0.014266
     5  C   -0.083405
     6  N   -0.197441
     7  C   -0.092265
     8  C    0.087376
     9  C    0.012536
    10  C    0.033063
    11  C    0.110279
    12  C    0.068593
    13  C    0.039790
    14  C    0.097694
    15  O   -0.174273
    16  O   -0.296687
    17  N   -0.279582
    18  C    0.087093
    19  C   -0.132627
    20  C    0.064416
    21  C    0.102588
    22  C    0.194047
    23  C   -0.068321
    24  O   -0.182083
    25  C    0.114213
    26  N   -0.268774
    27  C   -0.019506
    28  C    0.033393
    29  C    0.042976
    30  C    0.119368
    31  C    0.120656
    32  C    0.038984
    33  C    0.055002
    34  N   -0.256103
    35  C    0.089216
    36  C   -0.188050
    37  C    0.057653
    38  C    0.102960
    39  C    0.145637
    40  C   -0.006869
    41  O   -0.116558
    42  C    0.066167
    43  C    0.095625
    44  O   -0.184656
    45  O   -0.276570
    46  C    0.219078
    47  C    0.337938
    48  C   -0.064333
    49  C   -0.229793
    50  C    0.166042
    51  C    0.149679
    52  C    0.044255
    53  C    0.078345
    54  C   -0.074063
    55  C    0.121378
    56  C    0.061923
    57  C    0.055245
    58  C    0.116481
    59  C   -0.079084
    60  C    0.117051
    61  C    0.115666
    62  C    0.087717
    63  C    0.110455
    64  C   -0.088794
    65  C    0.086226
    66  C    0.101310
    67  H   -0.054424
    68  H   -0.102858
    69  H   -0.055838
    70  H   -0.020515
    71  H   -0.020099
    72  H    0.007378
    73  H   -0.009898
    74  H   -0.006282
    75  H   -0.009172
    76  H   -0.012544
    77  H    0.019732
    78  H    0.005914
    79  H    0.011557
    80  H   -0.039025
    81  H    0.006729
    82  H   -0.017055
    83  H   -0.002599
    84  H    0.022058
    85  H   -0.009618
    86  H   -0.038535
    87  H   -0.009176
    88  H    0.007350
    89  H    0.011172
    90  H   -0.022076
    91  H   -0.027628
    92  H   -0.018709
    93  H   -0.001950
    94  H    0.002250
    95  H    0.002907
    96  H    0.004121
    97  H    0.011568
    98  H    0.014830
    99  H    0.005145
   100  H    0.027365
   101  H    0.001834
   102  H   -0.001310
   103  H    0.013374
   104  H   -0.030947
   105  H    0.006954
   106  H   -0.040040
   107  H    0.011411
   108  H   -0.008586
   109  H   -0.037756
   110  H   -0.020418
   111  H   -0.019715
   112  H   -0.038614
   113  H   -0.034045
   114  H   -0.033002
   115  H   -0.009544
   116  H   -0.010319
   117  H   -0.000182
   118  H   -0.031457
   119  H   -0.027257
   120  H   -0.046768
   121  H   -0.039034
   122  H   -0.026846
   123  H   -0.036880
   124  H   -0.048680
   125  H   -0.023842
   126  H   -0.020181
   127  H   -0.023794
   128  H   -0.045838
   129  H   -0.043239
   130  H   -0.018329
   131  H   -0.031321
   132  H   -0.036701
   133  H   -0.037871
   134  H   -0.025264
   135  H   -0.014126
   136  H   -0.005929
   137  H   -0.023992
   138  H   -0.030197
   139  H   -0.009087
   140  H   -0.031093
 Sum of Mulliken charges =  -0.00000

 Dipole moment (field-independent basis, Debye):
    X=              0.4096    Y=              4.1191    Z=              2.7349  Tot=              4.9613
 Quadrupole moment (field-independent basis, Debye-Ang):
   XX=           -405.0429   YY=           -436.6391   ZZ=           -387.1552
   XY=             54.1710   XZ=            -12.4037   YZ=             17.3849

 Normal termination of Gaussian 16 at Wed May  4 09:27:34 2022.
