 Gaussian 16, Revision A.03,
 Gaussian 16:  ES64L-G16RevA.03 25-Dec-2016

 -----------------------------------
 #p cam-b3lyp/Def2SVP td=(nstates=5)
 -----------------------------------

 ------------------------------------------------------
 step_151_chromophore_2 TDDFT with cam-b3lyp functional
 ------------------------------------------------------
 Symbolic Z-matrix:
 Charge =  0 Multiplicity = 1

                         Standard orientation:
 ---------------------------------------------------------------------
 Center     Atomic      Atomic             Coordinates (Angstroms)
 Number     Number       Type             X           Y           Z
 ---------------------------------------------------------------------
      1         12           0        4.300264    1.531442   -0.447152
      2          6           0        5.213883   -1.962607   -0.576675
      3          6           0        2.183099    0.852515   -3.123803
      4          6           0        2.923809    4.493127   -0.089731
      5          6           0        5.973420    1.662050    2.617000
      6          7           0        3.598701   -0.402787   -1.518280
      7          6           0        4.135111   -1.655537   -1.404142
      8          6           0        3.616647   -2.586668   -2.486517
      9          6           0        2.858004   -1.632365   -3.441479
     10          6           0        2.788914   -0.336406   -2.645951
     11          6           0        3.535417   -1.445804   -4.877809
     12          6           0        2.773208   -3.809987   -1.899531
     13          6           0        2.014391   -3.697607   -0.492755
     14          6           0        0.651884   -4.412085   -0.285563
     15          8           0        0.153299   -5.193074   -1.061200
     16          8           0        0.085052   -4.112307    0.934934
     17          7           0        2.925883    2.692918   -1.632600
     18          6           0        2.199009    2.206571   -2.708897
     19          6           0        1.485087    3.295875   -3.216097
     20          6           0        1.625952    4.424498   -2.325712
     21          6           0        2.556812    3.947166   -1.310997
     22          6           0        0.612855    3.389624   -4.419943
     23          6           0        0.963726    5.786070   -2.386725
     24          8           0        0.118475    6.110579   -3.235747
     25          6           0        1.292274    6.910039   -1.346766
     26          7           0        4.178628    2.758642    1.152520
     27          6           0        3.728039    4.017646    1.006797
     28          6           0        4.015191    4.965663    2.192769
     29          6           0        4.952164    3.949591    3.038097
     30          6           0        5.050142    2.689712    2.218407
     31          6           0        4.767416    6.265798    1.690235
     32          6           0        4.534514    3.796618    4.543457
     33          6           0        5.052554    4.774454    5.638615
     34          7           0        5.436242    0.222420    0.768662
     35          6           0        6.147313    0.487768    1.909278
     36          6           0        7.003183   -0.716752    2.193634
     37          6           0        6.608500   -1.693719    1.241302
     38          6           0        5.716271   -1.071760    0.394042
     39          6           0        8.099553   -0.802027    3.297677
     40          6           0        6.859528   -3.080796    0.753055
     41          8           0        7.635439   -3.948223    1.165388
     42          6           0        5.957223   -3.252054   -0.492757
     43          6           0        6.791226   -3.595810   -1.642589
     44          8           0        7.241733   -4.725397   -1.860135
     45          8           0        6.834355   -2.644676   -2.663969
     46          6           0        7.568948   -2.988696   -3.851103
     47          6           0       -1.141402   -4.739870    1.472824
     48          6           0       -1.920760   -3.656028    2.076838
     49          6           0       -2.622850   -3.757883    3.249081
     50          6           0       -2.827651   -4.956965    4.123940
     51          6           0       -3.385897   -2.541976    3.738699
     52          6           0       -4.261622   -1.713686    2.687189
     53          6           0       -5.795780   -1.884614    2.816412
     54          6           0       -6.483511   -0.612039    2.160911
     55          6           0       -6.745701    0.511630    3.243081
     56          6           0       -7.764898   -1.103679    1.406541
     57          6           0       -8.802542   -0.008619    0.899174
     58          6           0       -8.892042    0.012271   -0.628869
     59          6           0      -10.319178   -0.539547   -1.150206
     60          6           0      -10.123205   -1.369460   -2.341907
     61          6           0      -11.333159    0.505056   -1.378157
     62          6           0      -12.823489   -0.027880   -1.441587
     63          6           0      -13.696699    0.517080   -0.289329
     64          6           0      -15.083176    1.169307   -0.781055
     65          6           0      -15.388861    2.441595    0.072384
     66          6           0      -16.334669    0.298942   -0.664308
     67          1           0        1.701725    0.848559   -4.103902
     68          1           0        2.468146    5.464641    0.113242
     69          1           0        6.648492    1.705823    3.475093
     70          1           0        4.487651   -3.037780   -2.962566
     71          1           0        1.850200   -1.961960   -3.693492
     72          1           0        2.985305   -2.082953   -5.571618
     73          1           0        4.589983   -1.720777   -4.857629
     74          1           0        3.494606   -0.380211   -5.104174
     75          1           0        3.346496   -4.730754   -1.798679
     76          1           0        1.896719   -4.094437   -2.481895
     77          1           0        2.012910   -2.638516   -0.233985
     78          1           0        2.659821   -4.192504    0.232770
     79          1           0       -0.414110    3.597889   -4.119507
     80          1           0        0.709296    2.417326   -4.902099
     81          1           0        0.841698    4.165981   -5.150481
     82          1           0        0.917586    7.890619   -1.638371
     83          1           0        2.361102    7.091270   -1.235390
     84          1           0        0.887468    6.712733   -0.353811
     85          1           0        3.135585    5.053254    2.830895
     86          1           0        5.912741    4.455668    3.131634
     87          1           0        3.927884    6.961198    1.659482
     88          1           0        5.033283    6.265072    0.634099
     89          1           0        5.513472    6.654378    2.383393
     90          1           0        4.810185    2.860504    5.029248
     91          1           0        3.450318    3.861902    4.632651
     92          1           0        6.019968    5.163639    5.320926
     93          1           0        5.217045    4.152936    6.519189
     94          1           0        4.387336    5.625007    5.788370
     95          1           0        8.365920   -1.857134    3.349971
     96          1           0        7.690131   -0.494354    4.260249
     97          1           0        9.037022   -0.300046    3.059476
     98          1           0        5.378383   -4.175749   -0.493901
     99          1           0        6.866826   -3.481333   -4.523944
    100          1           0        8.477304   -3.556532   -3.648069
    101          1           0        7.889946   -2.154768   -4.475387
    102          1           0       -0.727087   -5.447113    2.190662
    103          1           0       -1.750739   -5.329608    0.787113
    104          1           0       -1.966742   -2.660028    1.637232
    105          1           0       -2.571543   -4.787340    5.169503
    106          1           0       -2.134806   -5.726609    3.782194
    107          1           0       -3.824772   -5.365776    3.963254
    108          1           0       -2.617484   -1.852334    4.086013
    109          1           0       -4.069933   -2.978585    4.467423
    110          1           0       -3.990379   -2.207324    1.754037
    111          1           0       -3.947395   -0.669873    2.678135
    112          1           0       -6.129772   -1.922210    3.853069
    113          1           0       -6.108781   -2.860394    2.443783
    114          1           0       -5.773911   -0.319768    1.386285
    115          1           0       -6.366924    1.464108    2.872851
    116          1           0       -6.243254    0.256937    4.175872
    117          1           0       -7.829681    0.591533    3.334331
    118          1           0       -8.287233   -1.820261    2.040985
    119          1           0       -7.419000   -1.644354    0.525687
    120          1           0       -8.579907    0.952480    1.360862
    121          1           0       -9.803777   -0.133672    1.313571
    122          1           0       -8.025380   -0.569115   -0.943240
    123          1           0       -8.795843    1.072232   -0.865549
    124          1           0      -10.691090   -1.282562   -0.445247
    125          1           0      -10.884124   -1.332226   -3.122077
    126          1           0      -10.008202   -2.382221   -1.955726
    127          1           0       -9.220151   -0.967136   -2.802680
    128          1           0      -11.025260    1.008366   -2.295088
    129          1           0      -11.177335    1.282733   -0.631045
    130          1           0      -12.992186   -1.102797   -1.505797
    131          1           0      -13.190378    0.402090   -2.374219
    132          1           0      -13.135881    1.228589    0.316742
    133          1           0      -13.821724   -0.306962    0.413839
    134          1           0      -15.154355    1.345203   -1.854418
    135          1           0      -14.564987    3.155190    0.077266
    136          1           0      -15.726337    2.179495    1.075411
    137          1           0      -16.226397    2.952711   -0.403505
    138          1           0      -16.030324   -0.649313   -0.222624
    139          1           0      -16.899431    0.171588   -1.587997
    140          1           0      -17.021181    0.688435    0.087986
 ---------------------------------------------------------------------

 SCF Done:  E(RCAM-B3LYP) =  -3007.12212749     A.U. after   17 cycles

 Excitation energies and oscillator strengths:

 Excited State   1:      Singlet-A      1.6891 eV  734.01 nm  f=0.3659  <S**2>=0.000
     245 -> 248       -0.18723
     246 -> 247        0.68268
     245 <- 248       -0.10859
 This state for optimization and/or second-order correction.
 Total Energy, E(TD-HF/TD-DFT) =  -3007.06005306
 Copying the excited state density for this state as the 1-particle RhoCI density.

 Excited State   2:      Singlet-A      2.1874 eV  566.80 nm  f=0.0741  <S**2>=0.000
     245 -> 247        0.62689
     246 -> 248        0.30763

 Excited State   3:      Singlet-A      3.1683 eV  391.33 nm  f=0.0071  <S**2>=0.000
     243 -> 247        0.66352
     246 -> 248        0.19250

 Excited State   4:      Singlet-A      3.4157 eV  362.98 nm  f=0.3629  <S**2>=0.000
     239 -> 247        0.10835
     242 -> 247        0.39024
     243 -> 247       -0.11089
     245 -> 247       -0.22191
     246 -> 248        0.49014

 Excited State   5:      Singlet-A      3.4679 eV  357.52 nm  f=0.0276  <S**2>=0.000
     241 -> 247        0.52556
     241 -> 248       -0.16331
     241 -> 249       -0.18991
     241 -> 250       -0.10166
     241 -> 251        0.30412
     241 -> 259        0.10017
     246 -> 248        0.11935

 The electronic state is 1-A.
 Alpha  occ. eigenvalues --  -46.89820 -19.25613 -19.23842 -19.20396 -19.19934
 Alpha  occ. eigenvalues --  -19.19466 -19.18536 -14.43266 -14.42930 -14.39930
 Alpha  occ. eigenvalues --  -14.39207 -10.40218 -10.39456 -10.36775 -10.35435
 Alpha  occ. eigenvalues --  -10.32525 -10.32235 -10.32064 -10.31997 -10.31789
 Alpha  occ. eigenvalues --  -10.31330 -10.30489 -10.30093 -10.29880 -10.29677
 Alpha  occ. eigenvalues --  -10.29657 -10.29580 -10.29300 -10.28590 -10.28435
 Alpha  occ. eigenvalues --  -10.28413 -10.28163 -10.28031 -10.27976 -10.27864
 Alpha  occ. eigenvalues --  -10.27743 -10.27333 -10.27295 -10.27008 -10.26943
 Alpha  occ. eigenvalues --  -10.26905 -10.26796 -10.26778 -10.26751 -10.26550
 Alpha  occ. eigenvalues --  -10.26228 -10.26100 -10.26071 -10.26010 -10.25863
 Alpha  occ. eigenvalues --  -10.25391 -10.25347 -10.25333 -10.25290 -10.24993
 Alpha  occ. eigenvalues --  -10.24927 -10.24898 -10.24842 -10.24771 -10.24592
 Alpha  occ. eigenvalues --  -10.24348 -10.24327 -10.24290 -10.24266 -10.23866
 Alpha  occ. eigenvalues --  -10.23095  -3.18295  -1.93152  -1.92794  -1.92572
 Alpha  occ. eigenvalues --   -1.16635  -1.15376  -1.10352  -1.08619  -1.07442
 Alpha  occ. eigenvalues --   -1.07413  -1.05029  -1.04057  -1.03485  -1.02779
 Alpha  occ. eigenvalues --   -0.94595  -0.90326  -0.89946  -0.89262  -0.88739
 Alpha  occ. eigenvalues --   -0.88495  -0.87971  -0.87812  -0.87211  -0.86491
 Alpha  occ. eigenvalues --   -0.85734  -0.85465  -0.84806  -0.84146  -0.83483
 Alpha  occ. eigenvalues --   -0.82616  -0.82051  -0.81264  -0.80948  -0.80464
 Alpha  occ. eigenvalues --   -0.79833  -0.78660  -0.78149  -0.77670  -0.76925
 Alpha  occ. eigenvalues --   -0.75760  -0.75534  -0.74703  -0.74612  -0.74133
 Alpha  occ. eigenvalues --   -0.73239  -0.73059  -0.72523  -0.70352  -0.69445
 Alpha  occ. eigenvalues --   -0.69318  -0.68238  -0.67491  -0.66724  -0.65864
 Alpha  occ. eigenvalues --   -0.65661  -0.65558  -0.65300  -0.64988  -0.63919
 Alpha  occ. eigenvalues --   -0.63413  -0.62714  -0.62550  -0.62212  -0.60662
 Alpha  occ. eigenvalues --   -0.60189  -0.59286  -0.59242  -0.58874  -0.58576
 Alpha  occ. eigenvalues --   -0.57854  -0.57229  -0.56975  -0.56337  -0.55720
 Alpha  occ. eigenvalues --   -0.55222  -0.55078  -0.54787  -0.54518  -0.54173
 Alpha  occ. eigenvalues --   -0.53939  -0.53653  -0.53048  -0.52942  -0.52904
 Alpha  occ. eigenvalues --   -0.52872  -0.52345  -0.52253  -0.51793  -0.51706
 Alpha  occ. eigenvalues --   -0.51418  -0.51289  -0.51204  -0.51143  -0.50731
 Alpha  occ. eigenvalues --   -0.50655  -0.50493  -0.50243  -0.49796  -0.49727
 Alpha  occ. eigenvalues --   -0.49531  -0.49406  -0.49290  -0.49076  -0.48781
 Alpha  occ. eigenvalues --   -0.48737  -0.48471  -0.48272  -0.47814  -0.47701
 Alpha  occ. eigenvalues --   -0.47616  -0.47395  -0.47173  -0.47081  -0.47029
 Alpha  occ. eigenvalues --   -0.46714  -0.46601  -0.46181  -0.45975  -0.45799
 Alpha  occ. eigenvalues --   -0.45662  -0.45519  -0.45309  -0.45095  -0.44916
 Alpha  occ. eigenvalues --   -0.44854  -0.44801  -0.44677  -0.44396  -0.44066
 Alpha  occ. eigenvalues --   -0.43865  -0.43815  -0.43499  -0.43288  -0.42943
 Alpha  occ. eigenvalues --   -0.42735  -0.42555  -0.41964  -0.41846  -0.41794
 Alpha  occ. eigenvalues --   -0.41732  -0.41509  -0.41356  -0.41196  -0.41119
 Alpha  occ. eigenvalues --   -0.40868  -0.40216  -0.40076  -0.40012  -0.39851
 Alpha  occ. eigenvalues --   -0.39532  -0.39504  -0.39276  -0.38968  -0.38574
 Alpha  occ. eigenvalues --   -0.38550  -0.38311  -0.37905  -0.37475  -0.37438
 Alpha  occ. eigenvalues --   -0.37315  -0.37181  -0.37016  -0.36567  -0.36221
 Alpha  occ. eigenvalues --   -0.36009  -0.35646  -0.35148  -0.34936  -0.34921
 Alpha  occ. eigenvalues --   -0.34235  -0.34122  -0.33905  -0.32279  -0.31112
 Alpha  occ. eigenvalues --   -0.30648  -0.30485  -0.29231  -0.29117  -0.24585
 Alpha  occ. eigenvalues --   -0.21668
 Alpha virt. eigenvalues --   -0.09225  -0.02913  -0.00509   0.00958   0.01484
 Alpha virt. eigenvalues --    0.03805   0.04537   0.05269   0.06316   0.06515
 Alpha virt. eigenvalues --    0.07035   0.08017   0.08441   0.08817   0.09213

 Mulliken charges:
               1
     1  Mg   0.824380
     2  C   -0.006023
     3  C   -0.055510
     4  C   -0.043046
     5  C   -0.088965
     6  N   -0.260245
     7  C   -0.046596
     8  C    0.027044
     9  C   -0.040954
    10  C    0.049925
    11  C    0.060166
    12  C    0.024391
    13  C   -0.026716
    14  C    0.182472
    15  O   -0.217238
    16  O   -0.363030
    17  N   -0.368258
    18  C    0.092356
    19  C   -0.138274
    20  C   -0.009067
    21  C    0.134573
    22  C    0.140072
    23  C    0.007215
    24  O   -0.222165
    25  C    0.034040
    26  N   -0.342451
    27  C    0.009448
    28  C   -0.022527
    29  C   -0.013773
    30  C    0.135025
    31  C    0.062109
    32  C   -0.015647
    33  C   -0.001019
    34  N   -0.344610
    35  C    0.094627
    36  C   -0.179562
    37  C   -0.023327
    38  C    0.142392
    39  C    0.097804
    40  C    0.090525
    41  O   -0.152646
    42  C   -0.017160
    43  C    0.190528
    44  O   -0.221026
    45  O   -0.339686
    46  C    0.179185
    47  C    0.302175
    48  C   -0.090195
    49  C   -0.243113
    50  C    0.100273
    51  C    0.087751
    52  C   -0.013932
    53  C    0.030937
    54  C   -0.127817
    55  C    0.058908
    56  C    0.012706
    57  C    0.002576
    58  C    0.058781
    59  C   -0.131959
    60  C    0.054778
    61  C    0.061767
    62  C    0.029534
    63  C    0.058022
    64  C   -0.148399
    65  C    0.025699
    66  C    0.041185
    67  H   -0.022135
    68  H   -0.065937
    69  H   -0.018990
    70  H    0.015381
    71  H    0.015221
    72  H    0.030788
    73  H    0.010825
    74  H    0.017998
    75  H    0.018330
    76  H    0.021830
    77  H    0.050326
    78  H    0.034431
    79  H    0.039648
    80  H   -0.015225
    81  H    0.034915
    82  H    0.019379
    83  H    0.024030
    84  H    0.047742
    85  H    0.024565
    86  H   -0.004282
    87  H    0.013320
    88  H    0.033401
    89  H    0.034665
    90  H    0.007327
    91  H    0.000110
    92  H    0.002993
    93  H    0.021707
    94  H    0.023960
    95  H    0.030418
    96  H    0.027428
    97  H    0.037475
    98  H    0.056232
    99  H    0.024534
   100  H    0.052415
   101  H    0.025302
   102  H    0.027150
   103  H    0.044268
   104  H    0.005401
   105  H    0.032364
   106  H   -0.014785
   107  H    0.035367
   108  H    0.022195
   109  H   -0.008033
   110  H    0.008345
   111  H    0.008758
   112  H   -0.011385
   113  H   -0.004949
   114  H   -0.002233
   115  H    0.014377
   116  H    0.014072
   117  H    0.021555
   118  H   -0.003503
   119  H   -0.001100
   120  H   -0.016893
   121  H   -0.010599
   122  H    0.002357
   123  H   -0.006533
   124  H   -0.017454
   125  H    0.002263
   126  H    0.004554
   127  H    0.000962
   128  H   -0.016035
   129  H   -0.015326
   130  H    0.008860
   131  H   -0.001979
   132  H   -0.007930
   133  H   -0.009570
   134  H    0.005391
   135  H    0.009969
   136  H    0.016465
   137  H    0.001257
   138  H   -0.005600
   139  H    0.014910
   140  H   -0.005500
 Sum of Mulliken charges =  -0.00000

 Dipole moment (field-independent basis, Debye):
    X=              0.6273    Y=              4.3942    Z=              2.8560  Tot=              5.2782
 Quadrupole moment (field-independent basis, Debye-Ang):
   XX=           -403.1582   YY=           -434.0362   ZZ=           -385.3029
   XY=             55.3767   XZ=            -12.0470   YZ=             18.2883

 Normal termination of Gaussian 16 at Wed May  4 08:26:54 2022.
