 Gaussian 16, Revision A.03,
 Gaussian 16:  ES64L-G16RevA.03 25-Dec-2016

 ---------------------------------
 #p PBE1PBE/Def2SVP td=(nstates=5)
 ---------------------------------

 ----------------------------------------------------
 step_151_chromophore_2 TDDFT with PBE1PBE functional
 ----------------------------------------------------
 Symbolic Z-matrix:
 Charge =  0 Multiplicity = 1

                         Standard orientation:
 ---------------------------------------------------------------------
 Center     Atomic      Atomic             Coordinates (Angstroms)
 Number     Number       Type             X           Y           Z
 ---------------------------------------------------------------------
      1         12           0        4.300264    1.531442   -0.447152
      2          6           0        5.213883   -1.962607   -0.576675
      3          6           0        2.183099    0.852515   -3.123803
      4          6           0        2.923809    4.493127   -0.089731
      5          6           0        5.973420    1.662050    2.617000
      6          7           0        3.598701   -0.402787   -1.518280
      7          6           0        4.135111   -1.655537   -1.404142
      8          6           0        3.616647   -2.586668   -2.486517
      9          6           0        2.858004   -1.632365   -3.441479
     10          6           0        2.788914   -0.336406   -2.645951
     11          6           0        3.535417   -1.445804   -4.877809
     12          6           0        2.773208   -3.809987   -1.899531
     13          6           0        2.014391   -3.697607   -0.492755
     14          6           0        0.651884   -4.412085   -0.285563
     15          8           0        0.153299   -5.193074   -1.061200
     16          8           0        0.085052   -4.112307    0.934934
     17          7           0        2.925883    2.692918   -1.632600
     18          6           0        2.199009    2.206571   -2.708897
     19          6           0        1.485087    3.295875   -3.216097
     20          6           0        1.625952    4.424498   -2.325712
     21          6           0        2.556812    3.947166   -1.310997
     22          6           0        0.612855    3.389624   -4.419943
     23          6           0        0.963726    5.786070   -2.386725
     24          8           0        0.118475    6.110579   -3.235747
     25          6           0        1.292274    6.910039   -1.346766
     26          7           0        4.178628    2.758642    1.152520
     27          6           0        3.728039    4.017646    1.006797
     28          6           0        4.015191    4.965663    2.192769
     29          6           0        4.952164    3.949591    3.038097
     30          6           0        5.050142    2.689712    2.218407
     31          6           0        4.767416    6.265798    1.690235
     32          6           0        4.534514    3.796618    4.543457
     33          6           0        5.052554    4.774454    5.638615
     34          7           0        5.436242    0.222420    0.768662
     35          6           0        6.147313    0.487768    1.909278
     36          6           0        7.003183   -0.716752    2.193634
     37          6           0        6.608500   -1.693719    1.241302
     38          6           0        5.716271   -1.071760    0.394042
     39          6           0        8.099553   -0.802027    3.297677
     40          6           0        6.859528   -3.080796    0.753055
     41          8           0        7.635439   -3.948223    1.165388
     42          6           0        5.957223   -3.252054   -0.492757
     43          6           0        6.791226   -3.595810   -1.642589
     44          8           0        7.241733   -4.725397   -1.860135
     45          8           0        6.834355   -2.644676   -2.663969
     46          6           0        7.568948   -2.988696   -3.851103
     47          6           0       -1.141402   -4.739870    1.472824
     48          6           0       -1.920760   -3.656028    2.076838
     49          6           0       -2.622850   -3.757883    3.249081
     50          6           0       -2.827651   -4.956965    4.123940
     51          6           0       -3.385897   -2.541976    3.738699
     52          6           0       -4.261622   -1.713686    2.687189
     53          6           0       -5.795780   -1.884614    2.816412
     54          6           0       -6.483511   -0.612039    2.160911
     55          6           0       -6.745701    0.511630    3.243081
     56          6           0       -7.764898   -1.103679    1.406541
     57          6           0       -8.802542   -0.008619    0.899174
     58          6           0       -8.892042    0.012271   -0.628869
     59          6           0      -10.319178   -0.539547   -1.150206
     60          6           0      -10.123205   -1.369460   -2.341907
     61          6           0      -11.333159    0.505056   -1.378157
     62          6           0      -12.823489   -0.027880   -1.441587
     63          6           0      -13.696699    0.517080   -0.289329
     64          6           0      -15.083176    1.169307   -0.781055
     65          6           0      -15.388861    2.441595    0.072384
     66          6           0      -16.334669    0.298942   -0.664308
     67          1           0        1.701725    0.848559   -4.103902
     68          1           0        2.468146    5.464641    0.113242
     69          1           0        6.648492    1.705823    3.475093
     70          1           0        4.487651   -3.037780   -2.962566
     71          1           0        1.850200   -1.961960   -3.693492
     72          1           0        2.985305   -2.082953   -5.571618
     73          1           0        4.589983   -1.720777   -4.857629
     74          1           0        3.494606   -0.380211   -5.104174
     75          1           0        3.346496   -4.730754   -1.798679
     76          1           0        1.896719   -4.094437   -2.481895
     77          1           0        2.012910   -2.638516   -0.233985
     78          1           0        2.659821   -4.192504    0.232770
     79          1           0       -0.414110    3.597889   -4.119507
     80          1           0        0.709296    2.417326   -4.902099
     81          1           0        0.841698    4.165981   -5.150481
     82          1           0        0.917586    7.890619   -1.638371
     83          1           0        2.361102    7.091270   -1.235390
     84          1           0        0.887468    6.712733   -0.353811
     85          1           0        3.135585    5.053254    2.830895
     86          1           0        5.912741    4.455668    3.131634
     87          1           0        3.927884    6.961198    1.659482
     88          1           0        5.033283    6.265072    0.634099
     89          1           0        5.513472    6.654378    2.383393
     90          1           0        4.810185    2.860504    5.029248
     91          1           0        3.450318    3.861902    4.632651
     92          1           0        6.019968    5.163639    5.320926
     93          1           0        5.217045    4.152936    6.519189
     94          1           0        4.387336    5.625007    5.788370
     95          1           0        8.365920   -1.857134    3.349971
     96          1           0        7.690131   -0.494354    4.260249
     97          1           0        9.037022   -0.300046    3.059476
     98          1           0        5.378383   -4.175749   -0.493901
     99          1           0        6.866826   -3.481333   -4.523944
    100          1           0        8.477304   -3.556532   -3.648069
    101          1           0        7.889946   -2.154768   -4.475387
    102          1           0       -0.727087   -5.447113    2.190662
    103          1           0       -1.750739   -5.329608    0.787113
    104          1           0       -1.966742   -2.660028    1.637232
    105          1           0       -2.571543   -4.787340    5.169503
    106          1           0       -2.134806   -5.726609    3.782194
    107          1           0       -3.824772   -5.365776    3.963254
    108          1           0       -2.617484   -1.852334    4.086013
    109          1           0       -4.069933   -2.978585    4.467423
    110          1           0       -3.990379   -2.207324    1.754037
    111          1           0       -3.947395   -0.669873    2.678135
    112          1           0       -6.129772   -1.922210    3.853069
    113          1           0       -6.108781   -2.860394    2.443783
    114          1           0       -5.773911   -0.319768    1.386285
    115          1           0       -6.366924    1.464108    2.872851
    116          1           0       -6.243254    0.256937    4.175872
    117          1           0       -7.829681    0.591533    3.334331
    118          1           0       -8.287233   -1.820261    2.040985
    119          1           0       -7.419000   -1.644354    0.525687
    120          1           0       -8.579907    0.952480    1.360862
    121          1           0       -9.803777   -0.133672    1.313571
    122          1           0       -8.025380   -0.569115   -0.943240
    123          1           0       -8.795843    1.072232   -0.865549
    124          1           0      -10.691090   -1.282562   -0.445247
    125          1           0      -10.884124   -1.332226   -3.122077
    126          1           0      -10.008202   -2.382221   -1.955726
    127          1           0       -9.220151   -0.967136   -2.802680
    128          1           0      -11.025260    1.008366   -2.295088
    129          1           0      -11.177335    1.282733   -0.631045
    130          1           0      -12.992186   -1.102797   -1.505797
    131          1           0      -13.190378    0.402090   -2.374219
    132          1           0      -13.135881    1.228589    0.316742
    133          1           0      -13.821724   -0.306962    0.413839
    134          1           0      -15.154355    1.345203   -1.854418
    135          1           0      -14.564987    3.155190    0.077266
    136          1           0      -15.726337    2.179495    1.075411
    137          1           0      -16.226397    2.952711   -0.403505
    138          1           0      -16.030324   -0.649313   -0.222624
    139          1           0      -16.899431    0.171588   -1.587997
    140          1           0      -17.021181    0.688435    0.087986
 ---------------------------------------------------------------------

 SCF Done:  E(RPBE1PBE) =  -3005.31184466     A.U. after   15 cycles

 Excitation energies and oscillator strengths:

 Excited State   1:      Singlet-A      1.8409 eV  673.49 nm  f=0.3526  <S**2>=0.000
     245 -> 248        0.17923
     246 -> 247        0.68956
     246 <- 247       -0.10323
 This state for optimization and/or second-order correction.
 Total Energy, E(TD-HF/TD-DFT) =  -3005.24419192
 Copying the excited state density for this state as the 1-particle RhoCI density.

 Excited State   2:      Singlet-A      2.1861 eV  567.15 nm  f=0.0729  <S**2>=0.000
     245 -> 247        0.64160
     246 -> 248       -0.26863

 Excited State   3:      Singlet-A      2.8250 eV  438.88 nm  f=0.0043  <S**2>=0.000
     243 -> 247        0.68350
     246 -> 248        0.11662

 Excited State   4:      Singlet-A      2.8991 eV  427.66 nm  f=0.0003  <S**2>=0.000
     242 -> 247        0.66684
     242 -> 248       -0.10510
     242 -> 250        0.15060

 Excited State   5:      Singlet-A      3.0712 eV  403.69 nm  f=0.0002  <S**2>=0.000
     244 -> 247        0.70672

 The electronic state is 1-A.
 Alpha  occ. eigenvalues --  -46.93209 -19.26224 -19.24550 -19.20537 -19.20140
 Alpha  occ. eigenvalues --  -19.19724 -19.18795 -14.42800 -14.42394 -14.39583
 Alpha  occ. eigenvalues --  -14.38900 -10.37206 -10.36467 -10.33875 -10.32638
 Alpha  occ. eigenvalues --  -10.30236 -10.29991 -10.29576 -10.29433 -10.29204
 Alpha  occ. eigenvalues --  -10.29046 -10.28144 -10.27757 -10.27636 -10.27360
 Alpha  occ. eigenvalues --  -10.27225 -10.27215 -10.27155 -10.26413 -10.26260
 Alpha  occ. eigenvalues --  -10.26140 -10.26017 -10.25726 -10.25612 -10.25492
 Alpha  occ. eigenvalues --  -10.25232 -10.24954 -10.24860 -10.24729 -10.24607
 Alpha  occ. eigenvalues --  -10.24558 -10.24435 -10.24340 -10.24279 -10.24193
 Alpha  occ. eigenvalues --  -10.23741 -10.23665 -10.23556 -10.23455 -10.23443
 Alpha  occ. eigenvalues --  -10.22934 -10.22932 -10.22904 -10.22758 -10.22585
 Alpha  occ. eigenvalues --  -10.22477 -10.22413 -10.22358 -10.22299 -10.22189
 Alpha  occ. eigenvalues --  -10.21916 -10.21857 -10.21850 -10.21749 -10.21250
 Alpha  occ. eigenvalues --  -10.20446  -3.15266  -1.88061  -1.87684  -1.87464
 Alpha  occ. eigenvalues --   -1.11352  -1.10176  -1.05008  -1.03384  -1.02284
 Alpha  occ. eigenvalues --   -1.02226  -0.99639  -0.98648  -0.98172  -0.97438
 Alpha  occ. eigenvalues --   -0.88911  -0.84456  -0.84039  -0.83585  -0.83026
 Alpha  occ. eigenvalues --   -0.82735  -0.82142  -0.82065  -0.81307  -0.80818
 Alpha  occ. eigenvalues --   -0.80045  -0.79744  -0.79056  -0.78367  -0.77679
 Alpha  occ. eigenvalues --   -0.76860  -0.76271  -0.75464  -0.75286  -0.74651
 Alpha  occ. eigenvalues --   -0.73986  -0.72954  -0.72399  -0.71954  -0.71242
 Alpha  occ. eigenvalues --   -0.69987  -0.69835  -0.68823  -0.68710  -0.68311
 Alpha  occ. eigenvalues --   -0.67648  -0.67460  -0.66910  -0.64681  -0.63849
 Alpha  occ. eigenvalues --   -0.63747  -0.62457  -0.61978  -0.60942  -0.60269
 Alpha  occ. eigenvalues --   -0.60161  -0.59859  -0.59716  -0.59540  -0.58435
 Alpha  occ. eigenvalues --   -0.57578  -0.57231  -0.56715  -0.56411  -0.55160
 Alpha  occ. eigenvalues --   -0.54833  -0.53848  -0.53719  -0.53445  -0.53120
 Alpha  occ. eigenvalues --   -0.52254  -0.51727  -0.51340  -0.50915  -0.50322
 Alpha  occ. eigenvalues --   -0.49700  -0.49513  -0.49267  -0.49111  -0.48580
 Alpha  occ. eigenvalues --   -0.48482  -0.48198  -0.47710  -0.47471  -0.47414
 Alpha  occ. eigenvalues --   -0.47373  -0.46885  -0.46777  -0.46361  -0.46213
 Alpha  occ. eigenvalues --   -0.45923  -0.45822  -0.45673  -0.45630  -0.45268
 Alpha  occ. eigenvalues --   -0.45164  -0.45082  -0.44789  -0.44367  -0.44292
 Alpha  occ. eigenvalues --   -0.44082  -0.44037  -0.43895  -0.43707  -0.43435
 Alpha  occ. eigenvalues --   -0.43279  -0.43132  -0.42889  -0.42496  -0.42339
 Alpha  occ. eigenvalues --   -0.42229  -0.42072  -0.41883  -0.41807  -0.41708
 Alpha  occ. eigenvalues --   -0.41342  -0.41221  -0.40918  -0.40572  -0.40527
 Alpha  occ. eigenvalues --   -0.40299  -0.40260  -0.40025  -0.39743  -0.39688
 Alpha  occ. eigenvalues --   -0.39548  -0.39476  -0.39401  -0.39166  -0.38805
 Alpha  occ. eigenvalues --   -0.38581  -0.38552  -0.38254  -0.38105  -0.37794
 Alpha  occ. eigenvalues --   -0.37561  -0.37465  -0.36829  -0.36705  -0.36569
 Alpha  occ. eigenvalues --   -0.36513  -0.36393  -0.36207  -0.36072  -0.36025
 Alpha  occ. eigenvalues --   -0.35644  -0.34990  -0.34949  -0.34815  -0.34736
 Alpha  occ. eigenvalues --   -0.34390  -0.34260  -0.34059  -0.33774  -0.33586
 Alpha  occ. eigenvalues --   -0.33323  -0.33123  -0.32942  -0.32501  -0.32383
 Alpha  occ. eigenvalues --   -0.32258  -0.31977  -0.31899  -0.31478  -0.31123
 Alpha  occ. eigenvalues --   -0.30865  -0.30459  -0.30305  -0.30141  -0.29837
 Alpha  occ. eigenvalues --   -0.29397  -0.29133  -0.28699  -0.27342  -0.26572
 Alpha  occ. eigenvalues --   -0.26071  -0.25424  -0.24903  -0.24433  -0.21507
 Alpha  occ. eigenvalues --   -0.19324
 Alpha virt. eigenvalues --   -0.11718  -0.06375  -0.04703  -0.03003  -0.01698
 Alpha virt. eigenvalues --   -0.00677   0.00085   0.00805   0.01881   0.02117
 Alpha virt. eigenvalues --    0.03230   0.04428   0.04742   0.05567   0.05986

 Mulliken charges:
               1
     1  Mg   0.965230
     2  C   -0.016995
     3  C   -0.057701
     4  C   -0.047547
     5  C   -0.074170
     6  N   -0.361254
     7  C    0.034588
     8  C   -0.056160
     9  C   -0.113032
    10  C    0.091205
    11  C   -0.000460
    12  C   -0.015937
    13  C   -0.105116
    14  C    0.251072
    15  O   -0.251592
    16  O   -0.393858
    17  N   -0.482962
    18  C    0.120550
    19  C   -0.172115
    20  C   -0.055292
    21  C    0.172040
    22  C    0.084533
    23  C    0.055488
    24  O   -0.256192
    25  C   -0.043512
    26  N   -0.446914
    27  C    0.048403
    28  C   -0.103318
    29  C   -0.081683
    30  C    0.159335
    31  C    0.003042
    32  C   -0.074852
    33  C   -0.071421
    34  N   -0.467874
    35  C    0.115218
    36  C   -0.189637
    37  C   -0.067722
    38  C    0.188284
    39  C    0.043068
    40  C    0.180901
    41  O   -0.198429
    42  C   -0.135151
    43  C    0.285270
    44  O   -0.255024
    45  O   -0.371890
    46  C    0.125388
    47  C    0.263296
    48  C   -0.108719
    49  C   -0.276418
    50  C    0.029873
    51  C    0.023852
    52  C   -0.082772
    53  C   -0.016997
    54  C   -0.211570
    55  C   -0.004868
    56  C   -0.043709
    57  C   -0.051914
    58  C   -0.001995
    59  C   -0.218722
    60  C   -0.003455
    61  C    0.006671
    62  C   -0.034852
    63  C    0.009044
    64  C   -0.239075
    65  C   -0.043028
    66  C   -0.015540
    67  H    0.010014
    68  H   -0.028131
    69  H    0.012629
    70  H    0.060389
    71  H    0.051604
    72  H    0.057790
    73  H    0.041019
    74  H    0.046529
    75  H    0.049666
    76  H    0.053967
    77  H    0.083947
    78  H    0.068363
    79  H    0.067236
    80  H    0.014586
    81  H    0.062310
    82  H    0.048158
    83  H    0.051198
    84  H    0.073284
    85  H    0.060576
    86  H    0.034409
    87  H    0.041572
    88  H    0.060937
    89  H    0.061747
    90  H    0.039637
    91  H    0.033421
    92  H    0.030613
    93  H    0.048984
    94  H    0.051079
    95  H    0.058910
    96  H    0.053463
    97  H    0.064484
    98  H    0.092942
    99  H    0.045400
   100  H    0.073676
   101  H    0.047567
   102  H    0.053604
   103  H    0.069720
   104  H    0.035598
   105  H    0.059632
   106  H    0.014367
   107  H    0.063581
   108  H    0.056115
   109  H    0.024959
   110  H    0.043336
   111  H    0.040368
   112  H    0.020980
   113  H    0.026485
   114  H    0.036058
   115  H    0.042244
   116  H    0.041371
   117  H    0.049308
   118  H    0.029471
   119  H    0.031668
   120  H    0.015527
   121  H    0.021641
   122  H    0.034185
   123  H    0.026772
   124  H    0.021474
   125  H    0.030089
   126  H    0.032448
   127  H    0.029219
   128  H    0.017008
   129  H    0.017159
   130  H    0.039215
   131  H    0.031336
   132  H    0.023165
   133  H    0.022069
   134  H    0.041350
   135  H    0.038393
   136  H    0.044383
   137  H    0.030942
   138  H    0.022557
   139  H    0.041494
   140  H    0.021826
 Sum of Mulliken charges =  -0.00000

 Dipole moment (field-independent basis, Debye):
    X=              0.5477    Y=              4.5355    Z=              2.8608  Tot=              5.3902
 Quadrupole moment (field-independent basis, Debye-Ang):
   XX=           -400.2693   YY=           -430.5768   ZZ=           -380.8673
   XY=             56.2946   XZ=            -11.5871   YZ=             19.1481

 Normal termination of Gaussian 16 at Wed May  4 08:44:13 2022.
