 Gaussian 16, Revision A.03,
 Gaussian 16:  ES64L-G16RevA.03 25-Dec-2016

 --------------------------------
 #p wB97XD/Def2SVP td=(nstates=5)
 --------------------------------

 ---------------------------------------------------
 step_151_chromophore_2 TDDFT with wB97XD functional
 ---------------------------------------------------
 Symbolic Z-matrix:
 Charge =  0 Multiplicity = 1

                         Standard orientation:
 ---------------------------------------------------------------------
 Center     Atomic      Atomic             Coordinates (Angstroms)
 Number     Number       Type             X           Y           Z
 ---------------------------------------------------------------------
      1         12           0        4.300264    1.531442   -0.447152
      2          6           0        5.213883   -1.962607   -0.576675
      3          6           0        2.183099    0.852515   -3.123803
      4          6           0        2.923809    4.493127   -0.089731
      5          6           0        5.973420    1.662050    2.617000
      6          7           0        3.598701   -0.402787   -1.518280
      7          6           0        4.135111   -1.655537   -1.404142
      8          6           0        3.616647   -2.586668   -2.486517
      9          6           0        2.858004   -1.632365   -3.441479
     10          6           0        2.788914   -0.336406   -2.645951
     11          6           0        3.535417   -1.445804   -4.877809
     12          6           0        2.773208   -3.809987   -1.899531
     13          6           0        2.014391   -3.697607   -0.492755
     14          6           0        0.651884   -4.412085   -0.285563
     15          8           0        0.153299   -5.193074   -1.061200
     16          8           0        0.085052   -4.112307    0.934934
     17          7           0        2.925883    2.692918   -1.632600
     18          6           0        2.199009    2.206571   -2.708897
     19          6           0        1.485087    3.295875   -3.216097
     20          6           0        1.625952    4.424498   -2.325712
     21          6           0        2.556812    3.947166   -1.310997
     22          6           0        0.612855    3.389624   -4.419943
     23          6           0        0.963726    5.786070   -2.386725
     24          8           0        0.118475    6.110579   -3.235747
     25          6           0        1.292274    6.910039   -1.346766
     26          7           0        4.178628    2.758642    1.152520
     27          6           0        3.728039    4.017646    1.006797
     28          6           0        4.015191    4.965663    2.192769
     29          6           0        4.952164    3.949591    3.038097
     30          6           0        5.050142    2.689712    2.218407
     31          6           0        4.767416    6.265798    1.690235
     32          6           0        4.534514    3.796618    4.543457
     33          6           0        5.052554    4.774454    5.638615
     34          7           0        5.436242    0.222420    0.768662
     35          6           0        6.147313    0.487768    1.909278
     36          6           0        7.003183   -0.716752    2.193634
     37          6           0        6.608500   -1.693719    1.241302
     38          6           0        5.716271   -1.071760    0.394042
     39          6           0        8.099553   -0.802027    3.297677
     40          6           0        6.859528   -3.080796    0.753055
     41          8           0        7.635439   -3.948223    1.165388
     42          6           0        5.957223   -3.252054   -0.492757
     43          6           0        6.791226   -3.595810   -1.642589
     44          8           0        7.241733   -4.725397   -1.860135
     45          8           0        6.834355   -2.644676   -2.663969
     46          6           0        7.568948   -2.988696   -3.851103
     47          6           0       -1.141402   -4.739870    1.472824
     48          6           0       -1.920760   -3.656028    2.076838
     49          6           0       -2.622850   -3.757883    3.249081
     50          6           0       -2.827651   -4.956965    4.123940
     51          6           0       -3.385897   -2.541976    3.738699
     52          6           0       -4.261622   -1.713686    2.687189
     53          6           0       -5.795780   -1.884614    2.816412
     54          6           0       -6.483511   -0.612039    2.160911
     55          6           0       -6.745701    0.511630    3.243081
     56          6           0       -7.764898   -1.103679    1.406541
     57          6           0       -8.802542   -0.008619    0.899174
     58          6           0       -8.892042    0.012271   -0.628869
     59          6           0      -10.319178   -0.539547   -1.150206
     60          6           0      -10.123205   -1.369460   -2.341907
     61          6           0      -11.333159    0.505056   -1.378157
     62          6           0      -12.823489   -0.027880   -1.441587
     63          6           0      -13.696699    0.517080   -0.289329
     64          6           0      -15.083176    1.169307   -0.781055
     65          6           0      -15.388861    2.441595    0.072384
     66          6           0      -16.334669    0.298942   -0.664308
     67          1           0        1.701725    0.848559   -4.103902
     68          1           0        2.468146    5.464641    0.113242
     69          1           0        6.648492    1.705823    3.475093
     70          1           0        4.487651   -3.037780   -2.962566
     71          1           0        1.850200   -1.961960   -3.693492
     72          1           0        2.985305   -2.082953   -5.571618
     73          1           0        4.589983   -1.720777   -4.857629
     74          1           0        3.494606   -0.380211   -5.104174
     75          1           0        3.346496   -4.730754   -1.798679
     76          1           0        1.896719   -4.094437   -2.481895
     77          1           0        2.012910   -2.638516   -0.233985
     78          1           0        2.659821   -4.192504    0.232770
     79          1           0       -0.414110    3.597889   -4.119507
     80          1           0        0.709296    2.417326   -4.902099
     81          1           0        0.841698    4.165981   -5.150481
     82          1           0        0.917586    7.890619   -1.638371
     83          1           0        2.361102    7.091270   -1.235390
     84          1           0        0.887468    6.712733   -0.353811
     85          1           0        3.135585    5.053254    2.830895
     86          1           0        5.912741    4.455668    3.131634
     87          1           0        3.927884    6.961198    1.659482
     88          1           0        5.033283    6.265072    0.634099
     89          1           0        5.513472    6.654378    2.383393
     90          1           0        4.810185    2.860504    5.029248
     91          1           0        3.450318    3.861902    4.632651
     92          1           0        6.019968    5.163639    5.320926
     93          1           0        5.217045    4.152936    6.519189
     94          1           0        4.387336    5.625007    5.788370
     95          1           0        8.365920   -1.857134    3.349971
     96          1           0        7.690131   -0.494354    4.260249
     97          1           0        9.037022   -0.300046    3.059476
     98          1           0        5.378383   -4.175749   -0.493901
     99          1           0        6.866826   -3.481333   -4.523944
    100          1           0        8.477304   -3.556532   -3.648069
    101          1           0        7.889946   -2.154768   -4.475387
    102          1           0       -0.727087   -5.447113    2.190662
    103          1           0       -1.750739   -5.329608    0.787113
    104          1           0       -1.966742   -2.660028    1.637232
    105          1           0       -2.571543   -4.787340    5.169503
    106          1           0       -2.134806   -5.726609    3.782194
    107          1           0       -3.824772   -5.365776    3.963254
    108          1           0       -2.617484   -1.852334    4.086013
    109          1           0       -4.069933   -2.978585    4.467423
    110          1           0       -3.990379   -2.207324    1.754037
    111          1           0       -3.947395   -0.669873    2.678135
    112          1           0       -6.129772   -1.922210    3.853069
    113          1           0       -6.108781   -2.860394    2.443783
    114          1           0       -5.773911   -0.319768    1.386285
    115          1           0       -6.366924    1.464108    2.872851
    116          1           0       -6.243254    0.256937    4.175872
    117          1           0       -7.829681    0.591533    3.334331
    118          1           0       -8.287233   -1.820261    2.040985
    119          1           0       -7.419000   -1.644354    0.525687
    120          1           0       -8.579907    0.952480    1.360862
    121          1           0       -9.803777   -0.133672    1.313571
    122          1           0       -8.025380   -0.569115   -0.943240
    123          1           0       -8.795843    1.072232   -0.865549
    124          1           0      -10.691090   -1.282562   -0.445247
    125          1           0      -10.884124   -1.332226   -3.122077
    126          1           0      -10.008202   -2.382221   -1.955726
    127          1           0       -9.220151   -0.967136   -2.802680
    128          1           0      -11.025260    1.008366   -2.295088
    129          1           0      -11.177335    1.282733   -0.631045
    130          1           0      -12.992186   -1.102797   -1.505797
    131          1           0      -13.190378    0.402090   -2.374219
    132          1           0      -13.135881    1.228589    0.316742
    133          1           0      -13.821724   -0.306962    0.413839
    134          1           0      -15.154355    1.345203   -1.854418
    135          1           0      -14.564987    3.155190    0.077266
    136          1           0      -15.726337    2.179495    1.075411
    137          1           0      -16.226397    2.952711   -0.403505
    138          1           0      -16.030324   -0.649313   -0.222624
    139          1           0      -16.899431    0.171588   -1.587997
    140          1           0      -17.021181    0.688435    0.087986
 ---------------------------------------------------------------------

 SCF Done:  E(RwB97XD) =  -3007.81779462     A.U. after   20 cycles

 Excitation energies and oscillator strengths:

 Excited State   1:      Singlet-A      1.6288 eV  761.18 nm  f=0.3641  <S**2>=0.000
     245 -> 248       -0.19310
     246 -> 247        0.68054
     245 <- 248       -0.11870
 This state for optimization and/or second-order correction.
 Total Energy, E(TD-HF/TD-DFT) =  -3007.75793601
 Copying the excited state density for this state as the 1-particle RhoCI density.

 Excited State   2:      Singlet-A      2.1304 eV  581.99 nm  f=0.0718  <S**2>=0.000
     245 -> 247        0.62468
     246 -> 248        0.31076

 Excited State   3:      Singlet-A      3.1975 eV  387.75 nm  f=0.0127  <S**2>=0.000
     243 -> 247        0.64943
     243 -> 249       -0.10009
     246 -> 248        0.21445

 Excited State   4:      Singlet-A      3.4215 eV  362.37 nm  f=0.3322  <S**2>=0.000
     240 -> 247        0.10062
     241 -> 247        0.38755
     242 -> 247       -0.16680
     243 -> 247       -0.11410
     245 -> 247       -0.21067
     246 -> 248        0.47122

 Excited State   5:      Singlet-A      3.4947 eV  354.78 nm  f=0.0163  <S**2>=0.000
     241 -> 247        0.13307
     242 -> 247        0.49445
     242 -> 248       -0.16709
     242 -> 249       -0.21205
     242 -> 250       -0.32921

 The electronic state is 1-A.
 Alpha  occ. eigenvalues --  -46.96166 -19.30845 -19.29095 -19.25474 -19.24912
 Alpha  occ. eigenvalues --  -19.24390 -19.23560 -14.47842 -14.47554 -14.44540
 Alpha  occ. eigenvalues --  -14.43806 -10.44093 -10.43255 -10.40834 -10.39429
 Alpha  occ. eigenvalues --  -10.36556 -10.36261 -10.35934 -10.35835 -10.35747
 Alpha  occ. eigenvalues --  -10.35365 -10.34522 -10.34107 -10.33900 -10.33840
 Alpha  occ. eigenvalues --  -10.33741 -10.33593 -10.33356 -10.32685 -10.32549
 Alpha  occ. eigenvalues --  -10.32489 -10.32211 -10.32160 -10.32006 -10.31948
 Alpha  occ. eigenvalues --  -10.31652 -10.31306 -10.31226 -10.31067 -10.30877
 Alpha  occ. eigenvalues --  -10.30843 -10.30840 -10.30773 -10.30635 -10.30625
 Alpha  occ. eigenvalues --  -10.30043 -10.29996 -10.29980 -10.29890 -10.29817
 Alpha  occ. eigenvalues --  -10.29306 -10.29289 -10.29255 -10.29209 -10.28928
 Alpha  occ. eigenvalues --  -10.28842 -10.28766 -10.28724 -10.28704 -10.28530
 Alpha  occ. eigenvalues --  -10.28233 -10.28208 -10.28195 -10.28173 -10.27658
 Alpha  occ. eigenvalues --  -10.26885  -3.22099  -1.95640  -1.95263  -1.95041
 Alpha  occ. eigenvalues --   -1.18815  -1.17544  -1.12613  -1.10832  -1.09666
 Alpha  occ. eigenvalues --   -1.09614  -1.07024  -1.06075  -1.05525  -1.04824
 Alpha  occ. eigenvalues --   -0.96606  -0.92124  -0.91692  -0.91181  -0.90603
 Alpha  occ. eigenvalues --   -0.90368  -0.89750  -0.89732  -0.88966  -0.88446
 Alpha  occ. eigenvalues --   -0.87698  -0.87390  -0.86699  -0.86005  -0.85329
 Alpha  occ. eigenvalues --   -0.84508  -0.83941  -0.83104  -0.82908  -0.82381
 Alpha  occ. eigenvalues --   -0.81650  -0.80601  -0.80074  -0.79590  -0.78865
 Alpha  occ. eigenvalues --   -0.77615  -0.77458  -0.76497  -0.76401  -0.75968
 Alpha  occ. eigenvalues --   -0.75227  -0.75016  -0.74486  -0.72284  -0.71393
 Alpha  occ. eigenvalues --   -0.71314  -0.70097  -0.69495  -0.68578  -0.67769
 Alpha  occ. eigenvalues --   -0.67644  -0.67401  -0.67290  -0.67013  -0.65912
 Alpha  occ. eigenvalues --   -0.65223  -0.64680  -0.64363  -0.64039  -0.62634
 Alpha  occ. eigenvalues --   -0.62207  -0.61256  -0.61187  -0.60863  -0.60539
 Alpha  occ. eigenvalues --   -0.59780  -0.59181  -0.58885  -0.58304  -0.57707
 Alpha  occ. eigenvalues --   -0.57123  -0.56965  -0.56684  -0.56490  -0.56021
 Alpha  occ. eigenvalues --   -0.55869  -0.55571  -0.54964  -0.54832  -0.54809
 Alpha  occ. eigenvalues --   -0.54782  -0.54307  -0.54171  -0.53729  -0.53574
 Alpha  occ. eigenvalues --   -0.53335  -0.53198  -0.53072  -0.53051  -0.52681
 Alpha  occ. eigenvalues --   -0.52526  -0.52414  -0.52120  -0.51681  -0.51623
 Alpha  occ. eigenvalues --   -0.51457  -0.51329  -0.51215  -0.51045  -0.50743
 Alpha  occ. eigenvalues --   -0.50593  -0.50367  -0.50172  -0.49745  -0.49595
 Alpha  occ. eigenvalues --   -0.49536  -0.49324  -0.49090  -0.48954  -0.48935
 Alpha  occ. eigenvalues --   -0.48601  -0.48478  -0.48136  -0.47819  -0.47737
 Alpha  occ. eigenvalues --   -0.47505  -0.47441  -0.47263  -0.46945  -0.46836
 Alpha  occ. eigenvalues --   -0.46762  -0.46717  -0.46557  -0.46342  -0.45998
 Alpha  occ. eigenvalues --   -0.45845  -0.45701  -0.45372  -0.45213  -0.44879
 Alpha  occ. eigenvalues --   -0.44636  -0.44509  -0.43921  -0.43831  -0.43720
 Alpha  occ. eigenvalues --   -0.43611  -0.43474  -0.43263  -0.43125  -0.43006
 Alpha  occ. eigenvalues --   -0.42736  -0.42051  -0.41978  -0.41882  -0.41753
 Alpha  occ. eigenvalues --   -0.41405  -0.41368  -0.41106  -0.40816  -0.40501
 Alpha  occ. eigenvalues --   -0.40379  -0.40150  -0.39890  -0.39511  -0.39307
 Alpha  occ. eigenvalues --   -0.39242  -0.39032  -0.38876  -0.38593  -0.38156
 Alpha  occ. eigenvalues --   -0.37872  -0.37473  -0.37165  -0.36972  -0.36771
 Alpha  occ. eigenvalues --   -0.36394  -0.35965  -0.35801  -0.34322  -0.33307
 Alpha  occ. eigenvalues --   -0.32684  -0.32563  -0.31411  -0.31137  -0.26512
 Alpha  occ. eigenvalues --   -0.23467
 Alpha virt. eigenvalues --   -0.07583  -0.01011   0.01528   0.03472   0.04262
 Alpha virt. eigenvalues --    0.06045   0.06818   0.07494   0.08743   0.08817
 Alpha virt. eigenvalues --    0.09880   0.11025   0.11392   0.12204   0.12775

 Mulliken charges:
               1
     1  Mg   0.957549
     2  C   -0.014539
     3  C   -0.066942
     4  C   -0.054701
     5  C   -0.095881
     6  N   -0.324763
     7  C   -0.003448
     8  C   -0.021769
     9  C   -0.091982
    10  C    0.074479
    11  C    0.014053
    12  C   -0.010155
    13  C   -0.085325
    14  C    0.242229
    15  O   -0.249257
    16  O   -0.392504
    17  N   -0.450375
    18  C    0.108868
    19  C   -0.157955
    20  C   -0.051346
    21  C    0.162468
    22  C    0.092732
    23  C    0.049568
    24  O   -0.251544
    25  C   -0.025698
    26  N   -0.415809
    27  C    0.037393
    28  C   -0.077990
    29  C   -0.056989
    30  C    0.152072
    31  C    0.015512
    32  C   -0.061456
    33  C   -0.054883
    34  N   -0.431389
    35  C    0.108322
    36  C   -0.190541
    37  C   -0.064176
    38  C    0.172155
    39  C    0.054441
    40  C    0.164142
    41  O   -0.187620
    42  C   -0.095107
    43  C    0.261911
    44  O   -0.250206
    45  O   -0.369497
    46  C    0.139416
    47  C    0.272857
    48  C   -0.115048
    49  C   -0.266343
    50  C    0.046992
    51  C    0.041622
    52  C   -0.061062
    53  C   -0.005532
    54  C   -0.183653
    55  C    0.007442
    56  C   -0.024668
    57  C   -0.039389
    58  C    0.016265
    59  C   -0.184948
    60  C    0.004627
    61  C    0.023850
    62  C   -0.020489
    63  C    0.020730
    64  C   -0.211513
    65  C   -0.025593
    66  C   -0.005415
    67  H    0.000941
    68  H   -0.045296
    69  H    0.008707
    70  H    0.040176
    71  H    0.043232
    72  H    0.053150
    73  H    0.033576
    74  H    0.038567
    75  H    0.043206
    76  H    0.045879
    77  H    0.074551
    78  H    0.060132
    79  H    0.063355
    80  H    0.008113
    81  H    0.059132
    82  H    0.046563
    83  H    0.043266
    84  H    0.068353
    85  H    0.050970
    86  H    0.019901
    87  H    0.034293
    88  H    0.054397
    89  H    0.056794
    90  H    0.031236
    91  H    0.024530
    92  H    0.023088
    93  H    0.043873
    94  H    0.045303
    95  H    0.054770
    96  H    0.048673
    97  H    0.060336
    98  H    0.085734
    99  H    0.041188
   100  H    0.070106
   101  H    0.043880
   102  H    0.048684
   103  H    0.066853
   104  H    0.032171
   105  H    0.054979
   106  H    0.006768
   107  H    0.057795
   108  H    0.049049
   109  H    0.014883
   110  H    0.030155
   111  H    0.032929
   112  H    0.010247
   113  H    0.019238
   114  H    0.023061
   115  H    0.037007
   116  H    0.035749
   117  H    0.041601
   118  H    0.020697
   119  H    0.020519
   120  H    0.006193
   121  H    0.011920
   122  H    0.023471
   123  H    0.019032
   124  H    0.006279
   125  H    0.024660
   126  H    0.027613
   127  H    0.021935
   128  H    0.007911
   129  H    0.006149
   130  H    0.032500
   131  H    0.021866
   132  H    0.013326
   133  H    0.014470
   134  H    0.030748
   135  H    0.032368
   136  H    0.036930
   137  H    0.023927
   138  H    0.015475
   139  H    0.037241
   140  H    0.014734
 Sum of Mulliken charges =  -0.00000

 Dipole moment (field-independent basis, Debye):
    X=              0.6677    Y=              4.4993    Z=              2.8453  Tot=              5.3652
 Quadrupole moment (field-independent basis, Debye-Ang):
   XX=           -398.6756   YY=           -430.1995   ZZ=           -380.8059
   XY=             55.7871   XZ=            -11.8750   YZ=             18.6382

 Normal termination of Gaussian 16 at Wed May  4 09:15:05 2022.
