 Gaussian 16, Revision A.03,
 Gaussian 16:  ES64L-G16RevA.03 25-Dec-2016

 --------------------
 #p ZINDO=(nstates=5)
 --------------------

 ----------------------------
 step_151_chromophore_2 ZINDO
 ----------------------------
 Symbolic Z-matrix:
 Charge =  0 Multiplicity = 1

                         Standard orientation:
 ---------------------------------------------------------------------
 Center     Atomic      Atomic             Coordinates (Angstroms)
 Number     Number       Type             X           Y           Z
 ---------------------------------------------------------------------
      1         12           0        4.300264    1.531442   -0.447152
      2          6           0        5.213883   -1.962607   -0.576675
      3          6           0        2.183099    0.852515   -3.123803
      4          6           0        2.923809    4.493127   -0.089731
      5          6           0        5.973420    1.662050    2.617000
      6          7           0        3.598701   -0.402787   -1.518280
      7          6           0        4.135111   -1.655537   -1.404142
      8          6           0        3.616647   -2.586668   -2.486517
      9          6           0        2.858004   -1.632365   -3.441479
     10          6           0        2.788914   -0.336406   -2.645951
     11          6           0        3.535417   -1.445804   -4.877809
     12          6           0        2.773208   -3.809987   -1.899531
     13          6           0        2.014391   -3.697607   -0.492755
     14          6           0        0.651884   -4.412085   -0.285563
     15          8           0        0.153299   -5.193074   -1.061200
     16          8           0        0.085052   -4.112307    0.934934
     17          7           0        2.925883    2.692918   -1.632600
     18          6           0        2.199009    2.206571   -2.708897
     19          6           0        1.485087    3.295875   -3.216097
     20          6           0        1.625952    4.424498   -2.325712
     21          6           0        2.556812    3.947166   -1.310997
     22          6           0        0.612855    3.389624   -4.419943
     23          6           0        0.963726    5.786070   -2.386725
     24          8           0        0.118475    6.110579   -3.235747
     25          6           0        1.292274    6.910039   -1.346766
     26          7           0        4.178628    2.758642    1.152520
     27          6           0        3.728039    4.017646    1.006797
     28          6           0        4.015191    4.965663    2.192769
     29          6           0        4.952164    3.949591    3.038097
     30          6           0        5.050142    2.689712    2.218407
     31          6           0        4.767416    6.265798    1.690235
     32          6           0        4.534514    3.796618    4.543457
     33          6           0        5.052554    4.774454    5.638615
     34          7           0        5.436242    0.222420    0.768662
     35          6           0        6.147313    0.487768    1.909278
     36          6           0        7.003183   -0.716752    2.193634
     37          6           0        6.608500   -1.693719    1.241302
     38          6           0        5.716271   -1.071760    0.394042
     39          6           0        8.099553   -0.802027    3.297677
     40          6           0        6.859528   -3.080796    0.753055
     41          8           0        7.635439   -3.948223    1.165388
     42          6           0        5.957223   -3.252054   -0.492757
     43          6           0        6.791226   -3.595810   -1.642589
     44          8           0        7.241733   -4.725397   -1.860135
     45          8           0        6.834355   -2.644676   -2.663969
     46          6           0        7.568948   -2.988696   -3.851103
     47          6           0       -1.141402   -4.739870    1.472824
     48          6           0       -1.920760   -3.656028    2.076838
     49          6           0       -2.622850   -3.757883    3.249081
     50          6           0       -2.827651   -4.956965    4.123940
     51          6           0       -3.385897   -2.541976    3.738699
     52          6           0       -4.261622   -1.713686    2.687189
     53          6           0       -5.795780   -1.884614    2.816412
     54          6           0       -6.483511   -0.612039    2.160911
     55          6           0       -6.745701    0.511630    3.243081
     56          6           0       -7.764898   -1.103679    1.406541
     57          6           0       -8.802542   -0.008619    0.899174
     58          6           0       -8.892042    0.012271   -0.628869
     59          6           0      -10.319178   -0.539547   -1.150206
     60          6           0      -10.123205   -1.369460   -2.341907
     61          6           0      -11.333159    0.505056   -1.378157
     62          6           0      -12.823489   -0.027880   -1.441587
     63          6           0      -13.696699    0.517080   -0.289329
     64          6           0      -15.083176    1.169307   -0.781055
     65          6           0      -15.388861    2.441595    0.072384
     66          6           0      -16.334669    0.298942   -0.664308
     67          1           0        1.701725    0.848559   -4.103902
     68          1           0        2.468146    5.464641    0.113242
     69          1           0        6.648492    1.705823    3.475093
     70          1           0        4.487651   -3.037780   -2.962566
     71          1           0        1.850200   -1.961960   -3.693492
     72          1           0        2.985305   -2.082953   -5.571618
     73          1           0        4.589983   -1.720777   -4.857629
     74          1           0        3.494606   -0.380211   -5.104174
     75          1           0        3.346496   -4.730754   -1.798679
     76          1           0        1.896719   -4.094437   -2.481895
     77          1           0        2.012910   -2.638516   -0.233985
     78          1           0        2.659821   -4.192504    0.232770
     79          1           0       -0.414110    3.597889   -4.119507
     80          1           0        0.709296    2.417326   -4.902099
     81          1           0        0.841698    4.165981   -5.150481
     82          1           0        0.917586    7.890619   -1.638371
     83          1           0        2.361102    7.091270   -1.235390
     84          1           0        0.887468    6.712733   -0.353811
     85          1           0        3.135585    5.053254    2.830895
     86          1           0        5.912741    4.455668    3.131634
     87          1           0        3.927884    6.961198    1.659482
     88          1           0        5.033283    6.265072    0.634099
     89          1           0        5.513472    6.654378    2.383393
     90          1           0        4.810185    2.860504    5.029248
     91          1           0        3.450318    3.861902    4.632651
     92          1           0        6.019968    5.163639    5.320926
     93          1           0        5.217045    4.152936    6.519189
     94          1           0        4.387336    5.625007    5.788370
     95          1           0        8.365920   -1.857134    3.349971
     96          1           0        7.690131   -0.494354    4.260249
     97          1           0        9.037022   -0.300046    3.059476
     98          1           0        5.378383   -4.175749   -0.493901
     99          1           0        6.866826   -3.481333   -4.523944
    100          1           0        8.477304   -3.556532   -3.648069
    101          1           0        7.889946   -2.154768   -4.475387
    102          1           0       -0.727087   -5.447113    2.190662
    103          1           0       -1.750739   -5.329608    0.787113
    104          1           0       -1.966742   -2.660028    1.637232
    105          1           0       -2.571543   -4.787340    5.169503
    106          1           0       -2.134806   -5.726609    3.782194
    107          1           0       -3.824772   -5.365776    3.963254
    108          1           0       -2.617484   -1.852334    4.086013
    109          1           0       -4.069933   -2.978585    4.467423
    110          1           0       -3.990379   -2.207324    1.754037
    111          1           0       -3.947395   -0.669873    2.678135
    112          1           0       -6.129772   -1.922210    3.853069
    113          1           0       -6.108781   -2.860394    2.443783
    114          1           0       -5.773911   -0.319768    1.386285
    115          1           0       -6.366924    1.464108    2.872851
    116          1           0       -6.243254    0.256937    4.175872
    117          1           0       -7.829681    0.591533    3.334331
    118          1           0       -8.287233   -1.820261    2.040985
    119          1           0       -7.419000   -1.644354    0.525687
    120          1           0       -8.579907    0.952480    1.360862
    121          1           0       -9.803777   -0.133672    1.313571
    122          1           0       -8.025380   -0.569115   -0.943240
    123          1           0       -8.795843    1.072232   -0.865549
    124          1           0      -10.691090   -1.282562   -0.445247
    125          1           0      -10.884124   -1.332226   -3.122077
    126          1           0      -10.008202   -2.382221   -1.955726
    127          1           0       -9.220151   -0.967136   -2.802680
    128          1           0      -11.025260    1.008366   -2.295088
    129          1           0      -11.177335    1.282733   -0.631045
    130          1           0      -12.992186   -1.102797   -1.505797
    131          1           0      -13.190378    0.402090   -2.374219
    132          1           0      -13.135881    1.228589    0.316742
    133          1           0      -13.821724   -0.306962    0.413839
    134          1           0      -15.154355    1.345203   -1.854418
    135          1           0      -14.564987    3.155190    0.077266
    136          1           0      -15.726337    2.179495    1.075411
    137          1           0      -16.226397    2.952711   -0.403505
    138          1           0      -16.030324   -0.649313   -0.222624
    139          1           0      -16.899431    0.171588   -1.587997
    140          1           0      -17.021181    0.688435    0.087986
 ---------------------------------------------------------------------

 SCF Done:  E(RZINDO/S) =  -473.982351966     A.U. after   19 cycles

 Excitation energies and oscillator strengths:

 Excited State   1:      Singlet-A      1.2156 eV 1019.91 nm  f=0.5757  <S**2>=0.000
     175 ->178         0.20519
     176 ->177         0.65850
 This state for optimization and/or second-order correction.
 Total Energy, E(CIS/TDA) =  -473.937678198
 Copying the excited state density for this state as the 1-particle RhoCI density.

 Excited State   2:      Singlet-A      1.8365 eV  675.11 nm  f=0.0221  <S**2>=0.000
     175 ->177         0.53470
     176 ->178        -0.43863

 Excited State   3:      Singlet-A      2.9374 eV  422.09 nm  f=0.8462  <S**2>=0.000
     168 ->179         0.13618
     170 ->177        -0.10198
     172 ->177         0.16848
     173 ->177         0.16253
     175 ->177         0.33407
     176 ->178         0.45398
     176 ->179         0.12285

 Excited State   4:      Singlet-A      2.9643 eV  418.25 nm  f=0.0510  <S**2>=0.000
     170 ->177         0.28421
     170 ->178        -0.15114
     170 ->179        -0.24759
     170 ->180        -0.33318
     170 ->181         0.19441
     170 ->183        -0.10016
     170 ->185        -0.23419
     170 ->187         0.17601
     176 ->178         0.11110
     176 ->179         0.11356

 Excited State   5:      Singlet-A      3.0025 eV  412.94 nm  f=0.1315  <S**2>=0.000
     168 ->177         0.25211
     168 ->179         0.41031
     168 ->180        -0.15663
     168 ->181         0.10454
     168 ->183        -0.13977
     168 ->185         0.17923
     168 ->187         0.10104
     168 ->196        -0.10988
     172 ->177        -0.11496
     175 ->177        -0.13095
     176 ->178        -0.15806
     176 ->179         0.17283

 The electronic state is 1-A.
 Alpha  occ. eigenvalues --   -1.84210  -1.81915  -1.79824  -1.72988  -1.71570
 Alpha  occ. eigenvalues --   -1.70020  -1.65054  -1.59824  -1.59466  -1.56627
 Alpha  occ. eigenvalues --   -1.54932  -1.52320  -1.48489  -1.48085  -1.47154
 Alpha  occ. eigenvalues --   -1.44557  -1.41440  -1.40912  -1.39153  -1.38717
 Alpha  occ. eigenvalues --   -1.35860  -1.32411  -1.31888  -1.30968  -1.29000
 Alpha  occ. eigenvalues --   -1.27501  -1.26900  -1.23040  -1.21793  -1.19100
 Alpha  occ. eigenvalues --   -1.17054  -1.15295  -1.14061  -1.13657  -1.13462
 Alpha  occ. eigenvalues --   -1.12801  -1.10295  -1.08715  -1.07172  -1.04809
 Alpha  occ. eigenvalues --   -1.02655  -1.01709  -0.99012  -0.98721  -0.96276
 Alpha  occ. eigenvalues --   -0.94858  -0.94370  -0.93962  -0.93631  -0.92474
 Alpha  occ. eigenvalues --   -0.90882  -0.90165  -0.89051  -0.88554  -0.86332
 Alpha  occ. eigenvalues --   -0.85929  -0.84518  -0.83608  -0.83193  -0.80828
 Alpha  occ. eigenvalues --   -0.79119  -0.78293  -0.77856  -0.77517  -0.77069
 Alpha  occ. eigenvalues --   -0.76429  -0.75720  -0.75504  -0.73822  -0.73452
 Alpha  occ. eigenvalues --   -0.72636  -0.72344  -0.72038  -0.71609  -0.70847
 Alpha  occ. eigenvalues --   -0.70718  -0.69643  -0.69498  -0.69107  -0.68252
 Alpha  occ. eigenvalues --   -0.68027  -0.67380  -0.66863  -0.66018  -0.65671
 Alpha  occ. eigenvalues --   -0.65148  -0.64737  -0.64196  -0.64179  -0.63432
 Alpha  occ. eigenvalues --   -0.63003  -0.62650  -0.62373  -0.62107  -0.62082
 Alpha  occ. eigenvalues --   -0.61452  -0.61049  -0.60677  -0.60012  -0.59520
 Alpha  occ. eigenvalues --   -0.59353  -0.59148  -0.59026  -0.58913  -0.58617
 Alpha  occ. eigenvalues --   -0.58452  -0.57925  -0.57662  -0.57350  -0.57195
 Alpha  occ. eigenvalues --   -0.57049  -0.56872  -0.56002  -0.55827  -0.55392
 Alpha  occ. eigenvalues --   -0.55045  -0.54620  -0.53869  -0.53282  -0.53151
 Alpha  occ. eigenvalues --   -0.52509  -0.52257  -0.52070  -0.52049  -0.51817
 Alpha  occ. eigenvalues --   -0.51336  -0.50843  -0.50430  -0.50127  -0.49977
 Alpha  occ. eigenvalues --   -0.49482  -0.49336  -0.48936  -0.48762  -0.48669
 Alpha  occ. eigenvalues --   -0.48553  -0.48218  -0.48016  -0.47818  -0.47533
 Alpha  occ. eigenvalues --   -0.47293  -0.47186  -0.46991  -0.46833  -0.46604
 Alpha  occ. eigenvalues --   -0.46577  -0.46412  -0.46077  -0.45720  -0.45485
 Alpha  occ. eigenvalues --   -0.45338  -0.45166  -0.44904  -0.44560  -0.44434
 Alpha  occ. eigenvalues --   -0.44363  -0.43605  -0.43016  -0.42767  -0.42527
 Alpha  occ. eigenvalues --   -0.42250  -0.41819  -0.41748  -0.39622  -0.39013
 Alpha  occ. eigenvalues --   -0.38654  -0.38228  -0.36279  -0.36095  -0.35532
 Alpha  occ. eigenvalues --   -0.33578  -0.32740  -0.32420  -0.31403  -0.27097
 Alpha  occ. eigenvalues --   -0.22279
 Alpha virt. eigenvalues --   -0.09108  -0.03198  -0.01240   0.00415   0.00668
 Alpha virt. eigenvalues --    0.01524   0.01837   0.02449   0.03990   0.04628
 Alpha virt. eigenvalues --    0.05044   0.06449   0.06801   0.07227   0.07599

 Mulliken charges:
               1
     1  Mg   0.428358
     2  C   -0.045851
     3  C   -0.065758
     4  C   -0.094396
     5  C   -0.067978
     6  N   -0.290354
     7  C    0.125003
     8  C    0.010170
     9  C    0.006911
    10  C    0.125680
    11  C   -0.054689
    12  C   -0.041625
    13  C   -0.001780
    14  C    0.471692
    15  O   -0.510984
    16  O   -0.290876
    17  N   -0.338545
    18  C    0.108023
    19  C    0.051791
    20  C   -0.065918
    21  C    0.139620
    22  C   -0.040251
    23  C    0.322155
    24  O   -0.524813
    25  C   -0.030526
    26  N   -0.247027
    27  C    0.140734
    28  C   -0.010374
    29  C   -0.005297
    30  C    0.129186
    31  C   -0.053046
    32  C   -0.039389
    33  C   -0.059851
    34  N   -0.336160
    35  C    0.102648
    36  C    0.014066
    37  C   -0.045170
    38  C    0.109762
    39  C   -0.041866
    40  C    0.337179
    41  O   -0.499014
    42  C    0.066039
    43  C    0.485438
    44  O   -0.516735
    45  O   -0.279205
    46  C    0.078027
    47  C    0.121520
    48  C   -0.088597
    49  C   -0.018093
    50  C   -0.039201
    51  C   -0.040531
    52  C   -0.044024
    53  C   -0.038553
    54  C   -0.018663
    55  C   -0.056103
    56  C   -0.039516
    57  C   -0.049103
    58  C   -0.043428
    59  C   -0.004046
    60  C   -0.056093
    61  C   -0.023752
    62  C   -0.037283
    63  C   -0.035272
    64  C   -0.018825
    65  C   -0.054793
    66  C   -0.059866
    67  H    0.025839
    68  H    0.022045
    69  H    0.039053
    70  H    0.038745
    71  H    0.032898
    72  H    0.027488
    73  H    0.024605
    74  H    0.027701
    75  H    0.028039
    76  H    0.034183
    77  H    0.042977
    78  H    0.037169
    79  H    0.042672
    80  H    0.012036
    81  H    0.042389
    82  H    0.032248
    83  H    0.024918
    84  H    0.036859
    85  H    0.051045
    86  H    0.025011
    87  H    0.010258
    88  H    0.037621
    89  H    0.034009
    90  H    0.021442
    91  H    0.014634
    92  H    0.014712
    93  H    0.025184
    94  H    0.024362
    95  H    0.028968
    96  H    0.030084
    97  H    0.038639
    98  H    0.077665
    99  H    0.034135
   100  H    0.053993
   101  H    0.026987
   102  H    0.040185
   103  H    0.060784
   104  H    0.042223
   105  H    0.032549
   106  H    0.009446
   107  H    0.035904
   108  H    0.032330
   109  H    0.022980
   110  H    0.022255
   111  H    0.027226
   112  H    0.012814
   113  H    0.022409
   114  H    0.022805
   115  H    0.018761
   116  H    0.025053
   117  H    0.026778
   118  H    0.016104
   119  H    0.017339
   120  H    0.015932
   121  H    0.013386
   122  H    0.031292
   123  H    0.020096
   124  H    0.014257
   125  H    0.016963
   126  H    0.016272
   127  H    0.014511
   128  H    0.014603
   129  H    0.013262
   130  H    0.030093
   131  H    0.013021
   132  H    0.019948
   133  H    0.017687
   134  H    0.030953
   135  H    0.014156
   136  H    0.025708
   137  H    0.009210
   138  H    0.013137
   139  H    0.022629
   140  H    0.013539
 Sum of Mulliken charges =  -0.00000

 Dipole moment (field-independent basis, Debye):
    X=              0.8450    Y=              5.9130    Z=              4.0355  Tot=              7.2085
 N-N= 4.340958742095D+03 E-N= 0.000000000000D+00  KE=-9.355203850965D+03
 Leave Link  601 at Wed May  4 09:27:41 2022, MaxMem=  6710886400 cpu:               0.8 elap:               0.0
 (Enter /sw/apps/gaussian-16.0/g16/l9999.exe)
 1\1\GINC-BP1-COMPUTE057\SP\RZINDO CIS\STO-3G\C55H74Mg1N4O6\OF15641\04-
 May-2022\0\\#p ZINDO=(nstates=5)\\step_151_chromophore_2 ZINDO\\0,1\Mg
 ,0,2.726,0.711,43.525\C,0,5.891,2.446,43.345\C,0,1.321,3.584,42.154\C,
 0,-0.094,-0.909,43.059\C,0,4.563,-2.179,44.217\N,0,3.58,2.664,42.61\C,
 0,4.865,3.125,42.69\C,0,4.968,4.574,42.246\C,0,3.488,5.01,42.113\C,0,2
 .733,3.692,42.213\C,0,3.008,6.086,43.194\C,0,5.875,4.76,40.944\C,0,6.0
 66,3.571,39.887\C,0,6.192,3.89,38.373\O,0,6.308,4.998,37.905\O,0,6.229

 Normal termination of Gaussian 16 at Wed May  4 09:27:41 2022.
