 Gaussian 16, Revision A.03,
 Gaussian 16:  ES64L-G16RevA.03 25-Dec-2016

 ------------------------------
 #p blyp/Def2SVP td=(nstates=5)
 ------------------------------

 --------------------------------------------------
 step_851_chromophore_13 TDDFT with blyp functional
 --------------------------------------------------
 Symbolic Z-matrix:
 Charge =  0 Multiplicity = 1

                         Standard orientation:
 ---------------------------------------------------------------------
 Center     Atomic      Atomic             Coordinates (Angstroms)
 Number     Number       Type             X           Y           Z
 ---------------------------------------------------------------------
      1         12           0       -5.865219    0.291555   -0.237680
      2          6           0       -3.335740   -2.168319    0.264205
      3          6           0       -3.510578    2.744625    0.703132
      4          6           0       -8.315607    2.574370    0.029611
      5          6           0       -8.059817   -2.232902   -1.074620
      6          7           0       -3.603584    0.275847    0.260386
      7          6           0       -2.823917   -0.866282    0.434502
      8          6           0       -1.393673   -0.520190    0.912486
      9          6           0       -1.568748    1.042219    1.173907
     10          6           0       -2.988193    1.425725    0.700299
     11          6           0       -1.408463    1.463783    2.684486
     12          6           0       -0.366762   -0.791174   -0.237289
     13          6           0        0.737476   -1.837034   -0.069389
     14          6           0        1.909134   -1.863203   -1.071195
     15          8           0        1.926861   -1.246609   -2.084112
     16          8           0        3.032856   -2.416899   -0.504667
     17          7           0       -5.878278    2.347306    0.270522
     18          6           0       -4.848443    3.231066    0.511078
     19          6           0       -5.346252    4.613431    0.729054
     20          6           0       -6.775370    4.524853    0.748610
     21          6           0       -7.015552    3.088219    0.358484
     22          6           0       -4.403535    5.782395    0.974176
     23          6           0       -7.765061    5.566368    1.107686
     24          8           0       -8.953702    5.301716    1.190563
     25          6           0       -7.417731    7.042670    1.427530
     26          7           0       -7.930925    0.074914   -0.366587
     27          6           0       -8.659325    1.230750   -0.321986
     28          6           0      -10.091044    0.888465   -0.617325
     29          6           0      -10.043699   -0.558051   -1.153561
     30          6           0       -8.611562   -0.978129   -0.914275
     31          6           0      -11.115559    1.023691    0.514843
     32          6           0      -10.365344   -0.721284   -2.684886
     33          6           0       -9.520492    0.045948   -3.740577
     34          7           0       -5.796990   -1.793297   -0.446351
     35          6           0       -6.774555   -2.655663   -0.774948
     36          6           0       -6.286415   -4.024094   -0.644747
     37          6           0       -4.952879   -3.932981   -0.199155
     38          6           0       -4.708854   -2.495559   -0.109925
     39          6           0       -7.113978   -5.221669   -0.974433
     40          6           0       -3.683551   -4.648526    0.107825
     41          8           0       -3.379341   -5.834282    0.133042
     42          6           0       -2.667810   -3.520090    0.445925
     43          6           0       -2.127003   -3.851644    1.785023
     44          8           0       -2.675407   -3.492507    2.808382
     45          8           0       -0.876493   -4.398559    1.690452
     46          6           0       -0.015419   -4.548074    2.951298
     47          6           0        4.307539   -2.300240   -1.108344
     48          6           0        5.117174   -1.266172   -0.327665
     49          6           0        6.440838   -0.903563   -0.352032
     50          6           0        7.408876   -1.740790   -1.261275
     51          6           0        7.071000    0.166758    0.505107
     52          6           0        7.329277    1.426328   -0.277768
     53          6           0        8.815559    1.900120   -0.155617
     54          6           0        9.235934    2.672585   -1.422463
     55          6           0        8.384500    3.895799   -1.829612
     56          6           0        9.302618    1.699996   -2.644459
     57          6           0       10.761348    1.705609   -3.106516
     58          6           0       11.590962    0.535707   -2.574004
     59          6           0       12.720369    1.022473   -1.702511
     60          6           0       13.966570    1.390469   -2.502319
     61          6           0       13.022423   -0.098862   -0.621041
     62          6           0       13.480373    0.583634    0.660691
     63          6           0       13.580715   -0.443791    1.848119
     64          6           0       12.584603    0.028682    2.975921
     65          6           0       13.056398   -0.046078    4.426495
     66          6           0       11.136455   -0.512096    2.623527
     67          1           0       -2.806629    3.543837    0.945225
     68          1           0       -9.183439    3.216536    0.193356
     69          1           0       -8.802292   -2.971464   -1.382435
     70          1           0       -1.069805   -1.126818    1.758687
     71          1           0       -0.741621    1.604563    0.740349
     72          1           0       -2.397849    1.525658    3.139139
     73          1           0       -0.801798    2.350134    2.869336
     74          1           0       -0.936855    0.629374    3.204113
     75          1           0        0.165710    0.118295   -0.517851
     76          1           0       -0.776942   -0.998129   -1.225333
     77          1           0        0.176799   -2.770182   -0.016128
     78          1           0        1.257163   -1.645718    0.869670
     79          1           0       -3.417322    5.582089    0.554706
     80          1           0       -4.240305    6.044391    2.019632
     81          1           0       -4.818863    6.698761    0.554934
     82          1           0       -7.182204    7.577734    0.507207
     83          1           0       -6.517309    6.985604    2.038605
     84          1           0       -8.292755    7.555835    1.824976
     85          1           0      -10.254655    1.689374   -1.337505
     86          1           0      -10.755916   -1.173790   -0.604977
     87          1           0      -11.875974    0.245405    0.574214
     88          1           0      -11.555571    1.977624    0.222934
     89          1           0      -10.815625    1.152988    1.555387
     90          1           0      -11.420787   -0.497163   -2.839911
     91          1           0      -10.188741   -1.757958   -2.973631
     92          1           0       -9.038044   -0.645502   -4.432521
     93          1           0       -8.808193    0.675650   -3.207551
     94          1           0      -10.149761    0.709771   -4.333152
     95          1           0       -8.116798   -5.059085   -1.370210
     96          1           0       -7.274032   -5.702868   -0.010252
     97          1           0       -6.512605   -5.889015   -1.591085
     98          1           0       -1.719085   -3.444939   -0.086417
     99          1           0       -0.527802   -4.045937    3.770923
    100          1           0        1.014331   -4.202103    3.035544
    101          1           0        0.171457   -5.559805    3.310564
    102          1           0        4.207309   -1.964118   -2.140591
    103          1           0        4.798721   -3.272126   -1.153635
    104          1           0        4.518492   -0.605773    0.300323
    105          1           0        7.611324   -1.288130   -2.231483
    106          1           0        7.165776   -2.787888   -1.443736
    107          1           0        8.374270   -1.730652   -0.754642
    108          1           0        7.936220   -0.156704    1.083014
    109          1           0        6.364453    0.334485    1.317780
    110          1           0        6.726089    2.264135    0.071155
    111          1           0        7.062179    1.406273   -1.334493
    112          1           0        9.494799    1.104606    0.148371
    113          1           0        8.909775    2.687135    0.593703
    114          1           0       10.235581    3.067293   -1.240158
    115          1           0        8.111102    3.990458   -2.880171
    116          1           0        8.782358    4.863238   -1.524686
    117          1           0        7.440976    3.718629   -1.313213
    118          1           0        8.760099    2.091375   -3.504696
    119          1           0        8.906505    0.696786   -2.483352
    120          1           0       11.154033    2.710780   -2.952261
    121          1           0       10.731414    1.555462   -4.185989
    122          1           0       11.999824   -0.142655   -3.323209
    123          1           0       11.026083    0.000263   -1.810929
    124          1           0       12.320373    1.876698   -1.156214
    125          1           0       14.534236    0.593642   -2.983545
    126          1           0       14.517424    2.123279   -1.914010
    127          1           0       13.715295    2.015322   -3.360227
    128          1           0       13.882741   -0.689001   -0.938313
    129          1           0       12.291315   -0.876814   -0.399575
    130          1           0       12.752421    1.364570    0.880163
    131          1           0       14.508478    0.918775    0.518852
    132          1           0       14.627075   -0.339210    2.137939
    133          1           0       13.473724   -1.475789    1.515221
    134          1           0       12.426266    1.091556    2.794899
    135          1           0       14.019903   -0.547747    4.510698
    136          1           0       12.375992   -0.595132    5.077207
    137          1           0       13.006548    0.930832    4.905240
    138          1           0       10.609348   -0.868189    3.508549
    139          1           0       11.203850   -1.339110    1.916490
    140          1           0       10.609375    0.323736    2.165574
 ---------------------------------------------------------------------

 SCF Done:  E(RB-LYP) =  -3007.34848570     A.U. after   21 cycles

 Excitation energies and oscillator strengths:

 Excited State   1:      Singlet-A      1.7548 eV  706.56 nm  f=0.2865  <S**2>=0.000
     245 -> 248       -0.17306
     246 -> 247        0.68353
     246 <- 247       -0.14966
 This state for optimization and/or second-order correction.
 Total Energy, E(TD-HF/TD-DFT) =  -3007.28399980
 Copying the excited state density for this state as the 1-particle RhoCI density.

 Excited State   2:      Singlet-A      1.9393 eV  639.33 nm  f=0.0536  <S**2>=0.000
     243 -> 247       -0.12289
     244 -> 247        0.47841
     245 -> 247        0.46433
     246 -> 248        0.14758

 Excited State   3:      Singlet-A      1.9711 eV  629.00 nm  f=0.0315  <S**2>=0.000
     243 -> 247        0.16665
     244 -> 247        0.51497
     245 -> 247       -0.41976
     246 -> 248       -0.14492

 Excited State   4:      Singlet-A      2.1374 eV  580.06 nm  f=0.0105  <S**2>=0.000
     243 -> 247        0.66972
     245 -> 247        0.17186
     246 -> 248        0.11032

 Excited State   5:      Singlet-A      2.3321 eV  531.64 nm  f=0.0000  <S**2>=0.000
     242 -> 247        0.70710

 The electronic state is 1-A.
 Alpha  occ. eigenvalues --  -46.27846 -18.82916 -18.81688 -18.77271 -18.76494
 Alpha  occ. eigenvalues --  -18.76027 -18.75438 -14.03521 -14.02847 -14.01986
 Alpha  occ. eigenvalues --  -14.00938 -10.04470 -10.03974 -10.00408 -10.00023
 Alpha  occ. eigenvalues --   -9.98351  -9.98307  -9.97205  -9.97000  -9.96645
 Alpha  occ. eigenvalues --   -9.96434  -9.96356  -9.96058  -9.95081  -9.95075
 Alpha  occ. eigenvalues --   -9.95058  -9.95008  -9.94432  -9.94150  -9.93806
 Alpha  occ. eigenvalues --   -9.93762  -9.93672  -9.93640  -9.93603  -9.93478
 Alpha  occ. eigenvalues --   -9.93442  -9.93441  -9.93046  -9.92661  -9.92630
 Alpha  occ. eigenvalues --   -9.92429  -9.92361  -9.92321  -9.92289  -9.92203
 Alpha  occ. eigenvalues --   -9.92198  -9.92071  -9.92067  -9.91998  -9.91870
 Alpha  occ. eigenvalues --   -9.91851  -9.91802  -9.91733  -9.91686  -9.91591
 Alpha  occ. eigenvalues --   -9.91425  -9.91186  -9.91075  -9.90957  -9.90797
 Alpha  occ. eigenvalues --   -9.90783  -9.90779  -9.90449  -9.90444  -9.90408
 Alpha  occ. eigenvalues --   -9.90157  -2.92343  -1.72784  -1.72205  -1.72064
 Alpha  occ. eigenvalues --   -0.99120  -0.97272  -0.91872  -0.91716  -0.91393
 Alpha  occ. eigenvalues --   -0.89670  -0.86795  -0.85866  -0.85426  -0.84387
 Alpha  occ. eigenvalues --   -0.75054  -0.73956  -0.73029  -0.72357  -0.71833
 Alpha  occ. eigenvalues --   -0.71822  -0.71740  -0.70774  -0.70692  -0.70431
 Alpha  occ. eigenvalues --   -0.69860  -0.69129  -0.68027  -0.67652  -0.67064
 Alpha  occ. eigenvalues --   -0.66451  -0.65636  -0.65104  -0.64977  -0.64309
 Alpha  occ. eigenvalues --   -0.63860  -0.62942  -0.62128  -0.62033  -0.61154
 Alpha  occ. eigenvalues --   -0.60656  -0.60433  -0.59906  -0.59779  -0.58778
 Alpha  occ. eigenvalues --   -0.58526  -0.57717  -0.56819  -0.55442  -0.55060
 Alpha  occ. eigenvalues --   -0.54427  -0.53957  -0.53418  -0.52882  -0.51504
 Alpha  occ. eigenvalues --   -0.51179  -0.50977  -0.50520  -0.50087  -0.49723
 Alpha  occ. eigenvalues --   -0.49591  -0.48927  -0.48738  -0.48190  -0.46888
 Alpha  occ. eigenvalues --   -0.46819  -0.46185  -0.45835  -0.45295  -0.44509
 Alpha  occ. eigenvalues --   -0.44184  -0.43479  -0.42923  -0.42713  -0.42543
 Alpha  occ. eigenvalues --   -0.42128  -0.42106  -0.41643  -0.41407  -0.41337
 Alpha  occ. eigenvalues --   -0.40935  -0.40689  -0.40372  -0.40215  -0.40127
 Alpha  occ. eigenvalues --   -0.39767  -0.39746  -0.39472  -0.39232  -0.39116
 Alpha  occ. eigenvalues --   -0.38850  -0.38733  -0.38387  -0.38248  -0.38108
 Alpha  occ. eigenvalues --   -0.37873  -0.37731  -0.37391  -0.37184  -0.37094
 Alpha  occ. eigenvalues --   -0.36966  -0.36784  -0.36718  -0.36543  -0.36406
 Alpha  occ. eigenvalues --   -0.36209  -0.36176  -0.36028  -0.35952  -0.35807
 Alpha  occ. eigenvalues --   -0.35726  -0.35359  -0.35290  -0.35068  -0.34927
 Alpha  occ. eigenvalues --   -0.34574  -0.34432  -0.34396  -0.34190  -0.34118
 Alpha  occ. eigenvalues --   -0.33969  -0.33637  -0.33591  -0.33437  -0.33337
 Alpha  occ. eigenvalues --   -0.32924  -0.32761  -0.32746  -0.32384  -0.32253
 Alpha  occ. eigenvalues --   -0.32224  -0.31776  -0.31754  -0.31570  -0.31498
 Alpha  occ. eigenvalues --   -0.31271  -0.31167  -0.30939  -0.30708  -0.30589
 Alpha  occ. eigenvalues --   -0.30404  -0.30265  -0.30090  -0.29868  -0.29794
 Alpha  occ. eigenvalues --   -0.29683  -0.29418  -0.29354  -0.29302  -0.29144
 Alpha  occ. eigenvalues --   -0.28939  -0.28498  -0.28171  -0.28016  -0.27553
 Alpha  occ. eigenvalues --   -0.27498  -0.27391  -0.27074  -0.26822  -0.26566
 Alpha  occ. eigenvalues --   -0.26403  -0.25968  -0.25831  -0.25440  -0.25234
 Alpha  occ. eigenvalues --   -0.24888  -0.24711  -0.23680  -0.23146  -0.23099
 Alpha  occ. eigenvalues --   -0.22655  -0.22488  -0.22184  -0.21616  -0.21123
 Alpha  occ. eigenvalues --   -0.20664  -0.20099  -0.19197  -0.18608  -0.17165
 Alpha  occ. eigenvalues --   -0.15661
 Alpha virt. eigenvalues --   -0.11529  -0.06957  -0.06429  -0.04935  -0.02905
 Alpha virt. eigenvalues --   -0.02687  -0.01952  -0.01716  -0.01359  -0.00039
 Alpha virt. eigenvalues --    0.00946   0.01484   0.01632   0.02206   0.02519

 Mulliken charges:
               1
     1  Mg   0.692823
     2  C    0.088834
     3  C   -0.050186
     4  C   -0.058097
     5  C   -0.090599
     6  N   -0.208595
     7  C   -0.076079
     8  C    0.048896
     9  C   -0.016627
    10  C    0.079404
    11  C    0.100755
    12  C    0.085713
    13  C    0.059246
    14  C    0.086187
    15  O   -0.146059
    16  O   -0.265468
    17  N   -0.266661
    18  C    0.092849
    19  C   -0.128655
    20  C    0.060889
    21  C    0.104684
    22  C    0.143656
    23  C   -0.102921
    24  O   -0.165643
    25  C    0.128658
    26  N   -0.259115
    27  C    0.037068
    28  C    0.014105
    29  C    0.091770
    30  C    0.002182
    31  C    0.118441
    32  C    0.051387
    33  C    0.056543
    34  N   -0.212190
    35  C    0.147237
    36  C   -0.192492
    37  C    0.067874
    38  C    0.004051
    39  C    0.180366
    40  C    0.011784
    41  O   -0.123313
    42  C    0.048625
    43  C    0.099402
    44  O   -0.172481
    45  O   -0.280963
    46  C    0.205911
    47  C    0.329525
    48  C   -0.108995
    49  C   -0.154454
    50  C    0.095670
    51  C    0.185755
    52  C    0.057215
    53  C    0.075657
    54  C   -0.084433
    55  C    0.105528
    56  C    0.095997
    57  C    0.085542
    58  C    0.135061
    59  C   -0.084934
    60  C    0.133856
    61  C    0.070394
    62  C    0.033848
    63  C    0.115195
    64  C   -0.105740
    65  C    0.134680
    66  C    0.073478
    67  H   -0.069194
    68  H   -0.037787
    69  H   -0.069996
    70  H   -0.004193
    71  H   -0.019372
    72  H   -0.001334
    73  H   -0.001311
    74  H   -0.021077
    75  H   -0.035498
    76  H   -0.013794
    77  H    0.020061
    78  H   -0.003462
    79  H    0.001740
    80  H    0.012346
    81  H   -0.004721
    82  H    0.010329
    83  H   -0.002436
    84  H   -0.000574
    85  H   -0.020316
    86  H   -0.031046
    87  H   -0.009602
    88  H   -0.002990
    89  H   -0.000141
    90  H   -0.020655
    91  H   -0.024641
    92  H   -0.000865
    93  H    0.002298
    94  H   -0.010687
    95  H   -0.016606
    96  H    0.004257
    97  H    0.013886
    98  H   -0.011946
    99  H    0.015660
   100  H    0.016205
   101  H    0.016190
   102  H    0.003362
   103  H   -0.000643
   104  H   -0.044335
   105  H    0.019391
   106  H   -0.011269
   107  H   -0.018262
   108  H   -0.017233
   109  H   -0.047512
   110  H   -0.020431
   111  H   -0.008847
   112  H   -0.004540
   113  H   -0.039236
   114  H   -0.035599
   115  H   -0.012779
   116  H   -0.016803
   117  H   -0.032760
   118  H   -0.044781
   119  H   -0.033403
   120  H   -0.027273
   121  H   -0.055580
   122  H   -0.035076
   123  H   -0.042492
   124  H   -0.039067
   125  H   -0.008361
   126  H   -0.023490
   127  H   -0.039717
   128  H   -0.048314
   129  H   -0.031558
   130  H   -0.019299
   131  H   -0.023953
   132  H   -0.048920
   133  H   -0.026277
   134  H   -0.033006
   135  H   -0.010709
   136  H   -0.037176
   137  H   -0.018521
   138  H   -0.018524
   139  H   -0.007852
   140  H    0.000070
 Sum of Mulliken charges =  -0.00000

 Dipole moment (field-independent basis, Debye):
    X=              2.7013    Y=              3.5022    Z=             -0.1987  Tot=              4.4274
 Quadrupole moment (field-independent basis, Debye-Ang):
   XX=           -381.6829   YY=           -415.4831   ZZ=           -408.1077
   XY=              3.1168   XZ=             22.9874   YZ=              2.3326

 Normal termination of Gaussian 16 at Thu May  5 11:40:25 2022.
