 Gaussian 16, Revision A.03,
 Gaussian 16:  ES64L-G16RevA.03 25-Dec-2016

 -----------------------------------
 #p cam-b3lyp/Def2SVP td=(nstates=5)
 -----------------------------------

 -------------------------------------------------------
 step_851_chromophore_13 TDDFT with cam-b3lyp functional
 -------------------------------------------------------
 Symbolic Z-matrix:
 Charge =  0 Multiplicity = 1

                         Standard orientation:
 ---------------------------------------------------------------------
 Center     Atomic      Atomic             Coordinates (Angstroms)
 Number     Number       Type             X           Y           Z
 ---------------------------------------------------------------------
      1         12           0       -5.865219    0.291555   -0.237680
      2          6           0       -3.335740   -2.168319    0.264205
      3          6           0       -3.510578    2.744625    0.703132
      4          6           0       -8.315607    2.574370    0.029611
      5          6           0       -8.059817   -2.232902   -1.074620
      6          7           0       -3.603584    0.275847    0.260386
      7          6           0       -2.823917   -0.866282    0.434502
      8          6           0       -1.393673   -0.520190    0.912486
      9          6           0       -1.568748    1.042219    1.173907
     10          6           0       -2.988193    1.425725    0.700299
     11          6           0       -1.408463    1.463783    2.684486
     12          6           0       -0.366762   -0.791174   -0.237289
     13          6           0        0.737476   -1.837034   -0.069389
     14          6           0        1.909134   -1.863203   -1.071195
     15          8           0        1.926861   -1.246609   -2.084112
     16          8           0        3.032856   -2.416899   -0.504667
     17          7           0       -5.878278    2.347306    0.270522
     18          6           0       -4.848443    3.231066    0.511078
     19          6           0       -5.346252    4.613431    0.729054
     20          6           0       -6.775370    4.524853    0.748610
     21          6           0       -7.015552    3.088219    0.358484
     22          6           0       -4.403535    5.782395    0.974176
     23          6           0       -7.765061    5.566368    1.107686
     24          8           0       -8.953702    5.301716    1.190563
     25          6           0       -7.417731    7.042670    1.427530
     26          7           0       -7.930925    0.074914   -0.366587
     27          6           0       -8.659325    1.230750   -0.321986
     28          6           0      -10.091044    0.888465   -0.617325
     29          6           0      -10.043699   -0.558051   -1.153561
     30          6           0       -8.611562   -0.978129   -0.914275
     31          6           0      -11.115559    1.023691    0.514843
     32          6           0      -10.365344   -0.721284   -2.684886
     33          6           0       -9.520492    0.045948   -3.740577
     34          7           0       -5.796990   -1.793297   -0.446351
     35          6           0       -6.774555   -2.655663   -0.774948
     36          6           0       -6.286415   -4.024094   -0.644747
     37          6           0       -4.952879   -3.932981   -0.199155
     38          6           0       -4.708854   -2.495559   -0.109925
     39          6           0       -7.113978   -5.221669   -0.974433
     40          6           0       -3.683551   -4.648526    0.107825
     41          8           0       -3.379341   -5.834282    0.133042
     42          6           0       -2.667810   -3.520090    0.445925
     43          6           0       -2.127003   -3.851644    1.785023
     44          8           0       -2.675407   -3.492507    2.808382
     45          8           0       -0.876493   -4.398559    1.690452
     46          6           0       -0.015419   -4.548074    2.951298
     47          6           0        4.307539   -2.300240   -1.108344
     48          6           0        5.117174   -1.266172   -0.327665
     49          6           0        6.440838   -0.903563   -0.352032
     50          6           0        7.408876   -1.740790   -1.261275
     51          6           0        7.071000    0.166758    0.505107
     52          6           0        7.329277    1.426328   -0.277768
     53          6           0        8.815559    1.900120   -0.155617
     54          6           0        9.235934    2.672585   -1.422463
     55          6           0        8.384500    3.895799   -1.829612
     56          6           0        9.302618    1.699996   -2.644459
     57          6           0       10.761348    1.705609   -3.106516
     58          6           0       11.590962    0.535707   -2.574004
     59          6           0       12.720369    1.022473   -1.702511
     60          6           0       13.966570    1.390469   -2.502319
     61          6           0       13.022423   -0.098862   -0.621041
     62          6           0       13.480373    0.583634    0.660691
     63          6           0       13.580715   -0.443791    1.848119
     64          6           0       12.584603    0.028682    2.975921
     65          6           0       13.056398   -0.046078    4.426495
     66          6           0       11.136455   -0.512096    2.623527
     67          1           0       -2.806629    3.543837    0.945225
     68          1           0       -9.183439    3.216536    0.193356
     69          1           0       -8.802292   -2.971464   -1.382435
     70          1           0       -1.069805   -1.126818    1.758687
     71          1           0       -0.741621    1.604563    0.740349
     72          1           0       -2.397849    1.525658    3.139139
     73          1           0       -0.801798    2.350134    2.869336
     74          1           0       -0.936855    0.629374    3.204113
     75          1           0        0.165710    0.118295   -0.517851
     76          1           0       -0.776942   -0.998129   -1.225333
     77          1           0        0.176799   -2.770182   -0.016128
     78          1           0        1.257163   -1.645718    0.869670
     79          1           0       -3.417322    5.582089    0.554706
     80          1           0       -4.240305    6.044391    2.019632
     81          1           0       -4.818863    6.698761    0.554934
     82          1           0       -7.182204    7.577734    0.507207
     83          1           0       -6.517309    6.985604    2.038605
     84          1           0       -8.292755    7.555835    1.824976
     85          1           0      -10.254655    1.689374   -1.337505
     86          1           0      -10.755916   -1.173790   -0.604977
     87          1           0      -11.875974    0.245405    0.574214
     88          1           0      -11.555571    1.977624    0.222934
     89          1           0      -10.815625    1.152988    1.555387
     90          1           0      -11.420787   -0.497163   -2.839911
     91          1           0      -10.188741   -1.757958   -2.973631
     92          1           0       -9.038044   -0.645502   -4.432521
     93          1           0       -8.808193    0.675650   -3.207551
     94          1           0      -10.149761    0.709771   -4.333152
     95          1           0       -8.116798   -5.059085   -1.370210
     96          1           0       -7.274032   -5.702868   -0.010252
     97          1           0       -6.512605   -5.889015   -1.591085
     98          1           0       -1.719085   -3.444939   -0.086417
     99          1           0       -0.527802   -4.045937    3.770923
    100          1           0        1.014331   -4.202103    3.035544
    101          1           0        0.171457   -5.559805    3.310564
    102          1           0        4.207309   -1.964118   -2.140591
    103          1           0        4.798721   -3.272126   -1.153635
    104          1           0        4.518492   -0.605773    0.300323
    105          1           0        7.611324   -1.288130   -2.231483
    106          1           0        7.165776   -2.787888   -1.443736
    107          1           0        8.374270   -1.730652   -0.754642
    108          1           0        7.936220   -0.156704    1.083014
    109          1           0        6.364453    0.334485    1.317780
    110          1           0        6.726089    2.264135    0.071155
    111          1           0        7.062179    1.406273   -1.334493
    112          1           0        9.494799    1.104606    0.148371
    113          1           0        8.909775    2.687135    0.593703
    114          1           0       10.235581    3.067293   -1.240158
    115          1           0        8.111102    3.990458   -2.880171
    116          1           0        8.782358    4.863238   -1.524686
    117          1           0        7.440976    3.718629   -1.313213
    118          1           0        8.760099    2.091375   -3.504696
    119          1           0        8.906505    0.696786   -2.483352
    120          1           0       11.154033    2.710780   -2.952261
    121          1           0       10.731414    1.555462   -4.185989
    122          1           0       11.999824   -0.142655   -3.323209
    123          1           0       11.026083    0.000263   -1.810929
    124          1           0       12.320373    1.876698   -1.156214
    125          1           0       14.534236    0.593642   -2.983545
    126          1           0       14.517424    2.123279   -1.914010
    127          1           0       13.715295    2.015322   -3.360227
    128          1           0       13.882741   -0.689001   -0.938313
    129          1           0       12.291315   -0.876814   -0.399575
    130          1           0       12.752421    1.364570    0.880163
    131          1           0       14.508478    0.918775    0.518852
    132          1           0       14.627075   -0.339210    2.137939
    133          1           0       13.473724   -1.475789    1.515221
    134          1           0       12.426266    1.091556    2.794899
    135          1           0       14.019903   -0.547747    4.510698
    136          1           0       12.375992   -0.595132    5.077207
    137          1           0       13.006548    0.930832    4.905240
    138          1           0       10.609348   -0.868189    3.508549
    139          1           0       11.203850   -1.339110    1.916490
    140          1           0       10.609375    0.323736    2.165574
 ---------------------------------------------------------------------

 SCF Done:  E(RCAM-B3LYP) =  -3007.13900791     A.U. after   18 cycles

 Excitation energies and oscillator strengths:

 Excited State   1:      Singlet-A      1.6705 eV  742.19 nm  f=0.3828  <S**2>=0.000
     245 -> 248        0.17838
     246 -> 247        0.68628
     245 <- 248        0.10816
 This state for optimization and/or second-order correction.
 Total Energy, E(TD-HF/TD-DFT) =  -3007.07761730
 Copying the excited state density for this state as the 1-particle RhoCI density.

 Excited State   2:      Singlet-A      2.2098 eV  561.07 nm  f=0.0971  <S**2>=0.000
     245 -> 247        0.63419
     246 -> 248       -0.30331

 Excited State   3:      Singlet-A      3.4601 eV  358.33 nm  f=0.6516  <S**2>=0.000
     240 -> 247        0.12518
     245 -> 247        0.28472
     246 -> 248        0.61231
     245 <- 247       -0.10957

 Excited State   4:      Singlet-A      3.5316 eV  351.07 nm  f=0.0154  <S**2>=0.000
     240 -> 247        0.34987
     240 -> 248       -0.10116
     240 -> 249        0.23015
     240 -> 250       -0.14586
     241 -> 247        0.40823
     241 -> 249        0.21703
     241 -> 250       -0.13455

 Excited State   5:      Singlet-A      3.5642 eV  347.86 nm  f=0.0014  <S**2>=0.000
     239 -> 247       -0.12046
     242 -> 247       -0.28969
     243 -> 247        0.59944

 The electronic state is 1-A.
 Alpha  occ. eigenvalues --  -46.89390 -19.25812 -19.24498 -19.20271 -19.19446
 Alpha  occ. eigenvalues --  -19.19135 -19.18929 -14.42440 -14.41566 -14.40630
 Alpha  occ. eigenvalues --  -14.39200 -10.39705 -10.39254 -10.35661 -10.35461
 Alpha  occ. eigenvalues --  -10.32507 -10.32256 -10.31890 -10.31433 -10.31315
 Alpha  occ. eigenvalues --  -10.31166 -10.30967 -10.30206 -10.30132 -10.29120
 Alpha  occ. eigenvalues --  -10.29063 -10.28852 -10.28493 -10.28384 -10.28358
 Alpha  occ. eigenvalues --  -10.27986 -10.27974 -10.27769 -10.27764 -10.27599
 Alpha  occ. eigenvalues --  -10.27400 -10.27390 -10.26863 -10.26662 -10.26529
 Alpha  occ. eigenvalues --  -10.26454 -10.26260 -10.26203 -10.25979 -10.25972
 Alpha  occ. eigenvalues --  -10.25952 -10.25828 -10.25764 -10.25640 -10.25623
 Alpha  occ. eigenvalues --  -10.25576 -10.25415 -10.25399 -10.25344 -10.25295
 Alpha  occ. eigenvalues --  -10.25158 -10.24848 -10.24785 -10.24578 -10.24465
 Alpha  occ. eigenvalues --  -10.24384 -10.24360 -10.24138 -10.24100 -10.24035
 Alpha  occ. eigenvalues --  -10.23774  -3.17786  -1.92705  -1.92222  -1.92097
 Alpha  occ. eigenvalues --   -1.17635  -1.15722  -1.10555  -1.09692  -1.09617
 Alpha  occ. eigenvalues --   -1.07476  -1.04290  -1.03534  -1.03020  -1.01941
 Alpha  occ. eigenvalues --   -0.92054  -0.90855  -0.89839  -0.89065  -0.88531
 Alpha  occ. eigenvalues --   -0.88438  -0.88340  -0.87645  -0.87267  -0.87001
 Alpha  occ. eigenvalues --   -0.86221  -0.85434  -0.84272  -0.83719  -0.83191
 Alpha  occ. eigenvalues --   -0.82477  -0.81631  -0.81174  -0.80792  -0.80276
 Alpha  occ. eigenvalues --   -0.79591  -0.78874  -0.77622  -0.77502  -0.76503
 Alpha  occ. eigenvalues --   -0.76036  -0.75817  -0.75134  -0.75089  -0.73931
 Alpha  occ. eigenvalues --   -0.73654  -0.72628  -0.71723  -0.70226  -0.69569
 Alpha  occ. eigenvalues --   -0.69142  -0.68457  -0.67978  -0.67402  -0.65616
 Alpha  occ. eigenvalues --   -0.65115  -0.64898  -0.64694  -0.63990  -0.63781
 Alpha  occ. eigenvalues --   -0.63288  -0.62831  -0.62229  -0.62004  -0.60546
 Alpha  occ. eigenvalues --   -0.60462  -0.59694  -0.59389  -0.58574  -0.58003
 Alpha  occ. eigenvalues --   -0.57533  -0.57023  -0.56156  -0.55841  -0.55575
 Alpha  occ. eigenvalues --   -0.55092  -0.54967  -0.54886  -0.54740  -0.54279
 Alpha  occ. eigenvalues --   -0.54062  -0.53480  -0.53156  -0.52985  -0.52881
 Alpha  occ. eigenvalues --   -0.52703  -0.52412  -0.52039  -0.51895  -0.51692
 Alpha  occ. eigenvalues --   -0.51436  -0.51313  -0.50859  -0.50795  -0.50538
 Alpha  occ. eigenvalues --   -0.50364  -0.50249  -0.49648  -0.49596  -0.49462
 Alpha  occ. eigenvalues --   -0.49269  -0.49213  -0.49096  -0.48897  -0.48829
 Alpha  occ. eigenvalues --   -0.48492  -0.48340  -0.48186  -0.48120  -0.48036
 Alpha  occ. eigenvalues --   -0.47783  -0.47398  -0.47242  -0.47145  -0.46694
 Alpha  occ. eigenvalues --   -0.46421  -0.46289  -0.46140  -0.45915  -0.45792
 Alpha  occ. eigenvalues --   -0.45685  -0.45633  -0.45391  -0.45167  -0.45121
 Alpha  occ. eigenvalues --   -0.44798  -0.44578  -0.44290  -0.44003  -0.43917
 Alpha  occ. eigenvalues --   -0.43792  -0.43569  -0.43181  -0.42953  -0.42914
 Alpha  occ. eigenvalues --   -0.42735  -0.42656  -0.42346  -0.42302  -0.41966
 Alpha  occ. eigenvalues --   -0.41833  -0.41466  -0.41421  -0.41202  -0.41037
 Alpha  occ. eigenvalues --   -0.40979  -0.40943  -0.40852  -0.40765  -0.40269
 Alpha  occ. eigenvalues --   -0.40198  -0.39450  -0.39149  -0.38937  -0.38569
 Alpha  occ. eigenvalues --   -0.38286  -0.38270  -0.38045  -0.37889  -0.37353
 Alpha  occ. eigenvalues --   -0.37181  -0.36919  -0.36576  -0.36442  -0.36379
 Alpha  occ. eigenvalues --   -0.35929  -0.35310  -0.34564  -0.34173  -0.33792
 Alpha  occ. eigenvalues --   -0.33558  -0.32994  -0.32816  -0.31584  -0.31203
 Alpha  occ. eigenvalues --   -0.31111  -0.30370  -0.29760  -0.29658  -0.23937
 Alpha  occ. eigenvalues --   -0.20848
 Alpha virt. eigenvalues --   -0.08601  -0.01723  -0.00065   0.01968   0.02998
 Alpha virt. eigenvalues --    0.05067   0.05169   0.05672   0.06010   0.06434
 Alpha virt. eigenvalues --    0.07565   0.07674   0.08366   0.08933   0.09049

 Mulliken charges:
               1
     1  Mg   0.824192
     2  C    0.063452
     3  C   -0.064845
     4  C   -0.076026
     5  C   -0.094359
     6  N   -0.276450
     7  C   -0.033620
     8  C   -0.002197
     9  C   -0.066885
    10  C    0.093208
    11  C    0.043883
    12  C    0.036847
    13  C   -0.005764
    14  C    0.170984
    15  O   -0.185883
    16  O   -0.331170
    17  N   -0.353028
    18  C    0.103612
    19  C   -0.130154
    20  C   -0.008005
    21  C    0.133374
    22  C    0.086425
    23  C   -0.029650
    24  O   -0.205467
    25  C    0.057110
    26  N   -0.332275
    27  C    0.061283
    28  C   -0.045595
    29  C    0.028913
    30  C    0.017397
    31  C    0.059606
    32  C    0.004077
    33  C   -0.003729
    34  N   -0.302006
    35  C    0.147158
    36  C   -0.192000
    37  C   -0.008577
    38  C    0.040071
    39  C    0.128726
    40  C    0.107777
    41  O   -0.162678
    42  C   -0.024375
    43  C    0.184548
    44  O   -0.210164
    45  O   -0.348049
    46  C    0.172641
    47  C    0.295644
    48  C   -0.127883
    49  C   -0.176960
    50  C    0.039579
    51  C    0.125522
    52  C   -0.003809
    53  C    0.036947
    54  C   -0.142000
    55  C    0.049714
    56  C    0.044284
    57  C    0.025571
    58  C    0.085280
    59  C   -0.140992
    60  C    0.074379
    61  C    0.019765
    62  C   -0.013233
    63  C    0.057504
    64  C   -0.167493
    65  C    0.073738
    66  C    0.023901
    67  H   -0.033947
    68  H    0.002439
    69  H   -0.035548
    70  H    0.027286
    71  H    0.015603
    72  H    0.024929
    73  H    0.022019
    74  H    0.004246
    75  H   -0.003968
    76  H    0.018716
    77  H    0.045083
    78  H    0.025819
    79  H    0.029658
    80  H    0.040724
    81  H    0.022802
    82  H    0.037976
    83  H    0.022514
    84  H    0.035208
    85  H    0.013771
    86  H    0.005406
    87  H    0.015405
    88  H    0.019424
    89  H    0.026236
    90  H    0.006890
    91  H    0.003194
    92  H    0.023297
    93  H    0.020061
    94  H    0.013195
    95  H    0.008134
    96  H    0.029611
    97  H    0.038035
    98  H    0.029582
    99  H    0.042297
   100  H    0.037259
   101  H    0.038365
   102  H    0.036868
   103  H    0.025773
   104  H   -0.013605
   105  H    0.040041
   106  H    0.014200
   107  H    0.003473
   108  H    0.010919
   109  H   -0.013629
   110  H    0.008549
   111  H    0.018762
   112  H    0.012562
   113  H   -0.009775
   114  H   -0.004752
   115  H    0.012406
   116  H    0.008347
   117  H   -0.009772
   118  H   -0.013579
   119  H   -0.010338
   120  H    0.000390
   121  H   -0.022996
   122  H   -0.005657
   123  H   -0.016178
   124  H   -0.010497
   125  H    0.016240
   126  H    0.001836
   127  H   -0.013669
   128  H   -0.019066
   129  H   -0.005162
   130  H    0.003279
   131  H    0.004018
   132  H   -0.017260
   133  H    0.001734
   134  H    0.000360
   135  H    0.013194
   136  H   -0.011859
   137  H    0.005918
   138  H    0.006444
   139  H    0.012129
   140  H    0.016844
 Sum of Mulliken charges =  -0.00000

 Dipole moment (field-independent basis, Debye):
    X=              2.8828    Y=              4.6504    Z=              0.0914  Tot=              5.4722
 Quadrupole moment (field-independent basis, Debye-Ang):
   XX=           -380.8627   YY=           -409.9381   ZZ=           -407.7505
   XY=             -3.5195   XZ=             22.5044   YZ=              3.3559

 Normal termination of Gaussian 16 at Thu May  5 10:39:09 2022.
