 Gaussian 16, Revision A.03,
 Gaussian 16:  ES64L-G16RevA.03 25-Dec-2016

 ---------------------------------
 #p PBE1PBE/Def2SVP td=(nstates=5)
 ---------------------------------

 -----------------------------------------------------
 step_851_chromophore_13 TDDFT with PBE1PBE functional
 -----------------------------------------------------
 Symbolic Z-matrix:
 Charge =  0 Multiplicity = 1

                         Standard orientation:
 ---------------------------------------------------------------------
 Center     Atomic      Atomic             Coordinates (Angstroms)
 Number     Number       Type             X           Y           Z
 ---------------------------------------------------------------------
      1         12           0       -5.865219    0.291555   -0.237680
      2          6           0       -3.335740   -2.168319    0.264205
      3          6           0       -3.510578    2.744625    0.703132
      4          6           0       -8.315607    2.574370    0.029611
      5          6           0       -8.059817   -2.232902   -1.074620
      6          7           0       -3.603584    0.275847    0.260386
      7          6           0       -2.823917   -0.866282    0.434502
      8          6           0       -1.393673   -0.520190    0.912486
      9          6           0       -1.568748    1.042219    1.173907
     10          6           0       -2.988193    1.425725    0.700299
     11          6           0       -1.408463    1.463783    2.684486
     12          6           0       -0.366762   -0.791174   -0.237289
     13          6           0        0.737476   -1.837034   -0.069389
     14          6           0        1.909134   -1.863203   -1.071195
     15          8           0        1.926861   -1.246609   -2.084112
     16          8           0        3.032856   -2.416899   -0.504667
     17          7           0       -5.878278    2.347306    0.270522
     18          6           0       -4.848443    3.231066    0.511078
     19          6           0       -5.346252    4.613431    0.729054
     20          6           0       -6.775370    4.524853    0.748610
     21          6           0       -7.015552    3.088219    0.358484
     22          6           0       -4.403535    5.782395    0.974176
     23          6           0       -7.765061    5.566368    1.107686
     24          8           0       -8.953702    5.301716    1.190563
     25          6           0       -7.417731    7.042670    1.427530
     26          7           0       -7.930925    0.074914   -0.366587
     27          6           0       -8.659325    1.230750   -0.321986
     28          6           0      -10.091044    0.888465   -0.617325
     29          6           0      -10.043699   -0.558051   -1.153561
     30          6           0       -8.611562   -0.978129   -0.914275
     31          6           0      -11.115559    1.023691    0.514843
     32          6           0      -10.365344   -0.721284   -2.684886
     33          6           0       -9.520492    0.045948   -3.740577
     34          7           0       -5.796990   -1.793297   -0.446351
     35          6           0       -6.774555   -2.655663   -0.774948
     36          6           0       -6.286415   -4.024094   -0.644747
     37          6           0       -4.952879   -3.932981   -0.199155
     38          6           0       -4.708854   -2.495559   -0.109925
     39          6           0       -7.113978   -5.221669   -0.974433
     40          6           0       -3.683551   -4.648526    0.107825
     41          8           0       -3.379341   -5.834282    0.133042
     42          6           0       -2.667810   -3.520090    0.445925
     43          6           0       -2.127003   -3.851644    1.785023
     44          8           0       -2.675407   -3.492507    2.808382
     45          8           0       -0.876493   -4.398559    1.690452
     46          6           0       -0.015419   -4.548074    2.951298
     47          6           0        4.307539   -2.300240   -1.108344
     48          6           0        5.117174   -1.266172   -0.327665
     49          6           0        6.440838   -0.903563   -0.352032
     50          6           0        7.408876   -1.740790   -1.261275
     51          6           0        7.071000    0.166758    0.505107
     52          6           0        7.329277    1.426328   -0.277768
     53          6           0        8.815559    1.900120   -0.155617
     54          6           0        9.235934    2.672585   -1.422463
     55          6           0        8.384500    3.895799   -1.829612
     56          6           0        9.302618    1.699996   -2.644459
     57          6           0       10.761348    1.705609   -3.106516
     58          6           0       11.590962    0.535707   -2.574004
     59          6           0       12.720369    1.022473   -1.702511
     60          6           0       13.966570    1.390469   -2.502319
     61          6           0       13.022423   -0.098862   -0.621041
     62          6           0       13.480373    0.583634    0.660691
     63          6           0       13.580715   -0.443791    1.848119
     64          6           0       12.584603    0.028682    2.975921
     65          6           0       13.056398   -0.046078    4.426495
     66          6           0       11.136455   -0.512096    2.623527
     67          1           0       -2.806629    3.543837    0.945225
     68          1           0       -9.183439    3.216536    0.193356
     69          1           0       -8.802292   -2.971464   -1.382435
     70          1           0       -1.069805   -1.126818    1.758687
     71          1           0       -0.741621    1.604563    0.740349
     72          1           0       -2.397849    1.525658    3.139139
     73          1           0       -0.801798    2.350134    2.869336
     74          1           0       -0.936855    0.629374    3.204113
     75          1           0        0.165710    0.118295   -0.517851
     76          1           0       -0.776942   -0.998129   -1.225333
     77          1           0        0.176799   -2.770182   -0.016128
     78          1           0        1.257163   -1.645718    0.869670
     79          1           0       -3.417322    5.582089    0.554706
     80          1           0       -4.240305    6.044391    2.019632
     81          1           0       -4.818863    6.698761    0.554934
     82          1           0       -7.182204    7.577734    0.507207
     83          1           0       -6.517309    6.985604    2.038605
     84          1           0       -8.292755    7.555835    1.824976
     85          1           0      -10.254655    1.689374   -1.337505
     86          1           0      -10.755916   -1.173790   -0.604977
     87          1           0      -11.875974    0.245405    0.574214
     88          1           0      -11.555571    1.977624    0.222934
     89          1           0      -10.815625    1.152988    1.555387
     90          1           0      -11.420787   -0.497163   -2.839911
     91          1           0      -10.188741   -1.757958   -2.973631
     92          1           0       -9.038044   -0.645502   -4.432521
     93          1           0       -8.808193    0.675650   -3.207551
     94          1           0      -10.149761    0.709771   -4.333152
     95          1           0       -8.116798   -5.059085   -1.370210
     96          1           0       -7.274032   -5.702868   -0.010252
     97          1           0       -6.512605   -5.889015   -1.591085
     98          1           0       -1.719085   -3.444939   -0.086417
     99          1           0       -0.527802   -4.045937    3.770923
    100          1           0        1.014331   -4.202103    3.035544
    101          1           0        0.171457   -5.559805    3.310564
    102          1           0        4.207309   -1.964118   -2.140591
    103          1           0        4.798721   -3.272126   -1.153635
    104          1           0        4.518492   -0.605773    0.300323
    105          1           0        7.611324   -1.288130   -2.231483
    106          1           0        7.165776   -2.787888   -1.443736
    107          1           0        8.374270   -1.730652   -0.754642
    108          1           0        7.936220   -0.156704    1.083014
    109          1           0        6.364453    0.334485    1.317780
    110          1           0        6.726089    2.264135    0.071155
    111          1           0        7.062179    1.406273   -1.334493
    112          1           0        9.494799    1.104606    0.148371
    113          1           0        8.909775    2.687135    0.593703
    114          1           0       10.235581    3.067293   -1.240158
    115          1           0        8.111102    3.990458   -2.880171
    116          1           0        8.782358    4.863238   -1.524686
    117          1           0        7.440976    3.718629   -1.313213
    118          1           0        8.760099    2.091375   -3.504696
    119          1           0        8.906505    0.696786   -2.483352
    120          1           0       11.154033    2.710780   -2.952261
    121          1           0       10.731414    1.555462   -4.185989
    122          1           0       11.999824   -0.142655   -3.323209
    123          1           0       11.026083    0.000263   -1.810929
    124          1           0       12.320373    1.876698   -1.156214
    125          1           0       14.534236    0.593642   -2.983545
    126          1           0       14.517424    2.123279   -1.914010
    127          1           0       13.715295    2.015322   -3.360227
    128          1           0       13.882741   -0.689001   -0.938313
    129          1           0       12.291315   -0.876814   -0.399575
    130          1           0       12.752421    1.364570    0.880163
    131          1           0       14.508478    0.918775    0.518852
    132          1           0       14.627075   -0.339210    2.137939
    133          1           0       13.473724   -1.475789    1.515221
    134          1           0       12.426266    1.091556    2.794899
    135          1           0       14.019903   -0.547747    4.510698
    136          1           0       12.375992   -0.595132    5.077207
    137          1           0       13.006548    0.930832    4.905240
    138          1           0       10.609348   -0.868189    3.508549
    139          1           0       11.203850   -1.339110    1.916490
    140          1           0       10.609375    0.323736    2.165574
 ---------------------------------------------------------------------

 SCF Done:  E(RPBE1PBE) =  -3005.32866036     A.U. after   16 cycles

 Excitation energies and oscillator strengths:

 Excited State   1:      Singlet-A      1.8132 eV  683.80 nm  f=0.3693  <S**2>=0.000
     245 -> 248        0.17009
     246 -> 247        0.69373
     246 <- 247       -0.10920
 This state for optimization and/or second-order correction.
 Total Energy, E(TD-HF/TD-DFT) =  -3005.26202770
 Copying the excited state density for this state as the 1-particle RhoCI density.

 Excited State   2:      Singlet-A      2.2057 eV  562.10 nm  f=0.0991  <S**2>=0.000
     245 -> 247        0.64848
     246 -> 248       -0.27074

 Excited State   3:      Singlet-A      3.0442 eV  407.27 nm  f=0.0011  <S**2>=0.000
     242 -> 247        0.65795
     242 -> 248       -0.10278
     242 -> 249        0.17153
     242 -> 250       -0.10867

 Excited State   4:      Singlet-A      3.1493 eV  393.68 nm  f=0.0135  <S**2>=0.000
     240 -> 247       -0.16261
     241 -> 247       -0.31486
     243 -> 247        0.55136
     246 -> 248        0.17192

 Excited State   5:      Singlet-A      3.2303 eV  383.81 nm  f=0.0564  <S**2>=0.000
     240 -> 247        0.33489
     241 -> 247        0.37093
     243 -> 247        0.42073
     246 -> 248       -0.19470

 The electronic state is 1-A.
 Alpha  occ. eigenvalues --  -46.92792 -19.26528 -19.25237 -19.20534 -19.19734
 Alpha  occ. eigenvalues --  -19.19479 -19.18973 -14.41944 -14.41155 -14.40178
 Alpha  occ. eigenvalues --  -14.38932 -10.36754 -10.36329 -10.32934 -10.32427
 Alpha  occ. eigenvalues --  -10.29780 -10.29676 -10.29489 -10.29223 -10.28928
 Alpha  occ. eigenvalues --  -10.28651 -10.28589 -10.28058 -10.27610 -10.27067
 Alpha  occ. eigenvalues --  -10.26934 -10.26817 -10.26293 -10.26263 -10.25849
 Alpha  occ. eigenvalues --  -10.25717 -10.25701 -10.25328 -10.25309 -10.25297
 Alpha  occ. eigenvalues --  -10.25222 -10.24947 -10.24667 -10.24210 -10.24143
 Alpha  occ. eigenvalues --  -10.23982 -10.23933 -10.23798 -10.23562 -10.23557
 Alpha  occ. eigenvalues --  -10.23539 -10.23532 -10.23407 -10.23359 -10.23234
 Alpha  occ. eigenvalues --  -10.23168 -10.22974 -10.22911 -10.22870 -10.22852
 Alpha  occ. eigenvalues --  -10.22796 -10.22387 -10.22255 -10.22024 -10.21991
 Alpha  occ. eigenvalues --  -10.21764 -10.21736 -10.21720 -10.21703 -10.21598
 Alpha  occ. eigenvalues --  -10.21310  -3.14774  -1.87634  -1.87129  -1.87006
 Alpha  occ. eigenvalues --   -1.12492  -1.10524  -1.05126  -1.04550  -1.04537
 Alpha  occ. eigenvalues --   -1.02359  -0.99071  -0.98146  -0.97649  -0.96532
 Alpha  occ. eigenvalues --   -0.86478  -0.84943  -0.83958  -0.83302  -0.82816
 Alpha  occ. eigenvalues --   -0.82677  -0.82573  -0.81793  -0.81387  -0.81327
 Alpha  occ. eigenvalues --   -0.80657  -0.79693  -0.78502  -0.78063  -0.77433
 Alpha  occ. eigenvalues --   -0.76697  -0.75829  -0.75337  -0.75048  -0.74509
 Alpha  occ. eigenvalues --   -0.73794  -0.73040  -0.71958  -0.71864  -0.70856
 Alpha  occ. eigenvalues --   -0.70169  -0.69915  -0.69504  -0.69213  -0.68162
 Alpha  occ. eigenvalues --   -0.67925  -0.67127  -0.66158  -0.64506  -0.63997
 Alpha  occ. eigenvalues --   -0.63532  -0.62835  -0.62407  -0.61573  -0.60022
 Alpha  occ. eigenvalues --   -0.59732  -0.59457  -0.58818  -0.58539  -0.57995
 Alpha  occ. eigenvalues --   -0.57842  -0.57010  -0.56919  -0.56261  -0.55022
 Alpha  occ. eigenvalues --   -0.54839  -0.54321  -0.53913  -0.53233  -0.52469
 Alpha  occ. eigenvalues --   -0.52213  -0.51498  -0.50663  -0.50366  -0.50198
 Alpha  occ. eigenvalues --   -0.49683  -0.49521  -0.49296  -0.49257  -0.48912
 Alpha  occ. eigenvalues --   -0.48508  -0.48022  -0.47763  -0.47391  -0.47374
 Alpha  occ. eigenvalues --   -0.47227  -0.46918  -0.46474  -0.46387  -0.46219
 Alpha  occ. eigenvalues --   -0.46005  -0.45857  -0.45513  -0.45431  -0.44964
 Alpha  occ. eigenvalues --   -0.44877  -0.44755  -0.44269  -0.44202  -0.44035
 Alpha  occ. eigenvalues --   -0.43864  -0.43784  -0.43636  -0.43487  -0.43422
 Alpha  occ. eigenvalues --   -0.43085  -0.42969  -0.42779  -0.42745  -0.42652
 Alpha  occ. eigenvalues --   -0.42416  -0.42138  -0.41890  -0.41739  -0.41476
 Alpha  occ. eigenvalues --   -0.41159  -0.41059  -0.40725  -0.40588  -0.40470
 Alpha  occ. eigenvalues --   -0.40432  -0.40347  -0.40112  -0.39845  -0.39824
 Alpha  occ. eigenvalues --   -0.39520  -0.39372  -0.38952  -0.38802  -0.38717
 Alpha  occ. eigenvalues --   -0.38478  -0.38370  -0.38162  -0.37783  -0.37669
 Alpha  occ. eigenvalues --   -0.37621  -0.37440  -0.37097  -0.36988  -0.36800
 Alpha  occ. eigenvalues --   -0.36566  -0.36296  -0.36242  -0.36132  -0.35958
 Alpha  occ. eigenvalues --   -0.35836  -0.35754  -0.35650  -0.35530  -0.35168
 Alpha  occ. eigenvalues --   -0.35025  -0.34197  -0.33977  -0.33908  -0.33519
 Alpha  occ. eigenvalues --   -0.33250  -0.33123  -0.33067  -0.32687  -0.32157
 Alpha  occ. eigenvalues --   -0.32055  -0.31906  -0.31527  -0.31467  -0.31357
 Alpha  occ. eigenvalues --   -0.30953  -0.30151  -0.29433  -0.29307  -0.28829
 Alpha  occ. eigenvalues --   -0.28508  -0.28360  -0.27950  -0.27053  -0.26319
 Alpha  occ. eigenvalues --   -0.25886  -0.25745  -0.25531  -0.24976  -0.20855
 Alpha  occ. eigenvalues --   -0.18523
 Alpha virt. eigenvalues --   -0.11086  -0.05248  -0.04232  -0.02422   0.00040
 Alpha virt. eigenvalues --    0.00519   0.00570   0.01323   0.01575   0.02881
 Alpha virt. eigenvalues --    0.03610   0.04223   0.04723   0.05032   0.05643

 Mulliken charges:
               1
     1  Mg   0.970451
     2  C    0.056607
     3  C   -0.058732
     4  C   -0.053963
     5  C   -0.088278
     6  N   -0.380034
     7  C    0.039477
     8  C   -0.081488
     9  C   -0.139271
    10  C    0.123896
    11  C   -0.011833
    12  C    0.001250
    13  C   -0.095420
    14  C    0.245549
    15  O   -0.220367
    16  O   -0.365419
    17  N   -0.464359
    18  C    0.123301
    19  C   -0.151593
    20  C   -0.057454
    21  C    0.156870
    22  C    0.028607
    23  C    0.017527
    24  O   -0.242453
    25  C   -0.016274
    26  N   -0.438704
    27  C    0.089543
    28  C   -0.118486
    29  C   -0.062366
    30  C    0.064003
    31  C    0.005971
    32  C   -0.053307
    33  C   -0.078288
    34  N   -0.433939
    35  C    0.173582
    36  C   -0.216968
    37  C   -0.044700
    38  C    0.094984
    39  C    0.077435
    40  C    0.192288
    41  O   -0.208507
    42  C   -0.138511
    43  C    0.278237
    44  O   -0.244534
    45  O   -0.380815
    46  C    0.118518
    47  C    0.255758
    48  C   -0.136201
    49  C   -0.225282
    50  C   -0.018247
    51  C    0.058477
    52  C   -0.065270
    53  C   -0.025707
    54  C   -0.230984
    55  C   -0.006580
    56  C   -0.013809
    57  C   -0.044114
    58  C    0.031502
    59  C   -0.233955
    60  C    0.018319
    61  C   -0.032015
    62  C   -0.076103
    63  C    0.001205
    64  C   -0.261229
    65  C    0.013135
    66  C   -0.036457
    67  H   -0.001443
    68  H    0.033454
    69  H   -0.002272
    70  H    0.064789
    71  H    0.050596
    72  H    0.053628
    73  H    0.048465
    74  H    0.032443
    75  H    0.029099
    76  H    0.050521
    77  H    0.083380
    78  H    0.058553
    79  H    0.055356
    80  H    0.066371
    81  H    0.050844
    82  H    0.064040
    83  H    0.050172
    84  H    0.061460
    85  H    0.050400
    86  H    0.042158
    87  H    0.041976
    88  H    0.046135
    89  H    0.053133
    90  H    0.040517
    91  H    0.037093
    92  H    0.050451
    93  H    0.052118
    94  H    0.041568
    95  H    0.035036
    96  H    0.059262
    97  H    0.066278
    98  H    0.073883
    99  H    0.062378
   100  H    0.058100
   101  H    0.059860
   102  H    0.063289
   103  H    0.052063
   104  H    0.017122
   105  H    0.066137
   106  H    0.040981
   107  H    0.031114
   108  H    0.043274
   109  H    0.019572
   110  H    0.041158
   111  H    0.051335
   112  H    0.049799
   113  H    0.025053
   114  H    0.033326
   115  H    0.038778
   116  H    0.035821
   117  H    0.019516
   118  H    0.019631
   119  H    0.029182
   120  H    0.032513
   121  H    0.012022
   122  H    0.026371
   123  H    0.019803
   124  H    0.031186
   125  H    0.042241
   126  H    0.029922
   127  H    0.015483
   128  H    0.015415
   129  H    0.025344
   130  H    0.034245
   131  H    0.037388
   132  H    0.016680
   133  H    0.032767
   134  H    0.040159
   135  H    0.040031
   136  H    0.015776
   137  H    0.032928
   138  H    0.034082
   139  H    0.038335
   140  H    0.045877
 Sum of Mulliken charges =  -0.00000

 Dipole moment (field-independent basis, Debye):
    X=              2.8407    Y=              4.2202    Z=             -0.0406  Tot=              5.0873
 Quadrupole moment (field-independent basis, Debye-Ang):
   XX=           -374.5149   YY=           -407.9335   ZZ=           -405.0412
   XY=              0.0814   XZ=             23.8051   YZ=              3.4159

 Normal termination of Gaussian 16 at Thu May  5 11:01:36 2022.
