 Gaussian 16, Revision A.03,
 Gaussian 16:  ES64L-G16RevA.03 25-Dec-2016

 --------------------------------
 #p wB97XD/Def2SVP td=(nstates=5)
 --------------------------------

 ----------------------------------------------------
 step_851_chromophore_13 TDDFT with wB97XD functional
 ----------------------------------------------------
 Symbolic Z-matrix:
 Charge =  0 Multiplicity = 1

                         Standard orientation:
 ---------------------------------------------------------------------
 Center     Atomic      Atomic             Coordinates (Angstroms)
 Number     Number       Type             X           Y           Z
 ---------------------------------------------------------------------
      1         12           0       -5.865219    0.291555   -0.237680
      2          6           0       -3.335740   -2.168319    0.264205
      3          6           0       -3.510578    2.744625    0.703132
      4          6           0       -8.315607    2.574370    0.029611
      5          6           0       -8.059817   -2.232902   -1.074620
      6          7           0       -3.603584    0.275847    0.260386
      7          6           0       -2.823917   -0.866282    0.434502
      8          6           0       -1.393673   -0.520190    0.912486
      9          6           0       -1.568748    1.042219    1.173907
     10          6           0       -2.988193    1.425725    0.700299
     11          6           0       -1.408463    1.463783    2.684486
     12          6           0       -0.366762   -0.791174   -0.237289
     13          6           0        0.737476   -1.837034   -0.069389
     14          6           0        1.909134   -1.863203   -1.071195
     15          8           0        1.926861   -1.246609   -2.084112
     16          8           0        3.032856   -2.416899   -0.504667
     17          7           0       -5.878278    2.347306    0.270522
     18          6           0       -4.848443    3.231066    0.511078
     19          6           0       -5.346252    4.613431    0.729054
     20          6           0       -6.775370    4.524853    0.748610
     21          6           0       -7.015552    3.088219    0.358484
     22          6           0       -4.403535    5.782395    0.974176
     23          6           0       -7.765061    5.566368    1.107686
     24          8           0       -8.953702    5.301716    1.190563
     25          6           0       -7.417731    7.042670    1.427530
     26          7           0       -7.930925    0.074914   -0.366587
     27          6           0       -8.659325    1.230750   -0.321986
     28          6           0      -10.091044    0.888465   -0.617325
     29          6           0      -10.043699   -0.558051   -1.153561
     30          6           0       -8.611562   -0.978129   -0.914275
     31          6           0      -11.115559    1.023691    0.514843
     32          6           0      -10.365344   -0.721284   -2.684886
     33          6           0       -9.520492    0.045948   -3.740577
     34          7           0       -5.796990   -1.793297   -0.446351
     35          6           0       -6.774555   -2.655663   -0.774948
     36          6           0       -6.286415   -4.024094   -0.644747
     37          6           0       -4.952879   -3.932981   -0.199155
     38          6           0       -4.708854   -2.495559   -0.109925
     39          6           0       -7.113978   -5.221669   -0.974433
     40          6           0       -3.683551   -4.648526    0.107825
     41          8           0       -3.379341   -5.834282    0.133042
     42          6           0       -2.667810   -3.520090    0.445925
     43          6           0       -2.127003   -3.851644    1.785023
     44          8           0       -2.675407   -3.492507    2.808382
     45          8           0       -0.876493   -4.398559    1.690452
     46          6           0       -0.015419   -4.548074    2.951298
     47          6           0        4.307539   -2.300240   -1.108344
     48          6           0        5.117174   -1.266172   -0.327665
     49          6           0        6.440838   -0.903563   -0.352032
     50          6           0        7.408876   -1.740790   -1.261275
     51          6           0        7.071000    0.166758    0.505107
     52          6           0        7.329277    1.426328   -0.277768
     53          6           0        8.815559    1.900120   -0.155617
     54          6           0        9.235934    2.672585   -1.422463
     55          6           0        8.384500    3.895799   -1.829612
     56          6           0        9.302618    1.699996   -2.644459
     57          6           0       10.761348    1.705609   -3.106516
     58          6           0       11.590962    0.535707   -2.574004
     59          6           0       12.720369    1.022473   -1.702511
     60          6           0       13.966570    1.390469   -2.502319
     61          6           0       13.022423   -0.098862   -0.621041
     62          6           0       13.480373    0.583634    0.660691
     63          6           0       13.580715   -0.443791    1.848119
     64          6           0       12.584603    0.028682    2.975921
     65          6           0       13.056398   -0.046078    4.426495
     66          6           0       11.136455   -0.512096    2.623527
     67          1           0       -2.806629    3.543837    0.945225
     68          1           0       -9.183439    3.216536    0.193356
     69          1           0       -8.802292   -2.971464   -1.382435
     70          1           0       -1.069805   -1.126818    1.758687
     71          1           0       -0.741621    1.604563    0.740349
     72          1           0       -2.397849    1.525658    3.139139
     73          1           0       -0.801798    2.350134    2.869336
     74          1           0       -0.936855    0.629374    3.204113
     75          1           0        0.165710    0.118295   -0.517851
     76          1           0       -0.776942   -0.998129   -1.225333
     77          1           0        0.176799   -2.770182   -0.016128
     78          1           0        1.257163   -1.645718    0.869670
     79          1           0       -3.417322    5.582089    0.554706
     80          1           0       -4.240305    6.044391    2.019632
     81          1           0       -4.818863    6.698761    0.554934
     82          1           0       -7.182204    7.577734    0.507207
     83          1           0       -6.517309    6.985604    2.038605
     84          1           0       -8.292755    7.555835    1.824976
     85          1           0      -10.254655    1.689374   -1.337505
     86          1           0      -10.755916   -1.173790   -0.604977
     87          1           0      -11.875974    0.245405    0.574214
     88          1           0      -11.555571    1.977624    0.222934
     89          1           0      -10.815625    1.152988    1.555387
     90          1           0      -11.420787   -0.497163   -2.839911
     91          1           0      -10.188741   -1.757958   -2.973631
     92          1           0       -9.038044   -0.645502   -4.432521
     93          1           0       -8.808193    0.675650   -3.207551
     94          1           0      -10.149761    0.709771   -4.333152
     95          1           0       -8.116798   -5.059085   -1.370210
     96          1           0       -7.274032   -5.702868   -0.010252
     97          1           0       -6.512605   -5.889015   -1.591085
     98          1           0       -1.719085   -3.444939   -0.086417
     99          1           0       -0.527802   -4.045937    3.770923
    100          1           0        1.014331   -4.202103    3.035544
    101          1           0        0.171457   -5.559805    3.310564
    102          1           0        4.207309   -1.964118   -2.140591
    103          1           0        4.798721   -3.272126   -1.153635
    104          1           0        4.518492   -0.605773    0.300323
    105          1           0        7.611324   -1.288130   -2.231483
    106          1           0        7.165776   -2.787888   -1.443736
    107          1           0        8.374270   -1.730652   -0.754642
    108          1           0        7.936220   -0.156704    1.083014
    109          1           0        6.364453    0.334485    1.317780
    110          1           0        6.726089    2.264135    0.071155
    111          1           0        7.062179    1.406273   -1.334493
    112          1           0        9.494799    1.104606    0.148371
    113          1           0        8.909775    2.687135    0.593703
    114          1           0       10.235581    3.067293   -1.240158
    115          1           0        8.111102    3.990458   -2.880171
    116          1           0        8.782358    4.863238   -1.524686
    117          1           0        7.440976    3.718629   -1.313213
    118          1           0        8.760099    2.091375   -3.504696
    119          1           0        8.906505    0.696786   -2.483352
    120          1           0       11.154033    2.710780   -2.952261
    121          1           0       10.731414    1.555462   -4.185989
    122          1           0       11.999824   -0.142655   -3.323209
    123          1           0       11.026083    0.000263   -1.810929
    124          1           0       12.320373    1.876698   -1.156214
    125          1           0       14.534236    0.593642   -2.983545
    126          1           0       14.517424    2.123279   -1.914010
    127          1           0       13.715295    2.015322   -3.360227
    128          1           0       13.882741   -0.689001   -0.938313
    129          1           0       12.291315   -0.876814   -0.399575
    130          1           0       12.752421    1.364570    0.880163
    131          1           0       14.508478    0.918775    0.518852
    132          1           0       14.627075   -0.339210    2.137939
    133          1           0       13.473724   -1.475789    1.515221
    134          1           0       12.426266    1.091556    2.794899
    135          1           0       14.019903   -0.547747    4.510698
    136          1           0       12.375992   -0.595132    5.077207
    137          1           0       13.006548    0.930832    4.905240
    138          1           0       10.609348   -0.868189    3.508549
    139          1           0       11.203850   -1.339110    1.916490
    140          1           0       10.609375    0.323736    2.165574
 ---------------------------------------------------------------------

 SCF Done:  E(RwB97XD) =  -3007.84077451     A.U. after   20 cycles

 Excitation energies and oscillator strengths:

 Excited State   1:      Singlet-A      1.6176 eV  766.49 nm  f=0.3805  <S**2>=0.000
     245 -> 248        0.18381
     246 -> 247        0.68387
     245 <- 248        0.11722
 This state for optimization and/or second-order correction.
 Total Energy, E(TD-HF/TD-DFT) =  -3007.78133062
 Copying the excited state density for this state as the 1-particle RhoCI density.

 Excited State   2:      Singlet-A      2.1551 eV  575.32 nm  f=0.0937  <S**2>=0.000
     245 -> 247        0.63190
     246 -> 248       -0.30646

 Excited State   3:      Singlet-A      3.4708 eV  357.22 nm  f=0.6689  <S**2>=0.000
     239 -> 247        0.10850
     240 -> 247       -0.13449
     245 -> 247        0.28477
     246 -> 248        0.60869
     245 <- 247       -0.11538

 Excited State   4:      Singlet-A      3.5357 eV  350.66 nm  f=0.0130  <S**2>=0.000
     240 -> 247       -0.23572
     240 -> 249       -0.18503
     240 -> 250        0.11173
     241 -> 247        0.47737
     241 -> 248       -0.11660
     241 -> 249        0.29158
     241 -> 250       -0.17581

 Excited State   5:      Singlet-A      3.6018 eV  344.23 nm  f=0.0009  <S**2>=0.000
     239 -> 247       -0.12939
     242 -> 247       -0.32159
     243 -> 247        0.57124

 The electronic state is 1-A.
 Alpha  occ. eigenvalues --  -46.95710 -19.31033 -19.29769 -19.25192 -19.24377
 Alpha  occ. eigenvalues --  -19.24161 -19.24006 -14.47069 -14.46137 -14.45264
 Alpha  occ. eigenvalues --  -14.43747 -10.43512 -10.43091 -10.39662 -10.39480
 Alpha  occ. eigenvalues --  -10.36282 -10.36142 -10.35979 -10.35560 -10.35333
 Alpha  occ. eigenvalues --  -10.35305 -10.35032 -10.34467 -10.34087 -10.33156
 Alpha  occ. eigenvalues --  -10.33084 -10.32774 -10.32570 -10.32541 -10.32527
 Alpha  occ. eigenvalues --  -10.32022 -10.31979 -10.31880 -10.31817 -10.31635
 Alpha  occ. eigenvalues --  -10.31413 -10.31342 -10.30888 -10.30628 -10.30573
 Alpha  occ. eigenvalues --  -10.30441 -10.30186 -10.30178 -10.29936 -10.29916
 Alpha  occ. eigenvalues --  -10.29831 -10.29796 -10.29624 -10.29614 -10.29606
 Alpha  occ. eigenvalues --  -10.29463 -10.29352 -10.29284 -10.29239 -10.29146
 Alpha  occ. eigenvalues --  -10.29142 -10.28719 -10.28678 -10.28423 -10.28378
 Alpha  occ. eigenvalues --  -10.28218 -10.28159 -10.28074 -10.28053 -10.27962
 Alpha  occ. eigenvalues --  -10.27686  -3.21568  -1.95173  -1.94669  -1.94544
 Alpha  occ. eigenvalues --   -1.19827  -1.17875  -1.12821  -1.11906  -1.11837
 Alpha  occ. eigenvalues --   -1.09666  -1.06268  -1.05599  -1.05023  -1.03961
 Alpha  occ. eigenvalues --   -0.93999  -0.92617  -0.91623  -0.90916  -0.90480
 Alpha  occ. eigenvalues --   -0.90237  -0.90192  -0.89628  -0.89047  -0.88948
 Alpha  occ. eigenvalues --   -0.88132  -0.87333  -0.86145  -0.85611  -0.85074
 Alpha  occ. eigenvalues --   -0.84336  -0.83554  -0.83090  -0.82688  -0.82215
 Alpha  occ. eigenvalues --   -0.81451  -0.80873  -0.79537  -0.79416  -0.78410
 Alpha  occ. eigenvalues --   -0.77861  -0.77609  -0.77070  -0.76898  -0.75797
 Alpha  occ. eigenvalues --   -0.75549  -0.74596  -0.73712  -0.72150  -0.71483
 Alpha  occ. eigenvalues --   -0.71134  -0.70383  -0.69996  -0.69243  -0.67569
 Alpha  occ. eigenvalues --   -0.67139  -0.66852  -0.66501  -0.65969  -0.65624
 Alpha  occ. eigenvalues --   -0.65272  -0.64657  -0.64227  -0.63867  -0.62596
 Alpha  occ. eigenvalues --   -0.62360  -0.61687  -0.61339  -0.60532  -0.59930
 Alpha  occ. eigenvalues --   -0.59524  -0.58994  -0.58077  -0.57818  -0.57515
 Alpha  occ. eigenvalues --   -0.57068  -0.56889  -0.56798  -0.56673  -0.56228
 Alpha  occ. eigenvalues --   -0.55942  -0.55396  -0.55132  -0.54849  -0.54821
 Alpha  occ. eigenvalues --   -0.54641  -0.54352  -0.53958  -0.53767  -0.53593
 Alpha  occ. eigenvalues --   -0.53336  -0.53199  -0.52772  -0.52676  -0.52539
 Alpha  occ. eigenvalues --   -0.52241  -0.52129  -0.51581  -0.51545  -0.51419
 Alpha  occ. eigenvalues --   -0.51191  -0.51137  -0.50998  -0.50799  -0.50755
 Alpha  occ. eigenvalues --   -0.50393  -0.50262  -0.50064  -0.50036  -0.49939
 Alpha  occ. eigenvalues --   -0.49666  -0.49335  -0.49164  -0.49091  -0.48612
 Alpha  occ. eigenvalues --   -0.48305  -0.48181  -0.47982  -0.47793  -0.47648
 Alpha  occ. eigenvalues --   -0.47614  -0.47548  -0.47313  -0.47053  -0.47021
 Alpha  occ. eigenvalues --   -0.46740  -0.46497  -0.46144  -0.45929  -0.45837
 Alpha  occ. eigenvalues --   -0.45670  -0.45534  -0.45091  -0.44860  -0.44785
 Alpha  occ. eigenvalues --   -0.44711  -0.44596  -0.44350  -0.44178  -0.43914
 Alpha  occ. eigenvalues --   -0.43709  -0.43395  -0.43313  -0.43148  -0.42913
 Alpha  occ. eigenvalues --   -0.42884  -0.42846  -0.42739  -0.42625  -0.42159
 Alpha  occ. eigenvalues --   -0.42098  -0.41282  -0.41020  -0.40821  -0.40496
 Alpha  occ. eigenvalues --   -0.40162  -0.40142  -0.39948  -0.39737  -0.39201
 Alpha  occ. eigenvalues --   -0.39064  -0.38924  -0.38581  -0.38460  -0.38333
 Alpha  occ. eigenvalues --   -0.37841  -0.37148  -0.36484  -0.36161  -0.35742
 Alpha  occ. eigenvalues --   -0.35405  -0.35045  -0.34831  -0.33800  -0.33195
 Alpha  occ. eigenvalues --   -0.33125  -0.32558  -0.31890  -0.31699  -0.25864
 Alpha  occ. eigenvalues --   -0.22647
 Alpha virt. eigenvalues --   -0.06954   0.00178   0.01969   0.04055   0.06110
 Alpha virt. eigenvalues --    0.07255   0.07374   0.08054   0.08388   0.09188
 Alpha virt. eigenvalues --    0.10158   0.10738   0.11555   0.11661   0.12377

 Mulliken charges:
               1
     1  Mg   0.960631
     2  C    0.051121
     3  C   -0.075922
     4  C   -0.078477
     5  C   -0.104254
     6  N   -0.344960
     7  C    0.008256
     8  C   -0.052746
     9  C   -0.115810
    10  C    0.114055
    11  C   -0.001398
    12  C    0.006050
    13  C   -0.066682
    14  C    0.232421
    15  O   -0.217372
    16  O   -0.363244
    17  N   -0.434298
    18  C    0.119454
    19  C   -0.143170
    20  C   -0.050936
    21  C    0.155051
    22  C    0.038553
    23  C    0.014302
    24  O   -0.236158
    25  C   -0.002998
    26  N   -0.405568
    27  C    0.079231
    28  C   -0.094263
    29  C   -0.028325
    30  C    0.045953
    31  C    0.012581
    32  C   -0.040075
    33  C   -0.058581
    34  N   -0.392218
    35  C    0.161922
    36  C   -0.210864
    37  C   -0.046727
    38  C    0.073926
    39  C    0.087258
    40  C    0.178457
    41  O   -0.200131
    42  C   -0.088703
    43  C    0.248963
    44  O   -0.238931
    45  O   -0.378713
    46  C    0.135990
    47  C    0.269617
    48  C   -0.146300
    49  C   -0.208301
    50  C   -0.006359
    51  C    0.079588
    52  C   -0.050528
    53  C    0.002966
    54  C   -0.196861
    55  C    0.003709
    56  C    0.007081
    57  C   -0.022055
    58  C    0.049351
    59  C   -0.194251
    60  C    0.025786
    61  C   -0.016025
    62  C   -0.054296
    63  C    0.012982
    64  C   -0.227772
    65  C    0.024756
    66  C   -0.020462
    67  H   -0.007949
    68  H    0.028784
    69  H   -0.010778
    70  H    0.051668
    71  H    0.041889
    72  H    0.046440
    73  H    0.043917
    74  H    0.026763
    75  H    0.019490
    76  H    0.043347
    77  H    0.068116
    78  H    0.050960
    79  H    0.052354
    80  H    0.064136
    81  H    0.045719
    82  H    0.060289
    83  H    0.042984
    84  H    0.061568
    85  H    0.038467
    86  H    0.032911
    87  H    0.037122
    88  H    0.040256
    89  H    0.048505
    90  H    0.032678
    91  H    0.027499
    92  H    0.045957
    93  H    0.038247
    94  H    0.036072
    95  H    0.029749
    96  H    0.052565
    97  H    0.060753
    98  H    0.058953
    99  H    0.058339
   100  H    0.054147
   101  H    0.055833
   102  H    0.059098
   103  H    0.047372
   104  H    0.011672
   105  H    0.060928
   106  H    0.036589
   107  H    0.023693
   108  H    0.034429
   109  H    0.013011
   110  H    0.033343
   111  H    0.038709
   112  H    0.026887
   113  H    0.016207
   114  H    0.019306
   115  H    0.033266
   116  H    0.031545
   117  H    0.010137
   118  H    0.010778
   119  H    0.007581
   120  H    0.020838
   121  H    0.004744
   122  H    0.019812
   123  H    0.002739
   124  H    0.009798
   125  H    0.037479
   126  H    0.024184
   127  H    0.008625
   128  H    0.005473
   129  H    0.013713
   130  H    0.020297
   131  H    0.028920
   132  H    0.008897
   133  H    0.024388
   134  H    0.026477
   135  H    0.034467
   136  H    0.009223
   137  H    0.027762
   138  H    0.028782
   139  H    0.030375
   140  H    0.035427
 Sum of Mulliken charges =  -0.00000

 Dipole moment (field-independent basis, Debye):
    X=              2.9253    Y=              4.9066    Z=              0.1280  Tot=              5.7139
 Quadrupole moment (field-independent basis, Debye-Ang):
   XX=           -375.8877   YY=           -405.3421   ZZ=           -404.6554
   XY=             -4.6164   XZ=             22.6885   YZ=              3.7696

 Normal termination of Gaussian 16 at Thu May  5 11:27:55 2022.
