 Gaussian 16, Revision A.03,
 Gaussian 16:  ES64L-G16RevA.03 25-Dec-2016

 --------------------
 #p ZINDO=(nstates=5)
 --------------------

 -----------------------------
 step_851_chromophore_13 ZINDO
 -----------------------------
 Symbolic Z-matrix:
 Charge =  0 Multiplicity = 1

                         Standard orientation:
 ---------------------------------------------------------------------
 Center     Atomic      Atomic             Coordinates (Angstroms)
 Number     Number       Type             X           Y           Z
 ---------------------------------------------------------------------
      1         12           0       -5.865219    0.291555   -0.237680
      2          6           0       -3.335740   -2.168319    0.264205
      3          6           0       -3.510578    2.744625    0.703132
      4          6           0       -8.315607    2.574370    0.029611
      5          6           0       -8.059817   -2.232902   -1.074620
      6          7           0       -3.603584    0.275847    0.260386
      7          6           0       -2.823917   -0.866282    0.434502
      8          6           0       -1.393673   -0.520190    0.912486
      9          6           0       -1.568748    1.042219    1.173907
     10          6           0       -2.988193    1.425725    0.700299
     11          6           0       -1.408463    1.463783    2.684486
     12          6           0       -0.366762   -0.791174   -0.237289
     13          6           0        0.737476   -1.837034   -0.069389
     14          6           0        1.909134   -1.863203   -1.071195
     15          8           0        1.926861   -1.246609   -2.084112
     16          8           0        3.032856   -2.416899   -0.504667
     17          7           0       -5.878278    2.347306    0.270522
     18          6           0       -4.848443    3.231066    0.511078
     19          6           0       -5.346252    4.613431    0.729054
     20          6           0       -6.775370    4.524853    0.748610
     21          6           0       -7.015552    3.088219    0.358484
     22          6           0       -4.403535    5.782395    0.974176
     23          6           0       -7.765061    5.566368    1.107686
     24          8           0       -8.953702    5.301716    1.190563
     25          6           0       -7.417731    7.042670    1.427530
     26          7           0       -7.930925    0.074914   -0.366587
     27          6           0       -8.659325    1.230750   -0.321986
     28          6           0      -10.091044    0.888465   -0.617325
     29          6           0      -10.043699   -0.558051   -1.153561
     30          6           0       -8.611562   -0.978129   -0.914275
     31          6           0      -11.115559    1.023691    0.514843
     32          6           0      -10.365344   -0.721284   -2.684886
     33          6           0       -9.520492    0.045948   -3.740577
     34          7           0       -5.796990   -1.793297   -0.446351
     35          6           0       -6.774555   -2.655663   -0.774948
     36          6           0       -6.286415   -4.024094   -0.644747
     37          6           0       -4.952879   -3.932981   -0.199155
     38          6           0       -4.708854   -2.495559   -0.109925
     39          6           0       -7.113978   -5.221669   -0.974433
     40          6           0       -3.683551   -4.648526    0.107825
     41          8           0       -3.379341   -5.834282    0.133042
     42          6           0       -2.667810   -3.520090    0.445925
     43          6           0       -2.127003   -3.851644    1.785023
     44          8           0       -2.675407   -3.492507    2.808382
     45          8           0       -0.876493   -4.398559    1.690452
     46          6           0       -0.015419   -4.548074    2.951298
     47          6           0        4.307539   -2.300240   -1.108344
     48          6           0        5.117174   -1.266172   -0.327665
     49          6           0        6.440838   -0.903563   -0.352032
     50          6           0        7.408876   -1.740790   -1.261275
     51          6           0        7.071000    0.166758    0.505107
     52          6           0        7.329277    1.426328   -0.277768
     53          6           0        8.815559    1.900120   -0.155617
     54          6           0        9.235934    2.672585   -1.422463
     55          6           0        8.384500    3.895799   -1.829612
     56          6           0        9.302618    1.699996   -2.644459
     57          6           0       10.761348    1.705609   -3.106516
     58          6           0       11.590962    0.535707   -2.574004
     59          6           0       12.720369    1.022473   -1.702511
     60          6           0       13.966570    1.390469   -2.502319
     61          6           0       13.022423   -0.098862   -0.621041
     62          6           0       13.480373    0.583634    0.660691
     63          6           0       13.580715   -0.443791    1.848119
     64          6           0       12.584603    0.028682    2.975921
     65          6           0       13.056398   -0.046078    4.426495
     66          6           0       11.136455   -0.512096    2.623527
     67          1           0       -2.806629    3.543837    0.945225
     68          1           0       -9.183439    3.216536    0.193356
     69          1           0       -8.802292   -2.971464   -1.382435
     70          1           0       -1.069805   -1.126818    1.758687
     71          1           0       -0.741621    1.604563    0.740349
     72          1           0       -2.397849    1.525658    3.139139
     73          1           0       -0.801798    2.350134    2.869336
     74          1           0       -0.936855    0.629374    3.204113
     75          1           0        0.165710    0.118295   -0.517851
     76          1           0       -0.776942   -0.998129   -1.225333
     77          1           0        0.176799   -2.770182   -0.016128
     78          1           0        1.257163   -1.645718    0.869670
     79          1           0       -3.417322    5.582089    0.554706
     80          1           0       -4.240305    6.044391    2.019632
     81          1           0       -4.818863    6.698761    0.554934
     82          1           0       -7.182204    7.577734    0.507207
     83          1           0       -6.517309    6.985604    2.038605
     84          1           0       -8.292755    7.555835    1.824976
     85          1           0      -10.254655    1.689374   -1.337505
     86          1           0      -10.755916   -1.173790   -0.604977
     87          1           0      -11.875974    0.245405    0.574214
     88          1           0      -11.555571    1.977624    0.222934
     89          1           0      -10.815625    1.152988    1.555387
     90          1           0      -11.420787   -0.497163   -2.839911
     91          1           0      -10.188741   -1.757958   -2.973631
     92          1           0       -9.038044   -0.645502   -4.432521
     93          1           0       -8.808193    0.675650   -3.207551
     94          1           0      -10.149761    0.709771   -4.333152
     95          1           0       -8.116798   -5.059085   -1.370210
     96          1           0       -7.274032   -5.702868   -0.010252
     97          1           0       -6.512605   -5.889015   -1.591085
     98          1           0       -1.719085   -3.444939   -0.086417
     99          1           0       -0.527802   -4.045937    3.770923
    100          1           0        1.014331   -4.202103    3.035544
    101          1           0        0.171457   -5.559805    3.310564
    102          1           0        4.207309   -1.964118   -2.140591
    103          1           0        4.798721   -3.272126   -1.153635
    104          1           0        4.518492   -0.605773    0.300323
    105          1           0        7.611324   -1.288130   -2.231483
    106          1           0        7.165776   -2.787888   -1.443736
    107          1           0        8.374270   -1.730652   -0.754642
    108          1           0        7.936220   -0.156704    1.083014
    109          1           0        6.364453    0.334485    1.317780
    110          1           0        6.726089    2.264135    0.071155
    111          1           0        7.062179    1.406273   -1.334493
    112          1           0        9.494799    1.104606    0.148371
    113          1           0        8.909775    2.687135    0.593703
    114          1           0       10.235581    3.067293   -1.240158
    115          1           0        8.111102    3.990458   -2.880171
    116          1           0        8.782358    4.863238   -1.524686
    117          1           0        7.440976    3.718629   -1.313213
    118          1           0        8.760099    2.091375   -3.504696
    119          1           0        8.906505    0.696786   -2.483352
    120          1           0       11.154033    2.710780   -2.952261
    121          1           0       10.731414    1.555462   -4.185989
    122          1           0       11.999824   -0.142655   -3.323209
    123          1           0       11.026083    0.000263   -1.810929
    124          1           0       12.320373    1.876698   -1.156214
    125          1           0       14.534236    0.593642   -2.983545
    126          1           0       14.517424    2.123279   -1.914010
    127          1           0       13.715295    2.015322   -3.360227
    128          1           0       13.882741   -0.689001   -0.938313
    129          1           0       12.291315   -0.876814   -0.399575
    130          1           0       12.752421    1.364570    0.880163
    131          1           0       14.508478    0.918775    0.518852
    132          1           0       14.627075   -0.339210    2.137939
    133          1           0       13.473724   -1.475789    1.515221
    134          1           0       12.426266    1.091556    2.794899
    135          1           0       14.019903   -0.547747    4.510698
    136          1           0       12.375992   -0.595132    5.077207
    137          1           0       13.006548    0.930832    4.905240
    138          1           0       10.609348   -0.868189    3.508549
    139          1           0       11.203850   -1.339110    1.916490
    140          1           0       10.609375    0.323736    2.165574
 ---------------------------------------------------------------------

 SCF Done:  E(RZINDO/S) =  -474.162836739     A.U. after   19 cycles

 Excitation energies and oscillator strengths:

 Excited State   1:      Singlet-A      1.2303 eV 1007.74 nm  f=0.5999  <S**2>=0.000
     175 ->178         0.18012
     176 ->177         0.66693
 This state for optimization and/or second-order correction.
 Total Energy, E(CIS/TDA) =  -474.117623486
 Copying the excited state density for this state as the 1-particle RhoCI density.

 Excited State   2:      Singlet-A      1.9093 eV  649.38 nm  f=0.0273  <S**2>=0.000
     175 ->177         0.52984
     176 ->178        -0.44222

 Excited State   3:      Singlet-A      2.8612 eV  433.32 nm  f=0.0119  <S**2>=0.000
     168 ->177         0.33472
     168 ->178        -0.10600
     168 ->179        -0.41634
     168 ->180         0.26030
     168 ->186        -0.21268
     168 ->188        -0.12158
     168 ->193        -0.13057

 Excited State   4:      Singlet-A      2.8927 eV  428.62 nm  f=0.1398  <S**2>=0.000
     175 ->177        -0.14823
     176 ->178        -0.19809
     176 ->179         0.58917
     176 ->180         0.20537

 Excited State   5:      Singlet-A      2.9654 eV  418.11 nm  f=0.9342  <S**2>=0.000
     175 ->177         0.37755
     176 ->178         0.47270
     176 ->179         0.27232

 The electronic state is 1-A.
 Alpha  occ. eigenvalues --   -1.83775  -1.80423  -1.77876  -1.74676  -1.70945
 Alpha  occ. eigenvalues --   -1.69468  -1.68745  -1.61594  -1.59890  -1.56291
 Alpha  occ. eigenvalues --   -1.55072  -1.52238  -1.48293  -1.47578  -1.44711
 Alpha  occ. eigenvalues --   -1.43406  -1.43033  -1.40163  -1.38625  -1.38339
 Alpha  occ. eigenvalues --   -1.35458  -1.33577  -1.32178  -1.31341  -1.28666
 Alpha  occ. eigenvalues --   -1.26499  -1.24834  -1.21381  -1.19970  -1.17677
 Alpha  occ. eigenvalues --   -1.16971  -1.16542  -1.15670  -1.14746  -1.13617
 Alpha  occ. eigenvalues --   -1.13033  -1.11285  -1.10330  -1.06045  -1.04960
 Alpha  occ. eigenvalues --   -1.04583  -1.01615  -0.99765  -0.97642  -0.97317
 Alpha  occ. eigenvalues --   -0.96601  -0.95247  -0.94598  -0.93124  -0.92564
 Alpha  occ. eigenvalues --   -0.90499  -0.88885  -0.88407  -0.87310  -0.85696
 Alpha  occ. eigenvalues --   -0.84894  -0.83714  -0.83059  -0.82061  -0.80871
 Alpha  occ. eigenvalues --   -0.80423  -0.79213  -0.78292  -0.76730  -0.76312
 Alpha  occ. eigenvalues --   -0.76014  -0.75560  -0.74951  -0.74611  -0.74054
 Alpha  occ. eigenvalues --   -0.73170  -0.72664  -0.71759  -0.71342  -0.70357
 Alpha  occ. eigenvalues --   -0.69901  -0.69110  -0.68795  -0.68665  -0.68211
 Alpha  occ. eigenvalues --   -0.67563  -0.67002  -0.66374  -0.65971  -0.65681
 Alpha  occ. eigenvalues --   -0.64902  -0.64808  -0.64044  -0.63777  -0.63520
 Alpha  occ. eigenvalues --   -0.62655  -0.62306  -0.62040  -0.61794  -0.60965
 Alpha  occ. eigenvalues --   -0.60897  -0.60598  -0.60452  -0.60331  -0.60057
 Alpha  occ. eigenvalues --   -0.59850  -0.59785  -0.59528  -0.59133  -0.58532
 Alpha  occ. eigenvalues --   -0.58091  -0.57550  -0.57207  -0.56858  -0.56660
 Alpha  occ. eigenvalues --   -0.55952  -0.55779  -0.55502  -0.54809  -0.54426
 Alpha  occ. eigenvalues --   -0.54072  -0.53677  -0.53275  -0.52874  -0.52539
 Alpha  occ. eigenvalues --   -0.52257  -0.51885  -0.51826  -0.51686  -0.51558
 Alpha  occ. eigenvalues --   -0.51301  -0.50940  -0.50699  -0.50335  -0.50194
 Alpha  occ. eigenvalues --   -0.50002  -0.49907  -0.49779  -0.49603  -0.48975
 Alpha  occ. eigenvalues --   -0.48794  -0.48508  -0.48261  -0.47931  -0.47856
 Alpha  occ. eigenvalues --   -0.47686  -0.47528  -0.46837  -0.46581  -0.46411
 Alpha  occ. eigenvalues --   -0.46226  -0.46016  -0.45662  -0.45543  -0.45371
 Alpha  occ. eigenvalues --   -0.45174  -0.44848  -0.44582  -0.44119  -0.43996
 Alpha  occ. eigenvalues --   -0.42926  -0.42785  -0.42601  -0.41853  -0.41669
 Alpha  occ. eigenvalues --   -0.41506  -0.40853  -0.39944  -0.38939  -0.38463
 Alpha  occ. eigenvalues --   -0.37730  -0.36584  -0.35761  -0.35144  -0.34356
 Alpha  occ. eigenvalues --   -0.34107  -0.32200  -0.31985  -0.31897  -0.26621
 Alpha  occ. eigenvalues --   -0.21356
 Alpha virt. eigenvalues --   -0.08352  -0.01924  -0.00796   0.00985   0.02028
 Alpha virt. eigenvalues --    0.02507   0.03027   0.03078   0.04543   0.04689
 Alpha virt. eigenvalues --    0.06037   0.06355   0.06612   0.07576   0.07696

 Mulliken charges:
               1
     1  Mg   0.433352
     2  C   -0.039806
     3  C   -0.085632
     4  C   -0.091354
     5  C   -0.057561
     6  N   -0.294590
     7  C    0.103281
     8  C    0.010274
     9  C    0.004756
    10  C    0.160741
    11  C   -0.058189
    12  C   -0.034085
    13  C    0.002407
    14  C    0.469600
    15  O   -0.497361
    16  O   -0.280007
    17  N   -0.318840
    18  C    0.121350
    19  C    0.021212
    20  C   -0.036659
    21  C    0.154686
    22  C   -0.038764
    23  C    0.326757
    24  O   -0.520251
    25  C   -0.030400
    26  N   -0.276201
    27  C    0.159499
    28  C    0.009141
    29  C    0.011090
    30  C    0.101401
    31  C   -0.052547
    32  C   -0.033969
    33  C   -0.055822
    34  N   -0.294688
    35  C    0.083397
    36  C    0.023910
    37  C   -0.074183
    38  C    0.089810
    39  C   -0.041073
    40  C    0.347577
    41  O   -0.516967
    42  C    0.056095
    43  C    0.497761
    44  O   -0.526325
    45  O   -0.267825
    46  C    0.059578
    47  C    0.121052
    48  C   -0.088665
    49  C   -0.013198
    50  C   -0.055048
    51  C   -0.005362
    52  C   -0.024553
    53  C   -0.036850
    54  C   -0.009183
    55  C   -0.061243
    56  C   -0.039825
    57  C   -0.036300
    58  C   -0.036220
    59  C   -0.010122
    60  C   -0.057116
    61  C   -0.047783
    62  C   -0.045051
    63  C   -0.042124
    64  C   -0.017486
    65  C   -0.053937
    66  C   -0.060450
    67  H    0.020923
    68  H    0.052438
    69  H    0.019924
    70  H    0.045806
    71  H    0.034337
    72  H    0.025089
    73  H    0.026158
    74  H    0.015200
    75  H    0.017420
    76  H    0.027427
    77  H    0.047413
    78  H    0.032662
    79  H    0.028727
    80  H    0.035073
    81  H    0.025472
    82  H    0.034998
    83  H    0.034727
    84  H    0.048161
    85  H    0.034661
    86  H    0.032153
    87  H    0.022709
    88  H    0.015864
    89  H    0.029618
    90  H    0.014338
    91  H    0.016293
    92  H    0.024964
    93  H    0.023550
    94  H    0.016357
    95  H    0.026282
    96  H    0.030096
    97  H    0.034546
    98  H    0.053659
    99  H    0.041729
   100  H    0.043139
   101  H    0.041889
   102  H    0.053522
   103  H    0.042437
   104  H    0.022856
   105  H    0.029612
   106  H    0.026776
   107  H    0.011786
   108  H    0.029035
   109  H    0.012405
   110  H    0.017835
   111  H    0.029845
   112  H    0.028266
   113  H    0.008276
   114  H    0.015127
   115  H    0.023034
   116  H    0.017521
   117  H    0.014909
   118  H    0.012064
   119  H    0.025530
   120  H    0.028429
   121  H   -0.000411
   122  H    0.026732
   123  H    0.016107
   124  H    0.023370
   125  H    0.033057
   126  H    0.016762
   127  H    0.003647
   128  H    0.007729
   129  H    0.027270
   130  H    0.027800
   131  H    0.021949
   132  H    0.009101
   133  H    0.028152
   134  H    0.013779
   135  H    0.023998
   136  H    0.011719
   137  H    0.020752
   138  H    0.019903
   139  H    0.020109
   140  H    0.020294
 Sum of Mulliken charges =  -0.00000

 Dipole moment (field-independent basis, Debye):
    X=              4.0165    Y=              8.1351    Z=             -0.0606  Tot=              9.0727
 N-N= 4.301119598699D+03 E-N= 0.000000000000D+00  KE=-9.276594782710D+03
 Leave Link  601 at Thu May  5 11:40:31 2022, MaxMem=  6710886400 cpu:               0.8 elap:               0.0
 (Enter /sw/apps/gaussian-16.0/g16/l9999.exe)
 1\1\GINC-BP1-COMPUTE103\SP\RZINDO CIS\STO-3G\C55H74Mg1N4O6\OF15641\05-
 May-2022\0\\#p ZINDO=(nstates=5)\\step_851_chromophore_13 ZINDO\\0,1\M
 g,0,46.538,25.109,27.98\C,0,47.223,27.037,30.898\C,0,45.944,22.34,30.0
 84\C,0,46.59,23.051,25.325\C,0,47.211,27.895,26.063\N,0,46.431,24.795,
 30.272\C,0,46.794,25.737,31.233\C,0,46.749,25.148,32.663\C,0,46.482,23
 .616,32.314\C,0,46.273,23.528,30.786\C,0,47.659,22.649,32.72\C,0,45.55
 ,25.766,33.457\C,0,45.793,26.601,34.716\C,0,44.606,26.928,35.644\O,0,4

 Normal termination of Gaussian 16 at Thu May  5 11:40:31 2022.
