 Gaussian 16, Revision A.03,
 Gaussian 16:  ES64L-G16RevA.03 25-Dec-2016

 ------------------------------
 #p blyp/Def2SVP td=(nstates=5)
 ------------------------------

 --------------------------------------------------
 step_151_chromophore_25 TDDFT with blyp functional
 --------------------------------------------------
 Symbolic Z-matrix:
 Charge =  0 Multiplicity = 1

                         Standard orientation:
 ---------------------------------------------------------------------
 Center     Atomic      Atomic             Coordinates (Angstroms)
 Number     Number       Type             X           Y           Z
 ---------------------------------------------------------------------
      1         12           0        5.672302    0.168391    0.054718
      2          6           0        3.123966   -2.118491    0.257367
      3          6           0        3.359590    2.635299   -0.406439
      4          6           0        8.283544    2.472373   -0.361187
      5          6           0        8.014357   -2.227771    0.650886
      6          7           0        3.450067    0.228153    0.040150
      7          6           0        2.622746   -0.832252    0.103349
      8          6           0        1.112541   -0.515117   -0.030397
      9          6           0        1.209247    1.011612   -0.383471
     10          6           0        2.735909    1.366853   -0.298578
     11          6           0        0.640599    1.403380   -1.761041
     12          6           0        0.198561   -0.806325    1.169082
     13          6           0       -1.161768   -1.397684    0.840658
     14          6           0       -2.421837   -0.776028    1.459240
     15          8           0       -2.558397   -0.310107    2.552991
     16          8           0       -3.391889   -0.994861    0.503260
     17          7           0        5.787037    2.333318   -0.322100
     18          6           0        4.681546    3.097962   -0.494146
     19          6           0        5.132752    4.446067   -0.795500
     20          6           0        6.612264    4.341155   -0.922724
     21          6           0        6.992796    3.021286   -0.481611
     22          6           0        4.194118    5.626541   -1.053266
     23          6           0        7.647410    5.355684   -1.391402
     24          8           0        8.790855    5.070202   -1.546783
     25          6           0        7.129922    6.651082   -1.789421
     26          7           0        7.758752    0.132978   -0.007790
     27          6           0        8.650339    1.202547   -0.131164
     28          6           0       10.135084    0.810294    0.092661
     29          6           0        9.945653   -0.659724    0.515476
     30          6           0        8.457466   -0.921952    0.446652
     31          6           0       10.977029    0.911841   -1.225581
     32          6           0       10.441410   -0.981197    1.871705
     33          6           0        9.863757   -0.261300    3.053555
     34          7           0        5.727383   -1.800417    0.337737
     35          6           0        6.713729   -2.650188    0.559006
     36          6           0        6.171978   -3.937249    0.791767
     37          6           0        4.732932   -3.837179    0.565870
     38          6           0        4.523837   -2.501976    0.380631
     39          6           0        6.919617   -5.127300    1.084146
     40          6           0        3.500649   -4.550435    0.443893
     41          8           0        3.170137   -5.704769    0.579598
     42          6           0        2.399465   -3.444037    0.189746
     43          6           0        1.767852   -3.762123   -1.085434
     44          8           0        2.399982   -4.050098   -2.094133
     45          8           0        0.409061   -3.706883   -0.931985
     46          6           0       -0.291695   -4.340104   -2.098388
     47          6           0       -4.712380   -0.930888    1.160584
     48          6           0       -5.662196   -1.450547    0.131942
     49          6           0       -6.268992   -0.738718   -0.810350
     50          6           0       -5.798736    0.714346   -1.164067
     51          6           0       -7.139685   -1.359166   -1.820359
     52          6           0       -8.598035   -1.553592   -1.310666
     53          6           0       -9.726269   -0.717955   -2.071602
     54          6           0      -11.159768   -1.318314   -1.945610
     55          6           0      -11.440726   -2.461416   -2.928796
     56          6           0      -12.229712   -0.219143   -2.272488
     57          6           0      -13.375459   -0.117957   -1.228752
     58          6           0      -13.486186    1.303102   -0.590043
     59          6           0      -12.876647    1.285606    0.834105
     60          6           0      -13.564357    2.393067    1.646675
     61          6           0      -11.362468    1.622306    0.803614
     62          6           0      -10.464938    1.056924    1.915138
     63          6           0       -9.787777    2.093185    2.878782
     64          6           0       -8.269792    2.213392    2.652289
     65          6           0       -7.757761    3.063436    3.839456
     66          6           0       -7.901682    2.807859    1.326799
     67          1           0        2.658891    3.472418   -0.383230
     68          1           0        9.112929    3.175313   -0.469774
     69          1           0        8.772741   -2.969623    0.907799
     70          1           0        0.701582   -1.067129   -0.875596
     71          1           0        0.673366    1.675377    0.294628
     72          1           0        1.383366    1.006350   -2.453996
     73          1           0        0.574258    2.483732   -1.889833
     74          1           0       -0.367401    1.018424   -1.912976
     75          1           0        0.005293    0.164494    1.625643
     76          1           0        0.791015   -1.477900    1.790495
     77          1           0       -1.134478   -2.365627    1.340579
     78          1           0       -1.326199   -1.573804   -0.222343
     79          1           0        4.381060    6.079615   -2.027736
     80          1           0        4.412689    6.417284   -0.336081
     81          1           0        3.142619    5.341848   -1.008882
     82          1           0        6.445771    6.896931   -0.977071
     83          1           0        6.609896    6.536526   -2.740652
     84          1           0        7.966875    7.347317   -1.726790
     85          1           0       10.678939    1.347066    0.870239
     86          1           0       10.561402   -1.275847   -0.138619
     87          1           0       10.329694    1.059802   -2.090527
     88          1           0       11.715085    0.126770   -1.387028
     89          1           0       11.637759    1.777471   -1.190883
     90          1           0       11.504239   -0.752302    1.948482
     91          1           0       10.352595   -2.035961    2.132269
     92          1           0        9.298143    0.601133    2.700779
     93          1           0       10.689537    0.047244    3.695371
     94          1           0        9.274588   -0.984925    3.615594
     95          1           0        7.556573   -4.946135    1.950290
     96          1           0        7.602537   -5.555976    0.351306
     97          1           0        6.258684   -5.961230    1.322777
     98          1           0        1.699421   -3.563935    1.016020
     99          1           0        0.232798   -4.077500   -3.016846
    100          1           0       -1.332047   -4.024170   -2.172749
    101          1           0       -0.252668   -5.423544   -1.988818
    102          1           0       -5.104828    0.047618    1.438514
    103          1           0       -4.780955   -1.674360    1.955138
    104          1           0       -6.011746   -2.482091    0.173517
    105          1           0       -6.616819    1.417263   -1.003217
    106          1           0       -5.367505    0.845285   -2.155782
    107          1           0       -5.104220    1.142127   -0.440257
    108          1           0       -6.655174   -2.303534   -2.069933
    109          1           0       -7.124536   -0.809815   -2.761744
    110          1           0       -8.701065   -1.246999   -0.270332
    111          1           0       -8.912122   -2.595246   -1.372019
    112          1           0       -9.530965   -0.510396   -3.123390
    113          1           0       -9.708942    0.321324   -1.741749
    114          1           0      -11.337679   -1.735074   -0.954535
    115          1           0      -12.483264   -2.780497   -2.919714
    116          1           0      -10.795192   -3.243016   -2.526831
    117          1           0      -11.081080   -2.236873   -3.932470
    118          1           0      -12.620762   -0.347494   -3.281164
    119          1           0      -11.708643    0.725193   -2.429219
    120          1           0      -13.205400   -0.809499   -0.403307
    121          1           0      -14.354616   -0.209005   -1.700674
    122          1           0      -14.547200    1.539965   -0.514331
    123          1           0      -12.963620    2.088247   -1.136935
    124          1           0      -13.038263    0.332868    1.338118
    125          1           0      -14.410952    1.911806    2.136796
    126          1           0      -14.078311    3.113351    1.010459
    127          1           0      -12.994415    2.818335    2.472524
    128          1           0      -11.292199    2.693906    0.615082
    129          1           0      -10.943750    1.029451   -0.009072
    130          1           0       -9.730487    0.378349    1.481205
    131          1           0      -11.058415    0.309344    2.441573
    132          1           0      -10.169175    1.842874    3.868496
    133          1           0      -10.236268    3.045745    2.596067
    134          1           0       -7.862693    1.204859    2.727024
    135          1           0       -8.515716    3.568871    4.437775
    136          1           0       -7.198586    3.960722    3.574951
    137          1           0       -7.192502    2.382414    4.475123
    138          1           0       -8.655201    3.507146    0.965083
    139          1           0       -7.864539    1.853945    0.800631
    140          1           0       -6.944826    3.330175    1.315042
 ---------------------------------------------------------------------

 SCF Done:  E(RB-LYP) =  -3007.35226082     A.U. after   21 cycles

 Excitation energies and oscillator strengths:

 Excited State   1:      Singlet-A      1.7674 eV  701.52 nm  f=0.0748  <S**2>=0.000
     244 -> 247        0.56612
     245 -> 247       -0.12250
     246 -> 247        0.39786
 This state for optimization and/or second-order correction.
 Total Energy, E(TD-HF/TD-DFT) =  -3007.28731120
 Copying the excited state density for this state as the 1-particle RhoCI density.

 Excited State   2:      Singlet-A      1.8469 eV  671.32 nm  f=0.2406  <S**2>=0.000
     244 -> 247       -0.37768
     245 -> 247        0.13589
     245 -> 248        0.15931
     246 -> 247        0.56868
     246 <- 247       -0.13621

 Excited State   3:      Singlet-A      1.9515 eV  635.32 nm  f=0.0263  <S**2>=0.000
     242 -> 247       -0.10110
     243 -> 247        0.59614
     244 -> 247       -0.10224
     245 -> 247       -0.33485

 Excited State   4:      Singlet-A      1.9905 eV  622.89 nm  f=0.0642  <S**2>=0.000
     242 -> 247        0.16395
     243 -> 247        0.37775
     244 -> 247        0.15682
     245 -> 247        0.51569
     246 -> 248       -0.17183

 Excited State   5:      Singlet-A      2.1988 eV  563.86 nm  f=0.0273  <S**2>=0.000
     242 -> 247        0.66944
     245 -> 247       -0.17496

 The electronic state is 1-A.
 Alpha  occ. eigenvalues --  -46.26505 -18.83240 -18.82397 -18.77820 -18.77062
 Alpha  occ. eigenvalues --  -18.75825 -18.75240 -14.03736 -14.03051 -14.00486
 Alpha  occ. eigenvalues --  -14.00295 -10.04082 -10.04034  -9.99549  -9.98814
 Alpha  occ. eigenvalues --   -9.98063  -9.97750  -9.97216  -9.96728  -9.96007
 Alpha  occ. eigenvalues --   -9.95761  -9.95441  -9.95201  -9.94864  -9.94506
 Alpha  occ. eigenvalues --   -9.94389  -9.94184  -9.94178  -9.93982  -9.93635
 Alpha  occ. eigenvalues --   -9.93322  -9.93296  -9.93250  -9.93141  -9.92965
 Alpha  occ. eigenvalues --   -9.92885  -9.92877  -9.92548  -9.92533  -9.92394
 Alpha  occ. eigenvalues --   -9.92202  -9.92149  -9.92140  -9.92098  -9.92006
 Alpha  occ. eigenvalues --   -9.91979  -9.91837  -9.91814  -9.91616  -9.91438
 Alpha  occ. eigenvalues --   -9.91426  -9.91363  -9.91291  -9.91290  -9.91217
 Alpha  occ. eigenvalues --   -9.91138  -9.91070  -9.91049  -9.91004  -9.90949
 Alpha  occ. eigenvalues --   -9.90896  -9.90884  -9.90749  -9.90560  -9.90273
 Alpha  occ. eigenvalues --   -9.90265  -2.91190  -1.71631  -1.71058  -1.70909
 Alpha  occ. eigenvalues --   -0.98585  -0.98093  -0.93279  -0.92180  -0.91468
 Alpha  occ. eigenvalues --   -0.90224  -0.87084  -0.85957  -0.85625  -0.83966
 Alpha  occ. eigenvalues --   -0.76098  -0.74091  -0.73298  -0.73281  -0.73117
 Alpha  occ. eigenvalues --   -0.72328  -0.71866  -0.71234  -0.71005  -0.70142
 Alpha  occ. eigenvalues --   -0.69506  -0.69355  -0.68226  -0.68009  -0.67268
 Alpha  occ. eigenvalues --   -0.66715  -0.66330  -0.65790  -0.65047  -0.64737
 Alpha  occ. eigenvalues --   -0.63940  -0.62579  -0.62259  -0.61774  -0.60973
 Alpha  occ. eigenvalues --   -0.60888  -0.60617  -0.59691  -0.59201  -0.58944
 Alpha  occ. eigenvalues --   -0.58082  -0.57589  -0.56622  -0.55644  -0.54676
 Alpha  occ. eigenvalues --   -0.54599  -0.53936  -0.52664  -0.52207  -0.51276
 Alpha  occ. eigenvalues --   -0.50976  -0.50771  -0.50730  -0.50060  -0.50053
 Alpha  occ. eigenvalues --   -0.49604  -0.49514  -0.48789  -0.48586  -0.46287
 Alpha  occ. eigenvalues --   -0.46197  -0.46064  -0.45798  -0.45316  -0.45031
 Alpha  occ. eigenvalues --   -0.44438  -0.44208  -0.43459  -0.43293  -0.42898
 Alpha  occ. eigenvalues --   -0.42199  -0.41880  -0.41759  -0.41642  -0.41502
 Alpha  occ. eigenvalues --   -0.41269  -0.40928  -0.40740  -0.40439  -0.40311
 Alpha  occ. eigenvalues --   -0.40200  -0.39993  -0.39682  -0.39473  -0.39339
 Alpha  occ. eigenvalues --   -0.39050  -0.38923  -0.38608  -0.38545  -0.38454
 Alpha  occ. eigenvalues --   -0.38056  -0.37846  -0.37739  -0.37589  -0.37269
 Alpha  occ. eigenvalues --   -0.37233  -0.37157  -0.36729  -0.36650  -0.36572
 Alpha  occ. eigenvalues --   -0.36375  -0.36221  -0.36217  -0.35874  -0.35715
 Alpha  occ. eigenvalues --   -0.35402  -0.35358  -0.34991  -0.34733  -0.34619
 Alpha  occ. eigenvalues --   -0.34575  -0.34413  -0.34242  -0.34019  -0.33916
 Alpha  occ. eigenvalues --   -0.33745  -0.33547  -0.33505  -0.33332  -0.33198
 Alpha  occ. eigenvalues --   -0.33003  -0.32803  -0.32577  -0.32492  -0.32211
 Alpha  occ. eigenvalues --   -0.31972  -0.31765  -0.31742  -0.31548  -0.31508
 Alpha  occ. eigenvalues --   -0.31402  -0.31257  -0.31112  -0.31097  -0.30879
 Alpha  occ. eigenvalues --   -0.30641  -0.30404  -0.30293  -0.30102  -0.29905
 Alpha  occ. eigenvalues --   -0.29750  -0.29712  -0.29561  -0.29385  -0.29089
 Alpha  occ. eigenvalues --   -0.28453  -0.28429  -0.28190  -0.27925  -0.27805
 Alpha  occ. eigenvalues --   -0.27765  -0.27642  -0.27419  -0.26964  -0.26780
 Alpha  occ. eigenvalues --   -0.26544  -0.26112  -0.25982  -0.25694  -0.25599
 Alpha  occ. eigenvalues --   -0.25258  -0.24730  -0.24190  -0.24043  -0.23275
 Alpha  occ. eigenvalues --   -0.23032  -0.22817  -0.22775  -0.21841  -0.20691
 Alpha  occ. eigenvalues --   -0.20233  -0.19374  -0.19024  -0.18447  -0.17336
 Alpha  occ. eigenvalues --   -0.16076
 Alpha virt. eigenvalues --   -0.11912  -0.06458  -0.05956  -0.04438  -0.03358
 Alpha virt. eigenvalues --   -0.03136  -0.02001  -0.01904  -0.00619   0.00145
 Alpha virt. eigenvalues --    0.01126   0.01285   0.01516   0.02528   0.02899

 Mulliken charges:
               1
     1  Mg   0.684700
     2  C    0.009060
     3  C   -0.068919
     4  C   -0.027851
     5  C   -0.156949
     6  N   -0.205947
     7  C   -0.102826
     8  C    0.043258
     9  C   -0.002851
    10  C    0.038324
    11  C    0.105956
    12  C    0.161293
    13  C    0.112788
    14  C    0.054030
    15  O   -0.151776
    16  O   -0.272046
    17  N   -0.266056
    18  C    0.121113
    19  C   -0.133794
    20  C   -0.008444
    21  C    0.089522
    22  C    0.161956
    23  C   -0.111109
    24  O   -0.135438
    25  C    0.167096
    26  N   -0.227239
    27  C    0.037312
    28  C    0.015847
    29  C    0.089309
    30  C    0.093366
    31  C    0.108491
    32  C    0.025213
    33  C    0.077081
    34  N   -0.294385
    35  C    0.177384
    36  C   -0.157237
    37  C    0.114626
    38  C    0.082502
    39  C    0.153324
    40  C   -0.086698
    41  O   -0.110111
    42  C    0.071032
    43  C    0.116148
    44  O   -0.177127
    45  O   -0.277818
    46  C    0.206944
    47  C    0.344658
    48  C   -0.122727
    49  C   -0.154501
    50  C    0.110475
    51  C    0.181216
    52  C    0.088391
    53  C    0.054805
    54  C   -0.082184
    55  C    0.119165
    56  C    0.114705
    57  C    0.115515
    58  C    0.084364
    59  C   -0.094871
    60  C    0.117777
    61  C    0.086271
    62  C    0.065688
    63  C    0.095339
    64  C   -0.104754
    65  C    0.113455
    66  C    0.104136
    67  H   -0.061795
    68  H   -0.043756
    69  H   -0.062569
    70  H   -0.022423
    71  H   -0.019413
    72  H   -0.001781
    73  H   -0.011988
    74  H   -0.002907
    75  H   -0.013281
    76  H   -0.022371
    77  H    0.007941
    78  H   -0.002761
    79  H   -0.002769
    80  H    0.009836
    81  H   -0.015720
    82  H   -0.015642
    83  H    0.029960
    84  H   -0.010663
    85  H   -0.016729
    86  H   -0.034021
    87  H    0.006698
    88  H   -0.011263
    89  H   -0.014114
    90  H   -0.037130
    91  H   -0.030858
    92  H    0.004159
    93  H   -0.016743
    94  H   -0.010375
    95  H   -0.013293
    96  H    0.000467
    97  H   -0.002757
    98  H   -0.012772
    99  H    0.024577
   100  H    0.020299
   101  H    0.024086
   102  H    0.015493
   103  H   -0.009161
   104  H   -0.048733
   105  H   -0.010133
   106  H    0.008147
   107  H   -0.026017
   108  H   -0.023941
   109  H   -0.037237
   110  H   -0.011586
   111  H   -0.026535
   112  H   -0.046205
   113  H   -0.027971
   114  H   -0.037299
   115  H   -0.005922
   116  H   -0.034155
   117  H   -0.016042
   118  H   -0.047123
   119  H   -0.052023
   120  H   -0.023048
   121  H   -0.032994
   122  H   -0.042185
   123  H   -0.025658
   124  H   -0.042890
   125  H   -0.037190
   126  H   -0.017840
   127  H   -0.015453
   128  H   -0.024039
   129  H   -0.039716
   130  H   -0.042707
   131  H   -0.055251
   132  H   -0.024968
   133  H   -0.031656
   134  H   -0.029574
   135  H   -0.027031
   136  H   -0.033189
   137  H   -0.007989
   138  H   -0.010623
   139  H    0.008878
   140  H   -0.006541
 Sum of Mulliken charges =  -0.00000

 Dipole moment (field-independent basis, Debye):
    X=             -2.8636    Y=              2.1784    Z=             -0.6631  Tot=              3.6587
 Quadrupole moment (field-independent basis, Debye-Ang):
   XX=           -379.1786   YY=           -419.2560   ZZ=           -412.6016
   XY=             -1.4664   XZ=             22.6423   YZ=             -3.3305

 Normal termination of Gaussian 16 at Thu Apr 28 11:05:48 2022.
