 Gaussian 16, Revision A.03,
 Gaussian 16:  ES64L-G16RevA.03 25-Dec-2016

 -----------------------------------
 #p cam-b3lyp/Def2SVP td=(nstates=5)
 -----------------------------------

 -------------------------------------------------------
 step_151_chromophore_25 TDDFT with cam-b3lyp functional
 -------------------------------------------------------
 Symbolic Z-matrix:
 Charge =  0 Multiplicity = 1

                         Standard orientation:
 ---------------------------------------------------------------------
 Center     Atomic      Atomic             Coordinates (Angstroms)
 Number     Number       Type             X           Y           Z
 ---------------------------------------------------------------------
      1         12           0        5.672302    0.168391    0.054718
      2          6           0        3.123966   -2.118491    0.257367
      3          6           0        3.359590    2.635299   -0.406439
      4          6           0        8.283544    2.472373   -0.361187
      5          6           0        8.014357   -2.227771    0.650886
      6          7           0        3.450067    0.228153    0.040150
      7          6           0        2.622746   -0.832252    0.103349
      8          6           0        1.112541   -0.515117   -0.030397
      9          6           0        1.209247    1.011612   -0.383471
     10          6           0        2.735909    1.366853   -0.298578
     11          6           0        0.640599    1.403380   -1.761041
     12          6           0        0.198561   -0.806325    1.169082
     13          6           0       -1.161768   -1.397684    0.840658
     14          6           0       -2.421837   -0.776028    1.459240
     15          8           0       -2.558397   -0.310107    2.552991
     16          8           0       -3.391889   -0.994861    0.503260
     17          7           0        5.787037    2.333318   -0.322100
     18          6           0        4.681546    3.097962   -0.494146
     19          6           0        5.132752    4.446067   -0.795500
     20          6           0        6.612264    4.341155   -0.922724
     21          6           0        6.992796    3.021286   -0.481611
     22          6           0        4.194118    5.626541   -1.053266
     23          6           0        7.647410    5.355684   -1.391402
     24          8           0        8.790855    5.070202   -1.546783
     25          6           0        7.129922    6.651082   -1.789421
     26          7           0        7.758752    0.132978   -0.007790
     27          6           0        8.650339    1.202547   -0.131164
     28          6           0       10.135084    0.810294    0.092661
     29          6           0        9.945653   -0.659724    0.515476
     30          6           0        8.457466   -0.921952    0.446652
     31          6           0       10.977029    0.911841   -1.225581
     32          6           0       10.441410   -0.981197    1.871705
     33          6           0        9.863757   -0.261300    3.053555
     34          7           0        5.727383   -1.800417    0.337737
     35          6           0        6.713729   -2.650188    0.559006
     36          6           0        6.171978   -3.937249    0.791767
     37          6           0        4.732932   -3.837179    0.565870
     38          6           0        4.523837   -2.501976    0.380631
     39          6           0        6.919617   -5.127300    1.084146
     40          6           0        3.500649   -4.550435    0.443893
     41          8           0        3.170137   -5.704769    0.579598
     42          6           0        2.399465   -3.444037    0.189746
     43          6           0        1.767852   -3.762123   -1.085434
     44          8           0        2.399982   -4.050098   -2.094133
     45          8           0        0.409061   -3.706883   -0.931985
     46          6           0       -0.291695   -4.340104   -2.098388
     47          6           0       -4.712380   -0.930888    1.160584
     48          6           0       -5.662196   -1.450547    0.131942
     49          6           0       -6.268992   -0.738718   -0.810350
     50          6           0       -5.798736    0.714346   -1.164067
     51          6           0       -7.139685   -1.359166   -1.820359
     52          6           0       -8.598035   -1.553592   -1.310666
     53          6           0       -9.726269   -0.717955   -2.071602
     54          6           0      -11.159768   -1.318314   -1.945610
     55          6           0      -11.440726   -2.461416   -2.928796
     56          6           0      -12.229712   -0.219143   -2.272488
     57          6           0      -13.375459   -0.117957   -1.228752
     58          6           0      -13.486186    1.303102   -0.590043
     59          6           0      -12.876647    1.285606    0.834105
     60          6           0      -13.564357    2.393067    1.646675
     61          6           0      -11.362468    1.622306    0.803614
     62          6           0      -10.464938    1.056924    1.915138
     63          6           0       -9.787777    2.093185    2.878782
     64          6           0       -8.269792    2.213392    2.652289
     65          6           0       -7.757761    3.063436    3.839456
     66          6           0       -7.901682    2.807859    1.326799
     67          1           0        2.658891    3.472418   -0.383230
     68          1           0        9.112929    3.175313   -0.469774
     69          1           0        8.772741   -2.969623    0.907799
     70          1           0        0.701582   -1.067129   -0.875596
     71          1           0        0.673366    1.675377    0.294628
     72          1           0        1.383366    1.006350   -2.453996
     73          1           0        0.574258    2.483732   -1.889833
     74          1           0       -0.367401    1.018424   -1.912976
     75          1           0        0.005293    0.164494    1.625643
     76          1           0        0.791015   -1.477900    1.790495
     77          1           0       -1.134478   -2.365627    1.340579
     78          1           0       -1.326199   -1.573804   -0.222343
     79          1           0        4.381060    6.079615   -2.027736
     80          1           0        4.412689    6.417284   -0.336081
     81          1           0        3.142619    5.341848   -1.008882
     82          1           0        6.445771    6.896931   -0.977071
     83          1           0        6.609896    6.536526   -2.740652
     84          1           0        7.966875    7.347317   -1.726790
     85          1           0       10.678939    1.347066    0.870239
     86          1           0       10.561402   -1.275847   -0.138619
     87          1           0       10.329694    1.059802   -2.090527
     88          1           0       11.715085    0.126770   -1.387028
     89          1           0       11.637759    1.777471   -1.190883
     90          1           0       11.504239   -0.752302    1.948482
     91          1           0       10.352595   -2.035961    2.132269
     92          1           0        9.298143    0.601133    2.700779
     93          1           0       10.689537    0.047244    3.695371
     94          1           0        9.274588   -0.984925    3.615594
     95          1           0        7.556573   -4.946135    1.950290
     96          1           0        7.602537   -5.555976    0.351306
     97          1           0        6.258684   -5.961230    1.322777
     98          1           0        1.699421   -3.563935    1.016020
     99          1           0        0.232798   -4.077500   -3.016846
    100          1           0       -1.332047   -4.024170   -2.172749
    101          1           0       -0.252668   -5.423544   -1.988818
    102          1           0       -5.104828    0.047618    1.438514
    103          1           0       -4.780955   -1.674360    1.955138
    104          1           0       -6.011746   -2.482091    0.173517
    105          1           0       -6.616819    1.417263   -1.003217
    106          1           0       -5.367505    0.845285   -2.155782
    107          1           0       -5.104220    1.142127   -0.440257
    108          1           0       -6.655174   -2.303534   -2.069933
    109          1           0       -7.124536   -0.809815   -2.761744
    110          1           0       -8.701065   -1.246999   -0.270332
    111          1           0       -8.912122   -2.595246   -1.372019
    112          1           0       -9.530965   -0.510396   -3.123390
    113          1           0       -9.708942    0.321324   -1.741749
    114          1           0      -11.337679   -1.735074   -0.954535
    115          1           0      -12.483264   -2.780497   -2.919714
    116          1           0      -10.795192   -3.243016   -2.526831
    117          1           0      -11.081080   -2.236873   -3.932470
    118          1           0      -12.620762   -0.347494   -3.281164
    119          1           0      -11.708643    0.725193   -2.429219
    120          1           0      -13.205400   -0.809499   -0.403307
    121          1           0      -14.354616   -0.209005   -1.700674
    122          1           0      -14.547200    1.539965   -0.514331
    123          1           0      -12.963620    2.088247   -1.136935
    124          1           0      -13.038263    0.332868    1.338118
    125          1           0      -14.410952    1.911806    2.136796
    126          1           0      -14.078311    3.113351    1.010459
    127          1           0      -12.994415    2.818335    2.472524
    128          1           0      -11.292199    2.693906    0.615082
    129          1           0      -10.943750    1.029451   -0.009072
    130          1           0       -9.730487    0.378349    1.481205
    131          1           0      -11.058415    0.309344    2.441573
    132          1           0      -10.169175    1.842874    3.868496
    133          1           0      -10.236268    3.045745    2.596067
    134          1           0       -7.862693    1.204859    2.727024
    135          1           0       -8.515716    3.568871    4.437775
    136          1           0       -7.198586    3.960722    3.574951
    137          1           0       -7.192502    2.382414    4.475123
    138          1           0       -8.655201    3.507146    0.965083
    139          1           0       -7.864539    1.853945    0.800631
    140          1           0       -6.944826    3.330175    1.315042
 ---------------------------------------------------------------------

 SCF Done:  E(RCAM-B3LYP) =  -3007.16176375     A.U. after   16 cycles

 Excitation energies and oscillator strengths:

 Excited State   1:      Singlet-A      1.6981 eV  730.13 nm  f=0.3888  <S**2>=0.000
     245 -> 248        0.16947
     246 -> 247        0.68728
     245 <- 248        0.10677
 This state for optimization and/or second-order correction.
 Total Energy, E(TD-HF/TD-DFT) =  -3007.09935935
 Copying the excited state density for this state as the 1-particle RhoCI density.

 Excited State   2:      Singlet-A      2.1676 eV  571.98 nm  f=0.1729  <S**2>=0.000
     245 -> 247        0.65635
     246 -> 248       -0.24020

 Excited State   3:      Singlet-A      2.9789 eV  416.20 nm  f=0.0064  <S**2>=0.000
     244 -> 247        0.68779

 Excited State   4:      Singlet-A      3.2184 eV  385.24 nm  f=0.0139  <S**2>=0.000
     243 -> 247        0.68283

 Excited State   5:      Singlet-A      3.5403 eV  350.21 nm  f=0.0002  <S**2>=0.000
     240 -> 247        0.59811
     240 -> 249       -0.29212
     240 -> 250        0.15195

 The electronic state is 1-A.
 Alpha  occ. eigenvalues --  -46.87991 -19.26300 -19.25333 -19.20819 -19.20204
 Alpha  occ. eigenvalues --  -19.19068 -19.18371 -14.42747 -14.41860 -14.38819
 Alpha  occ. eigenvalues --  -14.38652 -10.39498 -10.39354 -10.34899 -10.33832
 Alpha  occ. eigenvalues --  -10.32218 -10.31893 -10.31754 -10.31289 -10.30438
 Alpha  occ. eigenvalues --  -10.30113 -10.29625 -10.29534 -10.29311 -10.28772
 Alpha  occ. eigenvalues --  -10.28697 -10.28419 -10.28379 -10.28278 -10.27729
 Alpha  occ. eigenvalues --  -10.27544 -10.27525 -10.27504 -10.27185 -10.27006
 Alpha  occ. eigenvalues --  -10.26902 -10.26767 -10.26407 -10.26289 -10.26246
 Alpha  occ. eigenvalues --  -10.26197 -10.25955 -10.25904 -10.25883 -10.25848
 Alpha  occ. eigenvalues --  -10.25682 -10.25578 -10.25448 -10.25311 -10.25279
 Alpha  occ. eigenvalues --  -10.25238 -10.25204 -10.25165 -10.25125 -10.25056
 Alpha  occ. eigenvalues --  -10.24960 -10.24829 -10.24634 -10.24594 -10.24591
 Alpha  occ. eigenvalues --  -10.24589 -10.24492 -10.24443 -10.24240 -10.23869
 Alpha  occ. eigenvalues --  -10.23837  -3.16586  -1.91502  -1.91032  -1.90898
 Alpha  occ. eigenvalues --   -1.17125  -1.16707  -1.11719  -1.10671  -1.09386
 Alpha  occ. eigenvalues --   -1.08240  -1.04820  -1.03674  -1.03215  -1.01389
 Alpha  occ. eigenvalues --   -0.93351  -0.90999  -0.90128  -0.90014  -0.89935
 Alpha  occ. eigenvalues --   -0.89054  -0.88513  -0.87853  -0.87633  -0.86668
 Alpha  occ. eigenvalues --   -0.86031  -0.85851  -0.84478  -0.84243  -0.83446
 Alpha  occ. eigenvalues --   -0.82778  -0.82479  -0.81766  -0.80912  -0.80612
 Alpha  occ. eigenvalues --   -0.79715  -0.78249  -0.77893  -0.77334  -0.76412
 Alpha  occ. eigenvalues --   -0.76334  -0.75995  -0.74950  -0.74492  -0.74185
 Alpha  occ. eigenvalues --   -0.73146  -0.72607  -0.71494  -0.70458  -0.69285
 Alpha  occ. eigenvalues --   -0.69255  -0.68536  -0.67074  -0.66601  -0.65479
 Alpha  occ. eigenvalues --   -0.65142  -0.64962  -0.64692  -0.64106  -0.63987
 Alpha  occ. eigenvalues --   -0.63562  -0.63329  -0.62725  -0.62400  -0.59986
 Alpha  occ. eigenvalues --   -0.59834  -0.59548  -0.59146  -0.58868  -0.58691
 Alpha  occ. eigenvalues --   -0.57910  -0.57633  -0.56776  -0.56290  -0.55898
 Alpha  occ. eigenvalues --   -0.55547  -0.55159  -0.55094  -0.54858  -0.54500
 Alpha  occ. eigenvalues --   -0.53944  -0.53665  -0.53572  -0.53375  -0.52942
 Alpha  occ. eigenvalues --   -0.52812  -0.52643  -0.52435  -0.52206  -0.51902
 Alpha  occ. eigenvalues --   -0.51769  -0.51587  -0.51287  -0.51131  -0.50882
 Alpha  occ. eigenvalues --   -0.50393  -0.50213  -0.49989  -0.49898  -0.49822
 Alpha  occ. eigenvalues --   -0.49694  -0.49476  -0.49374  -0.49254  -0.48914
 Alpha  occ. eigenvalues --   -0.48667  -0.48500  -0.48160  -0.48124  -0.47676
 Alpha  occ. eigenvalues --   -0.47463  -0.47361  -0.47040  -0.46799  -0.46552
 Alpha  occ. eigenvalues --   -0.46420  -0.46230  -0.46056  -0.45931  -0.45756
 Alpha  occ. eigenvalues --   -0.45622  -0.45472  -0.45231  -0.45143  -0.45016
 Alpha  occ. eigenvalues --   -0.44659  -0.44548  -0.44316  -0.44042  -0.43999
 Alpha  occ. eigenvalues --   -0.43701  -0.43569  -0.43383  -0.43316  -0.43033
 Alpha  occ. eigenvalues --   -0.43030  -0.42882  -0.42599  -0.42404  -0.42359
 Alpha  occ. eigenvalues --   -0.42283  -0.41891  -0.41603  -0.41341  -0.41122
 Alpha  occ. eigenvalues --   -0.41030  -0.40879  -0.40606  -0.40496  -0.40241
 Alpha  occ. eigenvalues --   -0.39712  -0.39380  -0.39141  -0.38789  -0.38763
 Alpha  occ. eigenvalues --   -0.38651  -0.38541  -0.38325  -0.37889  -0.37731
 Alpha  occ. eigenvalues --   -0.37690  -0.37309  -0.37123  -0.36758  -0.36467
 Alpha  occ. eigenvalues --   -0.36273  -0.35371  -0.35159  -0.34931  -0.34436
 Alpha  occ. eigenvalues --   -0.34009  -0.33488  -0.33199  -0.31305  -0.31089
 Alpha  occ. eigenvalues --   -0.30512  -0.30460  -0.29401  -0.28494  -0.24079
 Alpha  occ. eigenvalues --   -0.21484
 Alpha virt. eigenvalues --   -0.09260  -0.01199   0.00609   0.02563   0.03986
 Alpha virt. eigenvalues --    0.04120   0.04593   0.05034   0.05918   0.06333
 Alpha virt. eigenvalues --    0.07250   0.08406   0.08757   0.09083   0.09110

 Mulliken charges:
               1
     1  Mg   0.819785
     2  C   -0.018072
     3  C   -0.080079
     4  C   -0.043585
     5  C   -0.154691
     6  N   -0.275835
     7  C   -0.062524
     8  C   -0.001696
     9  C   -0.054670
    10  C    0.051618
    11  C    0.053727
    12  C    0.107186
    13  C    0.041643
    14  C    0.138611
    15  O   -0.193734
    16  O   -0.334145
    17  N   -0.352774
    18  C    0.131783
    19  C   -0.140518
    20  C   -0.078440
    21  C    0.115064
    22  C    0.106040
    23  C   -0.025319
    24  O   -0.177563
    25  C    0.078317
    26  N   -0.300254
    27  C    0.048300
    28  C   -0.038075
    29  C    0.026929
    30  C    0.104567
    31  C    0.053511
    32  C   -0.025209
    33  C    0.013920
    34  N   -0.389949
    35  C    0.183341
    36  C   -0.146835
    37  C    0.028587
    38  C    0.123490
    39  C    0.093681
    40  C    0.016486
    41  O   -0.149202
    42  C   -0.008326
    43  C    0.205569
    44  O   -0.215787
    45  O   -0.342835
    46  C    0.165971
    47  C    0.304441
    48  C   -0.136454
    49  C   -0.175064
    50  C    0.054866
    51  C    0.111695
    52  C    0.039595
    53  C    0.008013
    54  C   -0.140305
    55  C    0.065404
    56  C    0.057138
    57  C    0.057739
    58  C    0.029680
    59  C   -0.145471
    60  C    0.056236
    61  C    0.036718
    62  C    0.017435
    63  C    0.040884
    64  C   -0.159314
    65  C    0.051343
    66  C    0.049775
    67  H   -0.029007
    68  H   -0.002383
    69  H   -0.025877
    70  H    0.012172
    71  H    0.013984
    72  H    0.021773
    73  H    0.012348
    74  H    0.020695
    75  H    0.019123
    76  H    0.008414
    77  H    0.038762
    78  H    0.030091
    79  H    0.022801
    80  H    0.034878
    81  H    0.011638
    82  H    0.010837
    83  H    0.056923
    84  H    0.024519
    85  H    0.017873
    86  H    0.003655
    87  H    0.032350
    88  H    0.012843
    89  H    0.010548
    90  H   -0.006772
    91  H   -0.001239
    92  H    0.024640
    93  H    0.008872
    94  H    0.014117
    95  H    0.011818
    96  H    0.028014
    97  H    0.025892
    98  H    0.030709
    99  H    0.051483
   100  H    0.043027
   101  H    0.047319
   102  H    0.039829
   103  H    0.021938
   104  H   -0.015615
   105  H    0.011468
   106  H    0.032660
   107  H   -0.000731
   108  H    0.008730
   109  H   -0.004979
   110  H    0.012051
   111  H    0.000359
   112  H   -0.017560
   113  H   -0.002507
   114  H   -0.007534
   115  H    0.018273
   116  H   -0.010821
   117  H    0.007212
   118  H   -0.015552
   119  H   -0.021935
   120  H    0.003015
   121  H   -0.002348
   122  H   -0.010485
   123  H    0.002014
   124  H   -0.011711
   125  H   -0.010860
   126  H    0.007172
   127  H    0.008101
   128  H    0.001957
   129  H   -0.017656
   130  H   -0.017716
   131  H   -0.023858
   132  H    0.005700
   133  H   -0.006099
   134  H   -0.000416
   135  H   -0.001593
   136  H   -0.007838
   137  H    0.016063
   138  H    0.012420
   139  H    0.022204
   140  H    0.017446
 Sum of Mulliken charges =  -0.00000

 Dipole moment (field-independent basis, Debye):
    X=             -3.0634    Y=              2.4321    Z=             -0.7392  Tot=              3.9807
 Quadrupole moment (field-independent basis, Debye-Ang):
   XX=           -376.8504   YY=           -415.2374   ZZ=           -412.7758
   XY=             -0.4279   XZ=             23.3922   YZ=             -4.2184

 Normal termination of Gaussian 16 at Thu Apr 28 09:56:50 2022.
