 Gaussian 16, Revision A.03,
 Gaussian 16:  ES64L-G16RevA.03 25-Dec-2016

 ---------------------------------
 #p PBE1PBE/Def2SVP td=(nstates=5)
 ---------------------------------

 -----------------------------------------------------
 step_151_chromophore_25 TDDFT with PBE1PBE functional
 -----------------------------------------------------
 Symbolic Z-matrix:
 Charge =  0 Multiplicity = 1

                         Standard orientation:
 ---------------------------------------------------------------------
 Center     Atomic      Atomic             Coordinates (Angstroms)
 Number     Number       Type             X           Y           Z
 ---------------------------------------------------------------------
      1         12           0        5.672302    0.168391    0.054718
      2          6           0        3.123966   -2.118491    0.257367
      3          6           0        3.359590    2.635299   -0.406439
      4          6           0        8.283544    2.472373   -0.361187
      5          6           0        8.014357   -2.227771    0.650886
      6          7           0        3.450067    0.228153    0.040150
      7          6           0        2.622746   -0.832252    0.103349
      8          6           0        1.112541   -0.515117   -0.030397
      9          6           0        1.209247    1.011612   -0.383471
     10          6           0        2.735909    1.366853   -0.298578
     11          6           0        0.640599    1.403380   -1.761041
     12          6           0        0.198561   -0.806325    1.169082
     13          6           0       -1.161768   -1.397684    0.840658
     14          6           0       -2.421837   -0.776028    1.459240
     15          8           0       -2.558397   -0.310107    2.552991
     16          8           0       -3.391889   -0.994861    0.503260
     17          7           0        5.787037    2.333318   -0.322100
     18          6           0        4.681546    3.097962   -0.494146
     19          6           0        5.132752    4.446067   -0.795500
     20          6           0        6.612264    4.341155   -0.922724
     21          6           0        6.992796    3.021286   -0.481611
     22          6           0        4.194118    5.626541   -1.053266
     23          6           0        7.647410    5.355684   -1.391402
     24          8           0        8.790855    5.070202   -1.546783
     25          6           0        7.129922    6.651082   -1.789421
     26          7           0        7.758752    0.132978   -0.007790
     27          6           0        8.650339    1.202547   -0.131164
     28          6           0       10.135084    0.810294    0.092661
     29          6           0        9.945653   -0.659724    0.515476
     30          6           0        8.457466   -0.921952    0.446652
     31          6           0       10.977029    0.911841   -1.225581
     32          6           0       10.441410   -0.981197    1.871705
     33          6           0        9.863757   -0.261300    3.053555
     34          7           0        5.727383   -1.800417    0.337737
     35          6           0        6.713729   -2.650188    0.559006
     36          6           0        6.171978   -3.937249    0.791767
     37          6           0        4.732932   -3.837179    0.565870
     38          6           0        4.523837   -2.501976    0.380631
     39          6           0        6.919617   -5.127300    1.084146
     40          6           0        3.500649   -4.550435    0.443893
     41          8           0        3.170137   -5.704769    0.579598
     42          6           0        2.399465   -3.444037    0.189746
     43          6           0        1.767852   -3.762123   -1.085434
     44          8           0        2.399982   -4.050098   -2.094133
     45          8           0        0.409061   -3.706883   -0.931985
     46          6           0       -0.291695   -4.340104   -2.098388
     47          6           0       -4.712380   -0.930888    1.160584
     48          6           0       -5.662196   -1.450547    0.131942
     49          6           0       -6.268992   -0.738718   -0.810350
     50          6           0       -5.798736    0.714346   -1.164067
     51          6           0       -7.139685   -1.359166   -1.820359
     52          6           0       -8.598035   -1.553592   -1.310666
     53          6           0       -9.726269   -0.717955   -2.071602
     54          6           0      -11.159768   -1.318314   -1.945610
     55          6           0      -11.440726   -2.461416   -2.928796
     56          6           0      -12.229712   -0.219143   -2.272488
     57          6           0      -13.375459   -0.117957   -1.228752
     58          6           0      -13.486186    1.303102   -0.590043
     59          6           0      -12.876647    1.285606    0.834105
     60          6           0      -13.564357    2.393067    1.646675
     61          6           0      -11.362468    1.622306    0.803614
     62          6           0      -10.464938    1.056924    1.915138
     63          6           0       -9.787777    2.093185    2.878782
     64          6           0       -8.269792    2.213392    2.652289
     65          6           0       -7.757761    3.063436    3.839456
     66          6           0       -7.901682    2.807859    1.326799
     67          1           0        2.658891    3.472418   -0.383230
     68          1           0        9.112929    3.175313   -0.469774
     69          1           0        8.772741   -2.969623    0.907799
     70          1           0        0.701582   -1.067129   -0.875596
     71          1           0        0.673366    1.675377    0.294628
     72          1           0        1.383366    1.006350   -2.453996
     73          1           0        0.574258    2.483732   -1.889833
     74          1           0       -0.367401    1.018424   -1.912976
     75          1           0        0.005293    0.164494    1.625643
     76          1           0        0.791015   -1.477900    1.790495
     77          1           0       -1.134478   -2.365627    1.340579
     78          1           0       -1.326199   -1.573804   -0.222343
     79          1           0        4.381060    6.079615   -2.027736
     80          1           0        4.412689    6.417284   -0.336081
     81          1           0        3.142619    5.341848   -1.008882
     82          1           0        6.445771    6.896931   -0.977071
     83          1           0        6.609896    6.536526   -2.740652
     84          1           0        7.966875    7.347317   -1.726790
     85          1           0       10.678939    1.347066    0.870239
     86          1           0       10.561402   -1.275847   -0.138619
     87          1           0       10.329694    1.059802   -2.090527
     88          1           0       11.715085    0.126770   -1.387028
     89          1           0       11.637759    1.777471   -1.190883
     90          1           0       11.504239   -0.752302    1.948482
     91          1           0       10.352595   -2.035961    2.132269
     92          1           0        9.298143    0.601133    2.700779
     93          1           0       10.689537    0.047244    3.695371
     94          1           0        9.274588   -0.984925    3.615594
     95          1           0        7.556573   -4.946135    1.950290
     96          1           0        7.602537   -5.555976    0.351306
     97          1           0        6.258684   -5.961230    1.322777
     98          1           0        1.699421   -3.563935    1.016020
     99          1           0        0.232798   -4.077500   -3.016846
    100          1           0       -1.332047   -4.024170   -2.172749
    101          1           0       -0.252668   -5.423544   -1.988818
    102          1           0       -5.104828    0.047618    1.438514
    103          1           0       -4.780955   -1.674360    1.955138
    104          1           0       -6.011746   -2.482091    0.173517
    105          1           0       -6.616819    1.417263   -1.003217
    106          1           0       -5.367505    0.845285   -2.155782
    107          1           0       -5.104220    1.142127   -0.440257
    108          1           0       -6.655174   -2.303534   -2.069933
    109          1           0       -7.124536   -0.809815   -2.761744
    110          1           0       -8.701065   -1.246999   -0.270332
    111          1           0       -8.912122   -2.595246   -1.372019
    112          1           0       -9.530965   -0.510396   -3.123390
    113          1           0       -9.708942    0.321324   -1.741749
    114          1           0      -11.337679   -1.735074   -0.954535
    115          1           0      -12.483264   -2.780497   -2.919714
    116          1           0      -10.795192   -3.243016   -2.526831
    117          1           0      -11.081080   -2.236873   -3.932470
    118          1           0      -12.620762   -0.347494   -3.281164
    119          1           0      -11.708643    0.725193   -2.429219
    120          1           0      -13.205400   -0.809499   -0.403307
    121          1           0      -14.354616   -0.209005   -1.700674
    122          1           0      -14.547200    1.539965   -0.514331
    123          1           0      -12.963620    2.088247   -1.136935
    124          1           0      -13.038263    0.332868    1.338118
    125          1           0      -14.410952    1.911806    2.136796
    126          1           0      -14.078311    3.113351    1.010459
    127          1           0      -12.994415    2.818335    2.472524
    128          1           0      -11.292199    2.693906    0.615082
    129          1           0      -10.943750    1.029451   -0.009072
    130          1           0       -9.730487    0.378349    1.481205
    131          1           0      -11.058415    0.309344    2.441573
    132          1           0      -10.169175    1.842874    3.868496
    133          1           0      -10.236268    3.045745    2.596067
    134          1           0       -7.862693    1.204859    2.727024
    135          1           0       -8.515716    3.568871    4.437775
    136          1           0       -7.198586    3.960722    3.574951
    137          1           0       -7.192502    2.382414    4.475123
    138          1           0       -8.655201    3.507146    0.965083
    139          1           0       -7.864539    1.853945    0.800631
    140          1           0       -6.944826    3.330175    1.315042
 ---------------------------------------------------------------------

 SCF Done:  E(RPBE1PBE) =  -3005.35106419     A.U. after   16 cycles

 Excitation energies and oscillator strengths:

 Excited State   1:      Singlet-A      1.8598 eV  666.65 nm  f=0.3690  <S**2>=0.000
     245 -> 248       -0.16437
     246 -> 247        0.69571
     246 <- 247       -0.11965
 This state for optimization and/or second-order correction.
 Total Energy, E(TD-HF/TD-DFT) =  -3005.28271723
 Copying the excited state density for this state as the 1-particle RhoCI density.

 Excited State   2:      Singlet-A      2.1824 eV  568.12 nm  f=0.1549  <S**2>=0.000
     245 -> 247        0.66129
     246 -> 248        0.22019

 Excited State   3:      Singlet-A      2.6512 eV  467.65 nm  f=0.0133  <S**2>=0.000
     244 -> 247        0.69576

 Excited State   4:      Singlet-A      2.9210 eV  424.46 nm  f=0.0121  <S**2>=0.000
     240 -> 247       -0.14176
     242 -> 247        0.30253
     243 -> 247        0.60780

 Excited State   5:      Singlet-A      2.9376 eV  422.06 nm  f=0.0046  <S**2>=0.000
     242 -> 247        0.62153
     243 -> 247       -0.29711

 The electronic state is 1-A.
 Alpha  occ. eigenvalues --  -46.91379 -19.26887 -19.26035 -19.21076 -19.20388
 Alpha  occ. eigenvalues --  -19.19260 -19.18597 -14.42184 -14.41415 -14.38495
 Alpha  occ. eigenvalues --  -14.38348 -10.36450 -10.36381 -10.32015 -10.30940
 Alpha  occ. eigenvalues --  -10.29520 -10.29394 -10.29275 -10.28956 -10.28126
 Alpha  occ. eigenvalues --  -10.27876 -10.27349 -10.27242 -10.26978 -10.26536
 Alpha  occ. eigenvalues --  -10.26291 -10.26211 -10.26136 -10.26063 -10.25369
 Alpha  occ. eigenvalues --  -10.25363 -10.25128 -10.25091 -10.24684 -10.24644
 Alpha  occ. eigenvalues --  -10.24406 -10.24352 -10.24201 -10.24002 -10.23880
 Alpha  occ. eigenvalues --  -10.23685 -10.23618 -10.23592 -10.23434 -10.23318
 Alpha  occ. eigenvalues --  -10.23254 -10.23176 -10.22981 -10.22905 -10.22866
 Alpha  occ. eigenvalues --  -10.22859 -10.22685 -10.22674 -10.22670 -10.22591
 Alpha  occ. eigenvalues --  -10.22529 -10.22375 -10.22214 -10.22120 -10.22043
 Alpha  occ. eigenvalues --  -10.21983 -10.21945 -10.21885 -10.21782 -10.21257
 Alpha  occ. eigenvalues --  -10.21224  -3.13555  -1.86414  -1.85920  -1.85791
 Alpha  occ. eigenvalues --   -1.11927  -1.11403  -1.06491  -1.05396  -1.04266
 Alpha  occ. eigenvalues --   -1.03002  -0.99460  -0.98243  -0.97847  -0.96088
 Alpha  occ. eigenvalues --   -0.87679  -0.85167  -0.84314  -0.84241  -0.84099
 Alpha  occ. eigenvalues --   -0.83146  -0.82876  -0.81983  -0.81929  -0.80973
 Alpha  occ. eigenvalues --   -0.80225  -0.80089  -0.78744  -0.78487  -0.77676
 Alpha  occ. eigenvalues --   -0.76980  -0.76706  -0.76053  -0.75189  -0.74848
 Alpha  occ. eigenvalues --   -0.73887  -0.72507  -0.72228  -0.71619  -0.70661
 Alpha  occ. eigenvalues --   -0.70473  -0.70096  -0.69328  -0.68604  -0.68345
 Alpha  occ. eigenvalues --   -0.67515  -0.66993  -0.65917  -0.64768  -0.63750
 Alpha  occ. eigenvalues --   -0.63636  -0.62757  -0.61312  -0.61000  -0.59930
 Alpha  occ. eigenvalues --   -0.59667  -0.59283  -0.59177  -0.58456  -0.58218
 Alpha  occ. eigenvalues --   -0.57867  -0.57695  -0.56915  -0.56882  -0.54439
 Alpha  occ. eigenvalues --   -0.54332  -0.53909  -0.53786  -0.53395  -0.53158
 Alpha  occ. eigenvalues --   -0.52248  -0.52192  -0.51250  -0.50850  -0.50448
 Alpha  occ. eigenvalues --   -0.50039  -0.49711  -0.49608  -0.49390  -0.48977
 Alpha  occ. eigenvalues --   -0.48335  -0.48135  -0.48067  -0.47815  -0.47467
 Alpha  occ. eigenvalues --   -0.47272  -0.47246  -0.47013  -0.46779  -0.46408
 Alpha  occ. eigenvalues --   -0.46328  -0.46109  -0.45781  -0.45665  -0.45442
 Alpha  occ. eigenvalues --   -0.44926  -0.44748  -0.44569  -0.44436  -0.44361
 Alpha  occ. eigenvalues --   -0.44241  -0.44112  -0.43984  -0.43829  -0.43515
 Alpha  occ. eigenvalues --   -0.43223  -0.43157  -0.42810  -0.42678  -0.42307
 Alpha  occ. eigenvalues --   -0.42149  -0.41961  -0.41706  -0.41460  -0.41284
 Alpha  occ. eigenvalues --   -0.41076  -0.40853  -0.40705  -0.40597  -0.40486
 Alpha  occ. eigenvalues --   -0.40320  -0.40198  -0.39978  -0.39850  -0.39756
 Alpha  occ. eigenvalues --   -0.39379  -0.39287  -0.39088  -0.38752  -0.38637
 Alpha  occ. eigenvalues --   -0.38489  -0.38296  -0.38140  -0.38075  -0.37884
 Alpha  occ. eigenvalues --   -0.37787  -0.37688  -0.37392  -0.37123  -0.37113
 Alpha  occ. eigenvalues --   -0.37090  -0.36736  -0.36508  -0.36117  -0.35956
 Alpha  occ. eigenvalues --   -0.35843  -0.35630  -0.35522  -0.35295  -0.35147
 Alpha  occ. eigenvalues --   -0.34600  -0.34165  -0.33866  -0.33674  -0.33602
 Alpha  occ. eigenvalues --   -0.33380  -0.33321  -0.33294  -0.32760  -0.32608
 Alpha  occ. eigenvalues --   -0.32494  -0.32199  -0.32138  -0.31806  -0.31472
 Alpha  occ. eigenvalues --   -0.31161  -0.30195  -0.29975  -0.29792  -0.29379
 Alpha  occ. eigenvalues --   -0.29225  -0.29007  -0.28112  -0.26932  -0.25934
 Alpha  occ. eigenvalues --   -0.25823  -0.25306  -0.25070  -0.24158  -0.21023
 Alpha  occ. eigenvalues --   -0.19061
 Alpha virt. eigenvalues --   -0.11604  -0.04749  -0.03630  -0.01838  -0.00388
 Alpha virt. eigenvalues --   -0.00030   0.00794   0.01364   0.01594   0.02820
 Alpha virt. eigenvalues --    0.03892   0.04222   0.04667   0.05422   0.05826

 Mulliken charges:
               1
     1  Mg   0.972323
     2  C   -0.028218
     3  C   -0.079816
     4  C   -0.034077
     5  C   -0.125964
     6  N   -0.383082
     7  C    0.003639
     8  C   -0.060394
     9  C   -0.133225
    10  C    0.092217
    11  C   -0.005580
    12  C    0.055305
    13  C   -0.037691
    14  C    0.208173
    15  O   -0.228367
    16  O   -0.361818
    17  N   -0.468312
    18  C    0.162183
    19  C   -0.168436
    20  C   -0.132427
    21  C    0.158052
    22  C    0.044442
    23  C    0.030471
    24  O   -0.216883
    25  C    0.000005
    26  N   -0.408579
    27  C    0.069441
    28  C   -0.112218
    29  C   -0.052220
    30  C    0.135543
    31  C    0.001326
    32  C   -0.083401
    33  C   -0.058262
    34  N   -0.523226
    35  C    0.206130
    36  C   -0.168725
    37  C   -0.023509
    38  C    0.177859
    39  C    0.044279
    40  C    0.113579
    41  O   -0.197077
    42  C   -0.122748
    43  C    0.296632
    44  O   -0.250276
    45  O   -0.373430
    46  C    0.109383
    47  C    0.248795
    48  C   -0.139966
    49  C   -0.218269
    50  C   -0.009861
    51  C    0.049546
    52  C   -0.031686
    53  C   -0.040061
    54  C   -0.228894
    55  C    0.004139
    56  C    0.007213
    57  C   -0.008532
    58  C   -0.024863
    59  C   -0.230585
    60  C   -0.004140
    61  C   -0.031689
    62  C   -0.040523
    63  C   -0.015671
    64  C   -0.260546
    65  C   -0.004852
    66  C   -0.010050
    67  H    0.004740
    68  H    0.028864
    69  H    0.004501
    70  H    0.052246
    71  H    0.050147
    72  H    0.050589
    73  H    0.040120
    74  H    0.049326
    75  H    0.051583
    76  H    0.042556
    77  H    0.072903
    78  H    0.061410
    79  H    0.051435
    80  H    0.062566
    81  H    0.038872
    82  H    0.040153
    83  H    0.083489
    84  H    0.052289
    85  H    0.052912
    86  H    0.040415
    87  H    0.059684
    88  H    0.039739
    89  H    0.038203
    90  H    0.027490
    91  H    0.031913
    92  H    0.054493
    93  H    0.037033
    94  H    0.042246
    95  H    0.039265
    96  H    0.055068
    97  H    0.054001
    98  H    0.068506
    99  H    0.072412
   100  H    0.063636
   101  H    0.069491
   102  H    0.066399
   103  H    0.050369
   104  H    0.014502
   105  H    0.041574
   106  H    0.059561
   107  H    0.026979
   108  H    0.041271
   109  H    0.026908
   110  H    0.050213
   111  H    0.033695
   112  H    0.014322
   113  H    0.027915
   114  H    0.028818
   115  H    0.047031
   116  H    0.018597
   117  H    0.034827
   118  H    0.017049
   119  H    0.009201
   120  H    0.034531
   121  H    0.031069
   122  H    0.022844
   123  H    0.033853
   124  H    0.023966
   125  H    0.018746
   126  H    0.034548
   127  H    0.036982
   128  H    0.032690
   129  H    0.030355
   130  H    0.019946
   131  H    0.008759
   132  H    0.037395
   133  H    0.027424
   134  H    0.037558
   135  H    0.024952
   136  H    0.019049
   137  H    0.043397
   138  H    0.038959
   139  H    0.052495
   140  H    0.044436
 Sum of Mulliken charges =  -0.00000

 Dipole moment (field-independent basis, Debye):
    X=             -2.9620    Y=              2.4528    Z=             -0.7472  Tot=              3.9177
 Quadrupole moment (field-independent basis, Debye-Ang):
   XX=           -369.8135   YY=           -412.3049   ZZ=           -410.3354
   XY=             -1.0045   XZ=             24.0945   YZ=             -4.5566

 Normal termination of Gaussian 16 at Thu Apr 28 10:17:39 2022.
