 Gaussian 16, Revision A.03,
 Gaussian 16:  ES64L-G16RevA.03 25-Dec-2016

 --------------------------------
 #p wB97XD/Def2SVP td=(nstates=5)
 --------------------------------

 ----------------------------------------------------
 step_151_chromophore_25 TDDFT with wB97XD functional
 ----------------------------------------------------
 Symbolic Z-matrix:
 Charge =  0 Multiplicity = 1

                         Standard orientation:
 ---------------------------------------------------------------------
 Center     Atomic      Atomic             Coordinates (Angstroms)
 Number     Number       Type             X           Y           Z
 ---------------------------------------------------------------------
      1         12           0        5.672302    0.168391    0.054718
      2          6           0        3.123966   -2.118491    0.257367
      3          6           0        3.359590    2.635299   -0.406439
      4          6           0        8.283544    2.472373   -0.361187
      5          6           0        8.014357   -2.227771    0.650886
      6          7           0        3.450067    0.228153    0.040150
      7          6           0        2.622746   -0.832252    0.103349
      8          6           0        1.112541   -0.515117   -0.030397
      9          6           0        1.209247    1.011612   -0.383471
     10          6           0        2.735909    1.366853   -0.298578
     11          6           0        0.640599    1.403380   -1.761041
     12          6           0        0.198561   -0.806325    1.169082
     13          6           0       -1.161768   -1.397684    0.840658
     14          6           0       -2.421837   -0.776028    1.459240
     15          8           0       -2.558397   -0.310107    2.552991
     16          8           0       -3.391889   -0.994861    0.503260
     17          7           0        5.787037    2.333318   -0.322100
     18          6           0        4.681546    3.097962   -0.494146
     19          6           0        5.132752    4.446067   -0.795500
     20          6           0        6.612264    4.341155   -0.922724
     21          6           0        6.992796    3.021286   -0.481611
     22          6           0        4.194118    5.626541   -1.053266
     23          6           0        7.647410    5.355684   -1.391402
     24          8           0        8.790855    5.070202   -1.546783
     25          6           0        7.129922    6.651082   -1.789421
     26          7           0        7.758752    0.132978   -0.007790
     27          6           0        8.650339    1.202547   -0.131164
     28          6           0       10.135084    0.810294    0.092661
     29          6           0        9.945653   -0.659724    0.515476
     30          6           0        8.457466   -0.921952    0.446652
     31          6           0       10.977029    0.911841   -1.225581
     32          6           0       10.441410   -0.981197    1.871705
     33          6           0        9.863757   -0.261300    3.053555
     34          7           0        5.727383   -1.800417    0.337737
     35          6           0        6.713729   -2.650188    0.559006
     36          6           0        6.171978   -3.937249    0.791767
     37          6           0        4.732932   -3.837179    0.565870
     38          6           0        4.523837   -2.501976    0.380631
     39          6           0        6.919617   -5.127300    1.084146
     40          6           0        3.500649   -4.550435    0.443893
     41          8           0        3.170137   -5.704769    0.579598
     42          6           0        2.399465   -3.444037    0.189746
     43          6           0        1.767852   -3.762123   -1.085434
     44          8           0        2.399982   -4.050098   -2.094133
     45          8           0        0.409061   -3.706883   -0.931985
     46          6           0       -0.291695   -4.340104   -2.098388
     47          6           0       -4.712380   -0.930888    1.160584
     48          6           0       -5.662196   -1.450547    0.131942
     49          6           0       -6.268992   -0.738718   -0.810350
     50          6           0       -5.798736    0.714346   -1.164067
     51          6           0       -7.139685   -1.359166   -1.820359
     52          6           0       -8.598035   -1.553592   -1.310666
     53          6           0       -9.726269   -0.717955   -2.071602
     54          6           0      -11.159768   -1.318314   -1.945610
     55          6           0      -11.440726   -2.461416   -2.928796
     56          6           0      -12.229712   -0.219143   -2.272488
     57          6           0      -13.375459   -0.117957   -1.228752
     58          6           0      -13.486186    1.303102   -0.590043
     59          6           0      -12.876647    1.285606    0.834105
     60          6           0      -13.564357    2.393067    1.646675
     61          6           0      -11.362468    1.622306    0.803614
     62          6           0      -10.464938    1.056924    1.915138
     63          6           0       -9.787777    2.093185    2.878782
     64          6           0       -8.269792    2.213392    2.652289
     65          6           0       -7.757761    3.063436    3.839456
     66          6           0       -7.901682    2.807859    1.326799
     67          1           0        2.658891    3.472418   -0.383230
     68          1           0        9.112929    3.175313   -0.469774
     69          1           0        8.772741   -2.969623    0.907799
     70          1           0        0.701582   -1.067129   -0.875596
     71          1           0        0.673366    1.675377    0.294628
     72          1           0        1.383366    1.006350   -2.453996
     73          1           0        0.574258    2.483732   -1.889833
     74          1           0       -0.367401    1.018424   -1.912976
     75          1           0        0.005293    0.164494    1.625643
     76          1           0        0.791015   -1.477900    1.790495
     77          1           0       -1.134478   -2.365627    1.340579
     78          1           0       -1.326199   -1.573804   -0.222343
     79          1           0        4.381060    6.079615   -2.027736
     80          1           0        4.412689    6.417284   -0.336081
     81          1           0        3.142619    5.341848   -1.008882
     82          1           0        6.445771    6.896931   -0.977071
     83          1           0        6.609896    6.536526   -2.740652
     84          1           0        7.966875    7.347317   -1.726790
     85          1           0       10.678939    1.347066    0.870239
     86          1           0       10.561402   -1.275847   -0.138619
     87          1           0       10.329694    1.059802   -2.090527
     88          1           0       11.715085    0.126770   -1.387028
     89          1           0       11.637759    1.777471   -1.190883
     90          1           0       11.504239   -0.752302    1.948482
     91          1           0       10.352595   -2.035961    2.132269
     92          1           0        9.298143    0.601133    2.700779
     93          1           0       10.689537    0.047244    3.695371
     94          1           0        9.274588   -0.984925    3.615594
     95          1           0        7.556573   -4.946135    1.950290
     96          1           0        7.602537   -5.555976    0.351306
     97          1           0        6.258684   -5.961230    1.322777
     98          1           0        1.699421   -3.563935    1.016020
     99          1           0        0.232798   -4.077500   -3.016846
    100          1           0       -1.332047   -4.024170   -2.172749
    101          1           0       -0.252668   -5.423544   -1.988818
    102          1           0       -5.104828    0.047618    1.438514
    103          1           0       -4.780955   -1.674360    1.955138
    104          1           0       -6.011746   -2.482091    0.173517
    105          1           0       -6.616819    1.417263   -1.003217
    106          1           0       -5.367505    0.845285   -2.155782
    107          1           0       -5.104220    1.142127   -0.440257
    108          1           0       -6.655174   -2.303534   -2.069933
    109          1           0       -7.124536   -0.809815   -2.761744
    110          1           0       -8.701065   -1.246999   -0.270332
    111          1           0       -8.912122   -2.595246   -1.372019
    112          1           0       -9.530965   -0.510396   -3.123390
    113          1           0       -9.708942    0.321324   -1.741749
    114          1           0      -11.337679   -1.735074   -0.954535
    115          1           0      -12.483264   -2.780497   -2.919714
    116          1           0      -10.795192   -3.243016   -2.526831
    117          1           0      -11.081080   -2.236873   -3.932470
    118          1           0      -12.620762   -0.347494   -3.281164
    119          1           0      -11.708643    0.725193   -2.429219
    120          1           0      -13.205400   -0.809499   -0.403307
    121          1           0      -14.354616   -0.209005   -1.700674
    122          1           0      -14.547200    1.539965   -0.514331
    123          1           0      -12.963620    2.088247   -1.136935
    124          1           0      -13.038263    0.332868    1.338118
    125          1           0      -14.410952    1.911806    2.136796
    126          1           0      -14.078311    3.113351    1.010459
    127          1           0      -12.994415    2.818335    2.472524
    128          1           0      -11.292199    2.693906    0.615082
    129          1           0      -10.943750    1.029451   -0.009072
    130          1           0       -9.730487    0.378349    1.481205
    131          1           0      -11.058415    0.309344    2.441573
    132          1           0      -10.169175    1.842874    3.868496
    133          1           0      -10.236268    3.045745    2.596067
    134          1           0       -7.862693    1.204859    2.727024
    135          1           0       -8.515716    3.568871    4.437775
    136          1           0       -7.198586    3.960722    3.574951
    137          1           0       -7.192502    2.382414    4.475123
    138          1           0       -8.655201    3.507146    0.965083
    139          1           0       -7.864539    1.853945    0.800631
    140          1           0       -6.944826    3.330175    1.315042
 ---------------------------------------------------------------------

 SCF Done:  E(RwB97XD) =  -3007.86368638     A.U. after   20 cycles

 Excitation energies and oscillator strengths:

 Excited State   1:      Singlet-A      1.6386 eV  756.64 nm  f=0.3884  <S**2>=0.000
     245 -> 248        0.17499
     246 -> 247        0.68493
     245 <- 248        0.11578
 This state for optimization and/or second-order correction.
 Total Energy, E(TD-HF/TD-DFT) =  -3007.80346855
 Copying the excited state density for this state as the 1-particle RhoCI density.

 Excited State   2:      Singlet-A      2.1099 eV  587.63 nm  f=0.1676  <S**2>=0.000
     245 -> 247        0.65399
     246 -> 248       -0.24342
     246 <- 248       -0.10016

 Excited State   3:      Singlet-A      3.0134 eV  411.44 nm  f=0.0048  <S**2>=0.000
     243 -> 247       -0.10300
     244 -> 247        0.67764

 Excited State   4:      Singlet-A      3.2468 eV  381.87 nm  f=0.0124  <S**2>=0.000
     243 -> 247        0.67191
     246 -> 248        0.10381

 Excited State   5:      Singlet-A      3.5761 eV  346.71 nm  f=0.0001  <S**2>=0.000
     240 -> 247        0.57997
     240 -> 249       -0.31343
     240 -> 250       -0.15708
     242 -> 247       -0.10736

 The electronic state is 1-A.
 Alpha  occ. eigenvalues --  -46.94324 -19.31518 -19.30599 -19.25769 -19.25150
 Alpha  occ. eigenvalues --  -19.24139 -19.23349 -14.47366 -14.46462 -14.43433
 Alpha  occ. eigenvalues --  -14.43234 -10.43340 -10.43179 -10.38935 -10.37720
 Alpha  occ. eigenvalues --  -10.35968 -10.35806 -10.35793 -10.35320 -10.34434
 Alpha  occ. eigenvalues --  -10.34129 -10.33624 -10.33546 -10.33355 -10.32926
 Alpha  occ. eigenvalues --  -10.32690 -10.32543 -10.32460 -10.32362 -10.31870
 Alpha  occ. eigenvalues --  -10.31609 -10.31566 -10.31562 -10.31117 -10.31014
 Alpha  occ. eigenvalues --  -10.30839 -10.30746 -10.30489 -10.30253 -10.30210
 Alpha  occ. eigenvalues --  -10.30095 -10.29963 -10.29899 -10.29818 -10.29717
 Alpha  occ. eigenvalues --  -10.29611 -10.29549 -10.29310 -10.29305 -10.29185
 Alpha  occ. eigenvalues --  -10.29156 -10.29142 -10.29141 -10.29041 -10.28965
 Alpha  occ. eigenvalues --  -10.28886 -10.28748 -10.28562 -10.28500 -10.28412
 Alpha  occ. eigenvalues --  -10.28391 -10.28387 -10.28334 -10.28172 -10.27696
 Alpha  occ. eigenvalues --  -10.27644  -3.20349  -1.93960  -1.93467  -1.93329
 Alpha  occ. eigenvalues --   -1.19313  -1.18873  -1.13896  -1.12930  -1.11612
 Alpha  occ. eigenvalues --   -1.10439  -1.06852  -1.05682  -1.05227  -1.03408
 Alpha  occ. eigenvalues --   -0.95355  -0.92833  -0.91908  -0.91860  -0.91761
 Alpha  occ. eigenvalues --   -0.90816  -0.90439  -0.89639  -0.89560  -0.88617
 Alpha  occ. eigenvalues --   -0.87925  -0.87743  -0.86390  -0.86126  -0.85317
 Alpha  occ. eigenvalues --   -0.84625  -0.84374  -0.83700  -0.82822  -0.82505
 Alpha  occ. eigenvalues --   -0.81561  -0.80167  -0.79835  -0.79256  -0.78300
 Alpha  occ. eigenvalues --   -0.78177  -0.77794  -0.76895  -0.76293  -0.76019
 Alpha  occ. eigenvalues --   -0.75097  -0.74574  -0.73457  -0.72386  -0.71283
 Alpha  occ. eigenvalues --   -0.71190  -0.70408  -0.68943  -0.68555  -0.67447
 Alpha  occ. eigenvalues --   -0.67145  -0.66817  -0.66704  -0.65929  -0.65911
 Alpha  occ. eigenvalues --   -0.65375  -0.65325  -0.64546  -0.64378  -0.61944
 Alpha  occ. eigenvalues --   -0.61792  -0.61449  -0.61139  -0.60832  -0.60679
 Alpha  occ. eigenvalues --   -0.59791  -0.59621  -0.58713  -0.58238  -0.57829
 Alpha  occ. eigenvalues --   -0.57486  -0.57117  -0.57045  -0.56823  -0.56410
 Alpha  occ. eigenvalues --   -0.55789  -0.55535  -0.55502  -0.55310  -0.54843
 Alpha  occ. eigenvalues --   -0.54709  -0.54558  -0.54363  -0.54137  -0.53791
 Alpha  occ. eigenvalues --   -0.53725  -0.53487  -0.53196  -0.53026  -0.52776
 Alpha  occ. eigenvalues --   -0.52285  -0.52119  -0.51893  -0.51795  -0.51736
 Alpha  occ. eigenvalues --   -0.51612  -0.51408  -0.51295  -0.51186  -0.50823
 Alpha  occ. eigenvalues --   -0.50539  -0.50419  -0.50086  -0.49961  -0.49572
 Alpha  occ. eigenvalues --   -0.49384  -0.49269  -0.48965  -0.48734  -0.48509
 Alpha  occ. eigenvalues --   -0.48316  -0.48106  -0.47940  -0.47840  -0.47656
 Alpha  occ. eigenvalues --   -0.47559  -0.47411  -0.47157  -0.47040  -0.46947
 Alpha  occ. eigenvalues --   -0.46561  -0.46466  -0.46231  -0.45924  -0.45876
 Alpha  occ. eigenvalues --   -0.45648  -0.45540  -0.45277  -0.45212  -0.44975
 Alpha  occ. eigenvalues --   -0.44880  -0.44807  -0.44502  -0.44280  -0.44264
 Alpha  occ. eigenvalues --   -0.44242  -0.43822  -0.43536  -0.43202  -0.43043
 Alpha  occ. eigenvalues --   -0.42896  -0.42734  -0.42517  -0.42365  -0.42160
 Alpha  occ. eigenvalues --   -0.41617  -0.41221  -0.40972  -0.40664  -0.40636
 Alpha  occ. eigenvalues --   -0.40463  -0.40386  -0.40263  -0.39834  -0.39714
 Alpha  occ. eigenvalues --   -0.39554  -0.39213  -0.39061  -0.38845  -0.38369
 Alpha  occ. eigenvalues --   -0.38143  -0.37219  -0.37096  -0.36880  -0.36265
 Alpha  occ. eigenvalues --   -0.36024  -0.35704  -0.35027  -0.33510  -0.33102
 Alpha  occ. eigenvalues --   -0.32542  -0.32374  -0.31607  -0.30659  -0.25989
 Alpha  occ. eigenvalues --   -0.23280
 Alpha virt. eigenvalues --   -0.07621   0.00722   0.02667   0.04696   0.06304
 Alpha virt. eigenvalues --    0.06732   0.07132   0.07588   0.08271   0.09064
 Alpha virt. eigenvalues --    0.10371   0.10912   0.11560   0.12170   0.12561

 Mulliken charges:
               1
     1  Mg   0.961853
     2  C   -0.032934
     3  C   -0.090899
     4  C   -0.051881
     5  C   -0.153552
     6  N   -0.347516
     7  C   -0.023478
     8  C   -0.038921
     9  C   -0.104904
    10  C    0.073877
    11  C    0.006293
    12  C    0.069326
    13  C   -0.020653
    14  C    0.198496
    15  O   -0.225954
    16  O   -0.361703
    17  N   -0.433471
    18  C    0.150908
    19  C   -0.159915
    20  C   -0.123169
    21  C    0.143279
    22  C    0.058269
    23  C    0.026518
    24  O   -0.211344
    25  C    0.013348
    26  N   -0.375921
    27  C    0.063319
    28  C   -0.091612
    29  C   -0.023542
    30  C    0.126816
    31  C    0.009499
    32  C   -0.069059
    33  C   -0.041938
    34  N   -0.484860
    35  C    0.198982
    36  C   -0.161512
    37  C   -0.019488
    38  C    0.159957
    39  C    0.049050
    40  C    0.098160
    41  O   -0.187314
    42  C   -0.079288
    43  C    0.272555
    44  O   -0.245846
    45  O   -0.372228
    46  C    0.125127
    47  C    0.265400
    48  C   -0.150468
    49  C   -0.203305
    50  C    0.009413
    51  C    0.062828
    52  C   -0.006366
    53  C   -0.025930
    54  C   -0.198294
    55  C    0.017809
    56  C    0.020698
    57  C    0.009918
    58  C   -0.008997
    59  C   -0.200199
    60  C    0.007132
    61  C    0.003414
    62  C   -0.022375
    63  C    0.001104
    64  C   -0.224049
    65  C    0.004132
    66  C    0.008238
    67  H   -0.004273
    68  H    0.024965
    69  H   -0.001366
    70  H    0.034579
    71  H    0.040313
    72  H    0.043143
    73  H    0.034706
    74  H    0.043404
    75  H    0.043098
    76  H    0.032865
    77  H    0.066412
    78  H    0.054569
    79  H    0.044801
    80  H    0.057133
    81  H    0.034940
    82  H    0.030931
    83  H    0.079021
    84  H    0.051034
    85  H    0.044367
    86  H    0.030586
    87  H    0.054036
    88  H    0.033863
    89  H    0.032640
    90  H    0.018986
    91  H    0.023176
    92  H    0.043798
    93  H    0.032507
    94  H    0.036496
    95  H    0.033655
    96  H    0.051320
    97  H    0.050960
    98  H    0.060693
    99  H    0.068264
   100  H    0.060973
   101  H    0.065686
   102  H    0.060038
   103  H    0.046090
   104  H    0.011090
   105  H    0.031075
   106  H    0.055619
   107  H    0.020337
   108  H    0.034723
   109  H    0.019617
   110  H    0.034464
   111  H    0.024222
   112  H    0.005010
   113  H    0.018605
   114  H    0.016312
   115  H    0.041064
   116  H    0.010340
   117  H    0.028313
   118  H    0.009568
   119  H   -0.002251
   120  H    0.022832
   121  H    0.024812
   122  H    0.014836
   123  H    0.023670
   124  H    0.011518
   125  H    0.012165
   126  H    0.028236
   127  H    0.030363
   128  H    0.022076
   129  H   -0.002426
   130  H    0.004615
   131  H    0.000875
   132  H    0.030882
   133  H    0.013021
   134  H    0.026517
   135  H    0.018758
   136  H    0.013488
   137  H    0.038453
   138  H    0.033088
   139  H    0.033529
   140  H    0.039343
 Sum of Mulliken charges =  -0.00000

 Dipole moment (field-independent basis, Debye):
    X=             -3.1017    Y=              2.4378    Z=             -0.7671  Tot=              4.0189
 Quadrupole moment (field-independent basis, Debye-Ang):
   XX=           -371.4429   YY=           -410.8460   ZZ=           -409.9299
   XY=             -0.6596   XZ=             24.0132   YZ=             -4.6036

 Normal termination of Gaussian 16 at Thu Apr 28 10:51:28 2022.
