 Gaussian 16, Revision A.03,
 Gaussian 16:  ES64L-G16RevA.03 25-Dec-2016

 --------------------
 #p ZINDO=(nstates=5)
 --------------------

 -----------------------------
 step_151_chromophore_25 ZINDO
 -----------------------------
 Symbolic Z-matrix:
 Charge =  0 Multiplicity = 1

                         Standard orientation:
 ---------------------------------------------------------------------
 Center     Atomic      Atomic             Coordinates (Angstroms)
 Number     Number       Type             X           Y           Z
 ---------------------------------------------------------------------
      1         12           0        5.672302    0.168391    0.054718
      2          6           0        3.123966   -2.118491    0.257367
      3          6           0        3.359590    2.635299   -0.406439
      4          6           0        8.283544    2.472373   -0.361187
      5          6           0        8.014357   -2.227771    0.650886
      6          7           0        3.450067    0.228153    0.040150
      7          6           0        2.622746   -0.832252    0.103349
      8          6           0        1.112541   -0.515117   -0.030397
      9          6           0        1.209247    1.011612   -0.383471
     10          6           0        2.735909    1.366853   -0.298578
     11          6           0        0.640599    1.403380   -1.761041
     12          6           0        0.198561   -0.806325    1.169082
     13          6           0       -1.161768   -1.397684    0.840658
     14          6           0       -2.421837   -0.776028    1.459240
     15          8           0       -2.558397   -0.310107    2.552991
     16          8           0       -3.391889   -0.994861    0.503260
     17          7           0        5.787037    2.333318   -0.322100
     18          6           0        4.681546    3.097962   -0.494146
     19          6           0        5.132752    4.446067   -0.795500
     20          6           0        6.612264    4.341155   -0.922724
     21          6           0        6.992796    3.021286   -0.481611
     22          6           0        4.194118    5.626541   -1.053266
     23          6           0        7.647410    5.355684   -1.391402
     24          8           0        8.790855    5.070202   -1.546783
     25          6           0        7.129922    6.651082   -1.789421
     26          7           0        7.758752    0.132978   -0.007790
     27          6           0        8.650339    1.202547   -0.131164
     28          6           0       10.135084    0.810294    0.092661
     29          6           0        9.945653   -0.659724    0.515476
     30          6           0        8.457466   -0.921952    0.446652
     31          6           0       10.977029    0.911841   -1.225581
     32          6           0       10.441410   -0.981197    1.871705
     33          6           0        9.863757   -0.261300    3.053555
     34          7           0        5.727383   -1.800417    0.337737
     35          6           0        6.713729   -2.650188    0.559006
     36          6           0        6.171978   -3.937249    0.791767
     37          6           0        4.732932   -3.837179    0.565870
     38          6           0        4.523837   -2.501976    0.380631
     39          6           0        6.919617   -5.127300    1.084146
     40          6           0        3.500649   -4.550435    0.443893
     41          8           0        3.170137   -5.704769    0.579598
     42          6           0        2.399465   -3.444037    0.189746
     43          6           0        1.767852   -3.762123   -1.085434
     44          8           0        2.399982   -4.050098   -2.094133
     45          8           0        0.409061   -3.706883   -0.931985
     46          6           0       -0.291695   -4.340104   -2.098388
     47          6           0       -4.712380   -0.930888    1.160584
     48          6           0       -5.662196   -1.450547    0.131942
     49          6           0       -6.268992   -0.738718   -0.810350
     50          6           0       -5.798736    0.714346   -1.164067
     51          6           0       -7.139685   -1.359166   -1.820359
     52          6           0       -8.598035   -1.553592   -1.310666
     53          6           0       -9.726269   -0.717955   -2.071602
     54          6           0      -11.159768   -1.318314   -1.945610
     55          6           0      -11.440726   -2.461416   -2.928796
     56          6           0      -12.229712   -0.219143   -2.272488
     57          6           0      -13.375459   -0.117957   -1.228752
     58          6           0      -13.486186    1.303102   -0.590043
     59          6           0      -12.876647    1.285606    0.834105
     60          6           0      -13.564357    2.393067    1.646675
     61          6           0      -11.362468    1.622306    0.803614
     62          6           0      -10.464938    1.056924    1.915138
     63          6           0       -9.787777    2.093185    2.878782
     64          6           0       -8.269792    2.213392    2.652289
     65          6           0       -7.757761    3.063436    3.839456
     66          6           0       -7.901682    2.807859    1.326799
     67          1           0        2.658891    3.472418   -0.383230
     68          1           0        9.112929    3.175313   -0.469774
     69          1           0        8.772741   -2.969623    0.907799
     70          1           0        0.701582   -1.067129   -0.875596
     71          1           0        0.673366    1.675377    0.294628
     72          1           0        1.383366    1.006350   -2.453996
     73          1           0        0.574258    2.483732   -1.889833
     74          1           0       -0.367401    1.018424   -1.912976
     75          1           0        0.005293    0.164494    1.625643
     76          1           0        0.791015   -1.477900    1.790495
     77          1           0       -1.134478   -2.365627    1.340579
     78          1           0       -1.326199   -1.573804   -0.222343
     79          1           0        4.381060    6.079615   -2.027736
     80          1           0        4.412689    6.417284   -0.336081
     81          1           0        3.142619    5.341848   -1.008882
     82          1           0        6.445771    6.896931   -0.977071
     83          1           0        6.609896    6.536526   -2.740652
     84          1           0        7.966875    7.347317   -1.726790
     85          1           0       10.678939    1.347066    0.870239
     86          1           0       10.561402   -1.275847   -0.138619
     87          1           0       10.329694    1.059802   -2.090527
     88          1           0       11.715085    0.126770   -1.387028
     89          1           0       11.637759    1.777471   -1.190883
     90          1           0       11.504239   -0.752302    1.948482
     91          1           0       10.352595   -2.035961    2.132269
     92          1           0        9.298143    0.601133    2.700779
     93          1           0       10.689537    0.047244    3.695371
     94          1           0        9.274588   -0.984925    3.615594
     95          1           0        7.556573   -4.946135    1.950290
     96          1           0        7.602537   -5.555976    0.351306
     97          1           0        6.258684   -5.961230    1.322777
     98          1           0        1.699421   -3.563935    1.016020
     99          1           0        0.232798   -4.077500   -3.016846
    100          1           0       -1.332047   -4.024170   -2.172749
    101          1           0       -0.252668   -5.423544   -1.988818
    102          1           0       -5.104828    0.047618    1.438514
    103          1           0       -4.780955   -1.674360    1.955138
    104          1           0       -6.011746   -2.482091    0.173517
    105          1           0       -6.616819    1.417263   -1.003217
    106          1           0       -5.367505    0.845285   -2.155782
    107          1           0       -5.104220    1.142127   -0.440257
    108          1           0       -6.655174   -2.303534   -2.069933
    109          1           0       -7.124536   -0.809815   -2.761744
    110          1           0       -8.701065   -1.246999   -0.270332
    111          1           0       -8.912122   -2.595246   -1.372019
    112          1           0       -9.530965   -0.510396   -3.123390
    113          1           0       -9.708942    0.321324   -1.741749
    114          1           0      -11.337679   -1.735074   -0.954535
    115          1           0      -12.483264   -2.780497   -2.919714
    116          1           0      -10.795192   -3.243016   -2.526831
    117          1           0      -11.081080   -2.236873   -3.932470
    118          1           0      -12.620762   -0.347494   -3.281164
    119          1           0      -11.708643    0.725193   -2.429219
    120          1           0      -13.205400   -0.809499   -0.403307
    121          1           0      -14.354616   -0.209005   -1.700674
    122          1           0      -14.547200    1.539965   -0.514331
    123          1           0      -12.963620    2.088247   -1.136935
    124          1           0      -13.038263    0.332868    1.338118
    125          1           0      -14.410952    1.911806    2.136796
    126          1           0      -14.078311    3.113351    1.010459
    127          1           0      -12.994415    2.818335    2.472524
    128          1           0      -11.292199    2.693906    0.615082
    129          1           0      -10.943750    1.029451   -0.009072
    130          1           0       -9.730487    0.378349    1.481205
    131          1           0      -11.058415    0.309344    2.441573
    132          1           0      -10.169175    1.842874    3.868496
    133          1           0      -10.236268    3.045745    2.596067
    134          1           0       -7.862693    1.204859    2.727024
    135          1           0       -8.515716    3.568871    4.437775
    136          1           0       -7.198586    3.960722    3.574951
    137          1           0       -7.192502    2.382414    4.475123
    138          1           0       -8.655201    3.507146    0.965083
    139          1           0       -7.864539    1.853945    0.800631
    140          1           0       -6.944826    3.330175    1.315042
 ---------------------------------------------------------------------

 SCF Done:  E(RZINDO/S) =  -474.723635489     A.U. after   20 cycles

 Excitation energies and oscillator strengths:

 Excited State   1:      Singlet-A      1.2443 eV  996.39 nm  f=0.6344  <S**2>=0.000
     175 ->178        -0.18594
     176 ->177         0.66253
 This state for optimization and/or second-order correction.
 Total Energy, E(CIS/TDA) =  -474.677907014
 Copying the excited state density for this state as the 1-particle RhoCI density.

 Excited State   2:      Singlet-A      1.9058 eV  650.57 nm  f=0.1175  <S**2>=0.000
     175 ->177         0.58567
     176 ->178         0.36145

 Excited State   3:      Singlet-A      2.8928 eV  428.59 nm  f=0.0016  <S**2>=0.000
     171 ->177         0.22806
     174 ->177         0.61990

 Excited State   4:      Singlet-A      2.9877 eV  414.99 nm  f=0.0138  <S**2>=0.000
     168 ->177         0.13589
     168 ->180         0.13345
     169 ->177         0.22410
     169 ->178        -0.14875
     169 ->179        -0.29678
     169 ->180         0.13127
     169 ->182         0.10692
     169 ->186         0.16783
     170 ->177        -0.19998
     170 ->179        -0.13429
     170 ->180        -0.19449
     173 ->177        -0.17657

 Excited State   5:      Singlet-A      3.0095 eV  411.97 nm  f=0.0096  <S**2>=0.000
     168 ->179        -0.14356
     169 ->177         0.22171
     169 ->178        -0.12066
     169 ->179        -0.11260
     169 ->180         0.18781
     170 ->177         0.21214
     170 ->179         0.27221
     170 ->180         0.24456
     170 ->186        -0.15430
     170 ->187         0.13405
     170 ->188        -0.11298
     174 ->177        -0.13477

 The electronic state is 1-A.
 Alpha  occ. eigenvalues --   -1.86917  -1.81971  -1.78755  -1.74896  -1.73568
 Alpha  occ. eigenvalues --   -1.71055  -1.66637  -1.62130  -1.60701  -1.60126
 Alpha  occ. eigenvalues --   -1.57263  -1.53226  -1.50437  -1.48984  -1.48338
 Alpha  occ. eigenvalues --   -1.46239  -1.44984  -1.40902  -1.38752  -1.38336
 Alpha  occ. eigenvalues --   -1.36581  -1.35280  -1.32986  -1.31617  -1.30019
 Alpha  occ. eigenvalues --   -1.27664  -1.26091  -1.23087  -1.21492  -1.19435
 Alpha  occ. eigenvalues --   -1.17997  -1.16860  -1.15462  -1.15004  -1.13775
 Alpha  occ. eigenvalues --   -1.12385  -1.10703  -1.09815  -1.05112  -1.04144
 Alpha  occ. eigenvalues --   -1.02335  -1.01200  -0.99507  -0.97742  -0.96482
 Alpha  occ. eigenvalues --   -0.95554  -0.95332  -0.94032  -0.92832  -0.92200
 Alpha  occ. eigenvalues --   -0.90840  -0.90539  -0.88525  -0.88305  -0.87202
 Alpha  occ. eigenvalues --   -0.84651  -0.83872  -0.83598  -0.81478  -0.81055
 Alpha  occ. eigenvalues --   -0.79959  -0.79754  -0.77873  -0.77364  -0.76849
 Alpha  occ. eigenvalues --   -0.76044  -0.75828  -0.75308  -0.74860  -0.74699
 Alpha  occ. eigenvalues --   -0.73897  -0.73542  -0.72004  -0.71522  -0.71198
 Alpha  occ. eigenvalues --   -0.70299  -0.69198  -0.68759  -0.68521  -0.68486
 Alpha  occ. eigenvalues --   -0.67485  -0.67272  -0.67094  -0.66881  -0.66663
 Alpha  occ. eigenvalues --   -0.65897  -0.64628  -0.64288  -0.63754  -0.63301
 Alpha  occ. eigenvalues --   -0.62808  -0.62697  -0.62502  -0.62398  -0.61869
 Alpha  occ. eigenvalues --   -0.61371  -0.60839  -0.60788  -0.60335  -0.59864
 Alpha  occ. eigenvalues --   -0.59734  -0.59214  -0.58951  -0.58725  -0.58411
 Alpha  occ. eigenvalues --   -0.57624  -0.57079  -0.56924  -0.56587  -0.56198
 Alpha  occ. eigenvalues --   -0.55382  -0.55074  -0.54988  -0.54207  -0.54138
 Alpha  occ. eigenvalues --   -0.53965  -0.53523  -0.53446  -0.52915  -0.52850
 Alpha  occ. eigenvalues --   -0.52598  -0.52343  -0.52124  -0.51805  -0.51616
 Alpha  occ. eigenvalues --   -0.51035  -0.51005  -0.50839  -0.50549  -0.50240
 Alpha  occ. eigenvalues --   -0.50029  -0.49498  -0.49308  -0.49055  -0.48786
 Alpha  occ. eigenvalues --   -0.48594  -0.48388  -0.48161  -0.47868  -0.47630
 Alpha  occ. eigenvalues --   -0.47541  -0.47274  -0.46812  -0.46716  -0.46601
 Alpha  occ. eigenvalues --   -0.46438  -0.46251  -0.45829  -0.45692  -0.45444
 Alpha  occ. eigenvalues --   -0.45092  -0.44991  -0.44641  -0.44314  -0.43850
 Alpha  occ. eigenvalues --   -0.43676  -0.43272  -0.42785  -0.42752  -0.42372
 Alpha  occ. eigenvalues --   -0.42064  -0.41230  -0.40208  -0.39863  -0.39303
 Alpha  occ. eigenvalues --   -0.38453  -0.36734  -0.35347  -0.34948  -0.34039
 Alpha  occ. eigenvalues --   -0.32868  -0.32775  -0.32368  -0.31337  -0.26633
 Alpha  occ. eigenvalues --   -0.22131
 Alpha virt. eigenvalues --   -0.09121  -0.01820  -0.00085   0.01694   0.01839
 Alpha virt. eigenvalues --    0.02148   0.02771   0.03592   0.04589   0.05284
 Alpha virt. eigenvalues --    0.06376   0.06579   0.07329   0.07651   0.08220

 Mulliken charges:
               1
     1  Mg   0.420096
     2  C   -0.050387
     3  C   -0.062354
     4  C   -0.042693
     5  C   -0.071721
     6  N   -0.274797
     7  C    0.131354
     8  C    0.001239
     9  C    0.005591
    10  C    0.111591
    11  C   -0.052030
    12  C   -0.020328
    13  C   -0.000237
    14  C    0.470123
    15  O   -0.501426
    16  O   -0.265520
    17  N   -0.340072
    18  C    0.118063
    19  C   -0.011996
    20  C   -0.065708
    21  C    0.130730
    22  C   -0.040549
    23  C    0.335511
    24  O   -0.519880
    25  C   -0.034528
    26  N   -0.270033
    27  C    0.126862
    28  C   -0.000567
    29  C    0.008007
    30  C    0.150481
    31  C   -0.055917
    32  C   -0.025370
    33  C   -0.056771
    34  N   -0.329285
    35  C    0.129040
    36  C    0.036935
    37  C   -0.052227
    38  C    0.109342
    39  C   -0.035382
    40  C    0.345181
    41  O   -0.517198
    42  C    0.051797
    43  C    0.501431
    44  O   -0.519239
    45  O   -0.275121
    46  C    0.070018
    47  C    0.103888
    48  C   -0.088276
    49  C   -0.004073
    50  C   -0.056321
    51  C   -0.013750
    52  C   -0.031923
    53  C   -0.041104
    54  C   -0.011900
    55  C   -0.055880
    56  C   -0.040777
    57  C   -0.041413
    58  C   -0.037722
    59  C   -0.013244
    60  C   -0.065233
    61  C   -0.040530
    62  C   -0.047951
    63  C   -0.033034
    64  C    0.001707
    65  C   -0.065954
    66  C   -0.056894
    67  H    0.016647
    68  H    0.047165
    69  H    0.026679
    70  H    0.035065
    71  H    0.029919
    72  H    0.025844
    73  H    0.018760
    74  H    0.020369
    75  H    0.033594
    76  H    0.030331
    77  H    0.044254
    78  H    0.043175
    79  H    0.026110
    80  H    0.029558
    81  H    0.027033
    82  H    0.027959
    83  H    0.054358
    84  H    0.038889
    85  H    0.039550
    86  H    0.028271
    87  H    0.030067
    88  H    0.021807
    89  H    0.013767
    90  H    0.004782
    91  H    0.013041
    92  H    0.026423
    93  H    0.016138
    94  H    0.019608
    95  H    0.022233
    96  H    0.035528
    97  H    0.024740
    98  H    0.045902
    99  H    0.050624
   100  H    0.033107
   101  H    0.046500
   102  H    0.062465
   103  H    0.043780
   104  H    0.024508
   105  H    0.021758
   106  H    0.033163
   107  H    0.015183
   108  H    0.021399
   109  H    0.019288
   110  H    0.023727
   111  H    0.022149
   112  H    0.018140
   113  H    0.014707
   114  H    0.024922
   115  H    0.024334
   116  H    0.006274
   117  H    0.022730
   118  H    0.014688
   119  H    0.013943
   120  H    0.030629
   121  H    0.019891
   122  H    0.014618
   123  H    0.026072
   124  H    0.026390
   125  H   -0.000066
   126  H    0.023674
   127  H    0.022781
   128  H    0.027923
   129  H    0.008979
   130  H    0.012296
   131  H    0.010348
   132  H    0.024548
   133  H    0.016033
   134  H    0.021026
   135  H    0.014868
   136  H    0.015935
   137  H    0.018667
   138  H    0.024510
   139  H    0.023229
   140  H    0.021018
 Sum of Mulliken charges =  -0.00000

 Dipole moment (field-independent basis, Debye):
    X=             -3.5230    Y=              3.9537    Z=             -0.0352  Tot=              5.2957
 N-N= 4.375061506980D+03 E-N= 0.000000000000D+00  KE=-9.424575271980D+03
 Leave Link  601 at Thu Apr 28 11:05:55 2022, MaxMem=  6710886400 cpu:               1.4 elap:               0.1
 (Enter /sw/apps/gaussian-16.0/g16/l9999.exe)
 1\1\GINC-BP1-COMPUTE165\SP\RZINDO CIS\STO-3G\C55H74Mg1N4O6\OF15641\28-
 Apr-2022\0\\#p ZINDO=(nstates=5)\\step_151_chromophore_25 ZINDO\\0,1\M
 g,0,-3.219,34.533,27.465\C,0,-4.02,32.829,30.332\C,0,-1.322,36.676,29.
 324\C,0,-2.57,36.397,24.566\C,0,-4.981,32.345,25.544\N,0,-2.661,34.645
 ,29.614\C,0,-3.138,33.867,30.604\C,0,-2.658,34.227,32.032\C,0,-1.894,3
 5.56,31.709\C,0,-1.957,35.713,30.148\C,0,-2.454,36.82,32.397\C,0,-1.80
 2,33.203,32.792\C,0,-2.108,33.048,34.272\C,0,-0.957,33.091,35.287\O,0,

 Normal termination of Gaussian 16 at Thu Apr 28 11:05:55 2022.
