 Gaussian 16, Revision A.03,
 Gaussian 16:  ES64L-G16RevA.03 25-Dec-2016

 ------------------------------
 #p blyp/Def2SVP td=(nstates=5)
 ------------------------------

 ---------------------------------------------------
 step_1451_chromophore_18 TDDFT with blyp functional
 ---------------------------------------------------
 Symbolic Z-matrix:
 Charge =  0 Multiplicity = 1

                         Standard orientation:
 ---------------------------------------------------------------------
 Center     Atomic      Atomic             Coordinates (Angstroms)
 Number     Number       Type             X           Y           Z
 ---------------------------------------------------------------------
      1         12           0        5.288821    1.123266    0.360367
      2          6           0        4.702342   -2.226043    0.162867
      3          6           0        1.815593    1.631269   -0.343055
      4          6           0        5.742237    4.499692   -0.030593
      5          6           0        8.645540    0.595521    0.101211
      6          7           0        3.484875   -0.109477    0.038428
      7          6           0        3.475196   -1.500297    0.166361
      8          6           0        2.053626   -2.071703    0.227968
      9          6           0        1.180645   -0.792583   -0.072584
     10          6           0        2.195773    0.279350   -0.149255
     11          6           0        0.359809   -0.766741   -1.435561
     12          6           0        1.778789   -2.895291    1.495188
     13          6           0        1.137236   -4.238143    1.375657
     14          6           0        0.306666   -4.394208    0.113043
     15          8           0        0.670399   -5.011726   -0.852393
     16          8           0       -0.968784   -3.783693    0.262721
     17          7           0        3.948345    2.833189   -0.044245
     18          6           0        2.596770    2.822526   -0.319176
     19          6           0        2.126021    4.190618   -0.395858
     20          6           0        3.249956    5.044164   -0.303036
     21          6           0        4.390889    4.115249   -0.116144
     22          6           0        0.710763    4.440710   -0.586582
     23          6           0        3.281945    6.594533   -0.319071
     24          8           0        4.324518    7.269728   -0.268331
     25          6           0        2.060470    7.445081   -0.662798
     26          7           0        6.988936    2.338811    0.176807
     27          6           0        6.899369    3.759225    0.154304
     28          6           0        8.334220    4.337578    0.167993
     29          6           0        9.336535    3.047795    0.125516
     30          6           0        8.298039    1.916699    0.171273
     31          6           0        8.586197    5.401614   -0.983081
     32          6           0       10.338817    3.138915    1.309809
     33          6           0        9.904917    2.842268    2.687939
     34          7           0        6.440008   -0.387273    0.123116
     35          6           0        7.769098   -0.512350   -0.043169
     36          6           0        8.203377   -1.920905   -0.123463
     37          6           0        7.005665   -2.585192   -0.066195
     38          6           0        5.987275   -1.694350    0.072034
     39          6           0        9.615037   -2.407641   -0.261370
     40          6           0        6.417579   -3.919876    0.049032
     41          8           0        6.997927   -4.980992   -0.041028
     42          6           0        4.890116   -3.739326    0.243513
     43          6           0        4.165706   -4.520625   -0.788472
     44          8           0        3.929682   -4.165482   -1.957051
     45          8           0        4.003618   -5.784666   -0.322930
     46          6           0        3.646423   -6.804567   -1.368623
     47          6           0       -1.865462   -3.950872   -0.848076
     48          6           0       -3.061632   -3.122585   -0.618228
     49          6           0       -4.245812   -3.140088   -1.255260
     50          6           0       -4.510990   -3.907736   -2.546575
     51          6           0       -5.300551   -2.126783   -0.855300
     52          6           0       -6.061533   -2.444038    0.435478
     53          6           0       -6.654049   -1.156092    1.141059
     54          6           0       -8.099923   -1.374541    1.594881
     55          6           0       -8.152524   -2.235836    2.870304
     56          6           0       -8.680580    0.064816    1.820230
     57          6           0       -9.761901    0.507037    0.820740
     58          6           0      -10.974745   -0.464187    0.829387
     59          6           0      -12.339915    0.175999    1.153490
     60          6           0      -13.021120   -0.587709    2.279979
     61          6           0      -13.314162    0.390606   -0.047909
     62          6           0      -13.764432    1.864766   -0.296578
     63          6           0      -15.159043    1.986239   -1.008486
     64          6           0      -15.805054    3.419226   -0.902625
     65          6           0      -17.296747    3.333262   -0.588982
     66          6           0      -15.482792    4.256785   -2.172234
     67          1           0        0.765918    1.680257   -0.637716
     68          1           0        5.942252    5.568995    0.055162
     69          1           0        9.721819    0.435456    0.013103
     70          1           0        2.003428   -2.783472   -0.596109
     71          1           0        0.352061   -0.743954    0.632543
     72          1           0        0.612599   -1.578116   -2.118417
     73          1           0        0.430397    0.123990   -2.059435
     74          1           0       -0.634276   -0.922215   -1.016167
     75          1           0        1.112290   -2.329317    2.146352
     76          1           0        2.683930   -2.982009    2.096462
     77          1           0        0.462873   -4.423146    2.212065
     78          1           0        1.818907   -5.087764    1.376935
     79          1           0        0.105260    3.954550    0.178182
     80          1           0        0.278480    4.220926   -1.563131
     81          1           0        0.417495    5.485756   -0.481831
     82          1           0        1.647085    7.219316   -1.645356
     83          1           0        2.450590    8.460252   -0.587808
     84          1           0        1.343527    7.377671    0.156299
     85          1           0        8.399007    4.743990    1.177319
     86          1           0        9.889672    3.016756   -0.812869
     87          1           0        9.215463    6.150041   -0.500548
     88          1           0        7.675755    5.929120   -1.266068
     89          1           0        9.050504    4.964953   -1.866651
     90          1           0       10.774183    4.137797    1.318305
     91          1           0       11.214679    2.513822    1.137975
     92          1           0        8.864537    2.523446    2.624707
     93          1           0        9.847716    3.697123    3.363326
     94          1           0       10.533147    2.071739    3.134920
     95          1           0        9.593386   -3.461088   -0.540375
     96          1           0       10.024071   -2.100224    0.700450
     97          1           0       10.105557   -1.853614   -1.062889
     98          1           0        4.606122   -4.139750    1.216480
     99          1           0        4.278426   -6.657678   -2.244565
    100          1           0        2.617161   -6.620624   -1.678498
    101          1           0        3.767850   -7.804613   -0.951211
    102          1           0       -2.217720   -4.978805   -0.930917
    103          1           0       -1.485331   -3.685103   -1.834502
    104          1           0       -3.011873   -2.538599    0.300376
    105          1           0       -4.951812   -3.193729   -3.243095
    106          1           0       -5.213695   -4.708623   -2.316465
    107          1           0       -3.518271   -4.208029   -2.882563
    108          1           0       -6.069736   -2.065378   -1.624893
    109          1           0       -4.899474   -1.112855   -0.838812
    110          1           0       -5.425949   -2.941244    1.167426
    111          1           0       -6.768867   -3.210202    0.117842
    112          1           0       -6.805216   -0.316534    0.461662
    113          1           0       -5.965791   -0.898248    1.945636
    114          1           0       -8.665570   -1.968385    0.877464
    115          1           0       -8.821669   -1.794182    3.608774
    116          1           0       -7.212149   -2.418594    3.390407
    117          1           0       -8.538111   -3.244558    2.725430
    118          1           0       -7.794217    0.681692    1.971461
    119          1           0       -9.234314    0.200701    2.749233
    120          1           0       -9.239021    0.424804   -0.131558
    121          1           0      -10.075415    1.529774    1.033145
    122          1           0      -10.896430   -1.240419    1.590749
    123          1           0      -10.996124   -0.957473   -0.142340
    124          1           0      -12.176435    1.151917    1.611232
    125          1           0      -12.439192   -1.112875    3.036932
    126          1           0      -13.660534   -1.343789    1.823742
    127          1           0      -13.623933    0.138313    2.825008
    128          1           0      -14.165969   -0.286457    0.012229
    129          1           0      -12.796772    0.080352   -0.955094
    130          1           0      -12.993015    2.276101   -0.947517
    131          1           0      -13.731995    2.434476    0.632521
    132          1           0      -15.814050    1.320840   -0.446345
    133          1           0      -15.118389    1.762955   -2.073849
    134          1           0      -15.418388    3.943151   -0.029454
    135          1           0      -17.364590    2.676209    0.277753
    136          1           0      -17.903791    2.939023   -1.404955
    137          1           0      -17.650763    4.310026   -0.258984
    138          1           0      -14.888701    5.112116   -1.848164
    139          1           0      -16.466849    4.606558   -2.483866
    140          1           0      -15.045670    3.687995   -2.993134
 ---------------------------------------------------------------------

 SCF Done:  E(RB-LYP) =  -3007.39885776     A.U. after   20 cycles

 Excitation energies and oscillator strengths:

 Excited State   1:      Singlet-A      1.7850 eV  694.61 nm  f=0.3110  <S**2>=0.000
     245 -> 248        0.17463
     246 -> 247        0.69384
     246 <- 247       -0.15442
 This state for optimization and/or second-order correction.
 Total Energy, E(TD-HF/TD-DFT) =  -3007.33326199
 Copying the excited state density for this state as the 1-particle RhoCI density.

 Excited State   2:      Singlet-A      2.0042 eV  618.63 nm  f=0.0085  <S**2>=0.000
     244 -> 247        0.64783
     245 -> 247       -0.26203

 Excited State   3:      Singlet-A      2.0490 eV  605.09 nm  f=0.0556  <S**2>=0.000
     244 -> 247        0.28112
     245 -> 247        0.58502
     246 -> 248       -0.23283

 Excited State   4:      Singlet-A      2.2056 eV  562.13 nm  f=0.0003  <S**2>=0.000
     243 -> 247        0.70330

 Excited State   5:      Singlet-A      2.3892 eV  518.94 nm  f=0.0001  <S**2>=0.000
     242 -> 247        0.70681

 The electronic state is 1-A.
 Alpha  occ. eigenvalues --  -46.26002 -18.83000 -18.81751 -18.78679 -18.76027
 Alpha  occ. eigenvalues --  -18.75887 -18.75511 -14.03220 -14.02297 -14.00620
 Alpha  occ. eigenvalues --  -14.00517 -10.05053 -10.03277 -10.00097  -9.99788
 Alpha  occ. eigenvalues --   -9.98029  -9.96802  -9.96578  -9.96123  -9.95779
 Alpha  occ. eigenvalues --   -9.95617  -9.95366  -9.95111  -9.95000  -9.94307
 Alpha  occ. eigenvalues --   -9.94155  -9.93986  -9.93933  -9.93902  -9.93795
 Alpha  occ. eigenvalues --   -9.93768  -9.93722  -9.93396  -9.93246  -9.93034
 Alpha  occ. eigenvalues --   -9.92835  -9.92683  -9.92552  -9.92485  -9.92399
 Alpha  occ. eigenvalues --   -9.92305  -9.92176  -9.92104  -9.92008  -9.91864
 Alpha  occ. eigenvalues --   -9.91750  -9.91733  -9.91712  -9.91695  -9.91664
 Alpha  occ. eigenvalues --   -9.91651  -9.91620  -9.91544  -9.91535  -9.91394
 Alpha  occ. eigenvalues --   -9.91352  -9.91271  -9.91187  -9.91152  -9.91009
 Alpha  occ. eigenvalues --   -9.90951  -9.90807  -9.90768  -9.90630  -9.90524
 Alpha  occ. eigenvalues --   -9.90394  -2.90914  -1.71309  -1.70780  -1.70662
 Alpha  occ. eigenvalues --   -0.98488  -0.96718  -0.92087  -0.91935  -0.90530
 Alpha  occ. eigenvalues --   -0.88072  -0.86707  -0.85486  -0.84639  -0.83204
 Alpha  occ. eigenvalues --   -0.75949  -0.74149  -0.73637  -0.73054  -0.72046
 Alpha  occ. eigenvalues --   -0.71821  -0.71293  -0.71056  -0.70873  -0.70243
 Alpha  occ. eigenvalues --   -0.70007  -0.69198  -0.68235  -0.67321  -0.66947
 Alpha  occ. eigenvalues --   -0.66445  -0.65674  -0.65249  -0.64654  -0.64371
 Alpha  occ. eigenvalues --   -0.63934  -0.62831  -0.62109  -0.61419  -0.60576
 Alpha  occ. eigenvalues --   -0.60434  -0.60189  -0.59545  -0.59376  -0.58956
 Alpha  occ. eigenvalues --   -0.58309  -0.57450  -0.56637  -0.55931  -0.54567
 Alpha  occ. eigenvalues --   -0.54084  -0.53803  -0.52395  -0.52217  -0.51399
 Alpha  occ. eigenvalues --   -0.51039  -0.50790  -0.50484  -0.50148  -0.50129
 Alpha  occ. eigenvalues --   -0.49693  -0.49018  -0.48314  -0.47677  -0.47181
 Alpha  occ. eigenvalues --   -0.46082  -0.45854  -0.45295  -0.44738  -0.44264
 Alpha  occ. eigenvalues --   -0.43523  -0.43370  -0.42945  -0.42867  -0.42321
 Alpha  occ. eigenvalues --   -0.41888  -0.41755  -0.41480  -0.41366  -0.41344
 Alpha  occ. eigenvalues --   -0.41133  -0.40955  -0.40340  -0.40143  -0.39697
 Alpha  occ. eigenvalues --   -0.39518  -0.39326  -0.39276  -0.39173  -0.39098
 Alpha  occ. eigenvalues --   -0.39009  -0.38890  -0.38844  -0.38436  -0.38091
 Alpha  occ. eigenvalues --   -0.37987  -0.37935  -0.37728  -0.37516  -0.37235
 Alpha  occ. eigenvalues --   -0.37111  -0.36801  -0.36707  -0.36637  -0.36415
 Alpha  occ. eigenvalues --   -0.36256  -0.36087  -0.35988  -0.35662  -0.35372
 Alpha  occ. eigenvalues --   -0.35222  -0.34995  -0.34930  -0.34841  -0.34744
 Alpha  occ. eigenvalues --   -0.34487  -0.34212  -0.34162  -0.33957  -0.33852
 Alpha  occ. eigenvalues --   -0.33795  -0.33553  -0.33354  -0.33153  -0.33013
 Alpha  occ. eigenvalues --   -0.32915  -0.32606  -0.32492  -0.32299  -0.32245
 Alpha  occ. eigenvalues --   -0.32130  -0.32048  -0.31853  -0.31752  -0.31508
 Alpha  occ. eigenvalues --   -0.31350  -0.31082  -0.30973  -0.30836  -0.30644
 Alpha  occ. eigenvalues --   -0.30597  -0.30292  -0.29978  -0.29810  -0.29601
 Alpha  occ. eigenvalues --   -0.29428  -0.29328  -0.29112  -0.28945  -0.28892
 Alpha  occ. eigenvalues --   -0.28402  -0.28352  -0.28186  -0.28140  -0.27909
 Alpha  occ. eigenvalues --   -0.27729  -0.27167  -0.26739  -0.26675  -0.26559
 Alpha  occ. eigenvalues --   -0.26368  -0.26255  -0.26103  -0.25956  -0.25369
 Alpha  occ. eigenvalues --   -0.25324  -0.24704  -0.24603  -0.24451  -0.23464
 Alpha  occ. eigenvalues --   -0.23180  -0.23105  -0.21791  -0.21010  -0.20989
 Alpha  occ. eigenvalues --   -0.20199  -0.19834  -0.19063  -0.18362  -0.16938
 Alpha  occ. eigenvalues --   -0.15226
 Alpha virt. eigenvalues --   -0.11054  -0.06470  -0.06079  -0.04888  -0.04049
 Alpha virt. eigenvalues --   -0.02755  -0.02218  -0.02120  -0.01445   0.00550
 Alpha virt. eigenvalues --    0.01527   0.02248   0.02679   0.02793   0.02878

 Mulliken charges:
               1
     1  Mg   0.735656
     2  C    0.009778
     3  C   -0.073225
     4  C   -0.056065
     5  C   -0.083994
     6  N   -0.208093
     7  C   -0.094313
     8  C    0.041950
     9  C   -0.014202
    10  C    0.041968
    11  C    0.071352
    12  C    0.123369
    13  C    0.185032
    14  C    0.051177
    15  O   -0.155457
    16  O   -0.300740
    17  N   -0.241617
    18  C    0.115435
    19  C   -0.106425
    20  C    0.045502
    21  C    0.087961
    22  C    0.170051
    23  C   -0.070206
    24  O   -0.181965
    25  C    0.129147
    26  N   -0.276374
    27  C    0.013143
    28  C    0.023503
    29  C    0.059305
    30  C    0.022793
    31  C    0.124818
    32  C    0.066355
    33  C    0.076164
    34  N   -0.321541
    35  C    0.136726
    36  C   -0.245748
    37  C    0.122749
    38  C    0.109176
    39  C    0.200322
    40  C   -0.076420
    41  O   -0.109483
    42  C    0.074373
    43  C    0.112590
    44  O   -0.211031
    45  O   -0.270166
    46  C    0.219771
    47  C    0.331415
    48  C   -0.133767
    49  C   -0.177674
    50  C    0.160752
    51  C    0.128208
    52  C    0.075361
    53  C    0.112398
    54  C   -0.096472
    55  C    0.101839
    56  C    0.080734
    57  C    0.112593
    58  C    0.106395
    59  C   -0.071567
    60  C    0.084848
    61  C    0.119570
    62  C    0.049454
    63  C    0.099611
    64  C   -0.115718
    65  C    0.099421
    66  C    0.128864
    67  H   -0.062964
    68  H   -0.035872
    69  H   -0.076602
    70  H    0.017109
    71  H   -0.016754
    72  H    0.006315
    73  H    0.009027
    74  H   -0.003892
    75  H   -0.030056
    76  H   -0.017253
    77  H   -0.012041
    78  H   -0.000993
    79  H   -0.007321
    80  H    0.001833
    81  H   -0.050904
    82  H    0.023853
    83  H   -0.011310
    84  H    0.006952
    85  H   -0.019626
    86  H   -0.020764
    87  H   -0.011649
    88  H    0.008136
    89  H   -0.001216
    90  H   -0.025361
    91  H   -0.032013
    92  H   -0.010097
    93  H   -0.013861
    94  H   -0.005803
    95  H    0.014529
    96  H    0.010742
    97  H    0.000163
    98  H   -0.001663
    99  H    0.019069
   100  H    0.025780
   101  H    0.016571
   102  H   -0.001238
   103  H    0.012737
   104  H   -0.035171
   105  H    0.000825
   106  H    0.008994
   107  H   -0.012092
   108  H   -0.049982
   109  H   -0.021109
   110  H   -0.030112
   111  H   -0.036622
   112  H   -0.024070
   113  H   -0.017152
   114  H   -0.027013
   115  H   -0.025570
   116  H   -0.025376
   117  H   -0.025939
   118  H   -0.040953
   119  H   -0.045637
   120  H   -0.042814
   121  H   -0.021647
   122  H   -0.032529
   123  H   -0.035343
   124  H   -0.038687
   125  H   -0.014079
   126  H   -0.020421
   127  H   -0.021636
   128  H   -0.035652
   129  H   -0.043519
   130  H   -0.029478
   131  H   -0.025850
   132  H   -0.037906
   133  H   -0.025359
   134  H   -0.041781
   135  H   -0.019259
   136  H   -0.010475
   137  H   -0.017691
   138  H   -0.010326
   139  H   -0.031012
   140  H   -0.010487
 Sum of Mulliken charges =  -0.00000

 Dipole moment (field-independent basis, Debye):
    X=             -4.0315    Y=              0.2230    Z=              2.4091  Tot=              4.7017
 Quadrupole moment (field-independent basis, Debye-Ang):
   XX=           -388.4446   YY=           -429.9235   ZZ=           -403.5633
   XY=             13.1458   XZ=             15.1671   YZ=             -2.1540

 Normal termination of Gaussian 16 at Wed May  4 07:33:32 2022.
