 Gaussian 16, Revision A.03,
 Gaussian 16:  ES64L-G16RevA.03 25-Dec-2016

 -----------------------------------
 #p cam-b3lyp/Def2SVP td=(nstates=5)
 -----------------------------------

 --------------------------------------------------------
 step_1451_chromophore_18 TDDFT with cam-b3lyp functional
 --------------------------------------------------------
 Symbolic Z-matrix:
 Charge =  0 Multiplicity = 1

                         Standard orientation:
 ---------------------------------------------------------------------
 Center     Atomic      Atomic             Coordinates (Angstroms)
 Number     Number       Type             X           Y           Z
 ---------------------------------------------------------------------
      1         12           0        5.288821    1.123266    0.360367
      2          6           0        4.702342   -2.226043    0.162867
      3          6           0        1.815593    1.631269   -0.343055
      4          6           0        5.742237    4.499692   -0.030593
      5          6           0        8.645540    0.595521    0.101211
      6          7           0        3.484875   -0.109477    0.038428
      7          6           0        3.475196   -1.500297    0.166361
      8          6           0        2.053626   -2.071703    0.227968
      9          6           0        1.180645   -0.792583   -0.072584
     10          6           0        2.195773    0.279350   -0.149255
     11          6           0        0.359809   -0.766741   -1.435561
     12          6           0        1.778789   -2.895291    1.495188
     13          6           0        1.137236   -4.238143    1.375657
     14          6           0        0.306666   -4.394208    0.113043
     15          8           0        0.670399   -5.011726   -0.852393
     16          8           0       -0.968784   -3.783693    0.262721
     17          7           0        3.948345    2.833189   -0.044245
     18          6           0        2.596770    2.822526   -0.319176
     19          6           0        2.126021    4.190618   -0.395858
     20          6           0        3.249956    5.044164   -0.303036
     21          6           0        4.390889    4.115249   -0.116144
     22          6           0        0.710763    4.440710   -0.586582
     23          6           0        3.281945    6.594533   -0.319071
     24          8           0        4.324518    7.269728   -0.268331
     25          6           0        2.060470    7.445081   -0.662798
     26          7           0        6.988936    2.338811    0.176807
     27          6           0        6.899369    3.759225    0.154304
     28          6           0        8.334220    4.337578    0.167993
     29          6           0        9.336535    3.047795    0.125516
     30          6           0        8.298039    1.916699    0.171273
     31          6           0        8.586197    5.401614   -0.983081
     32          6           0       10.338817    3.138915    1.309809
     33          6           0        9.904917    2.842268    2.687939
     34          7           0        6.440008   -0.387273    0.123116
     35          6           0        7.769098   -0.512350   -0.043169
     36          6           0        8.203377   -1.920905   -0.123463
     37          6           0        7.005665   -2.585192   -0.066195
     38          6           0        5.987275   -1.694350    0.072034
     39          6           0        9.615037   -2.407641   -0.261370
     40          6           0        6.417579   -3.919876    0.049032
     41          8           0        6.997927   -4.980992   -0.041028
     42          6           0        4.890116   -3.739326    0.243513
     43          6           0        4.165706   -4.520625   -0.788472
     44          8           0        3.929682   -4.165482   -1.957051
     45          8           0        4.003618   -5.784666   -0.322930
     46          6           0        3.646423   -6.804567   -1.368623
     47          6           0       -1.865462   -3.950872   -0.848076
     48          6           0       -3.061632   -3.122585   -0.618228
     49          6           0       -4.245812   -3.140088   -1.255260
     50          6           0       -4.510990   -3.907736   -2.546575
     51          6           0       -5.300551   -2.126783   -0.855300
     52          6           0       -6.061533   -2.444038    0.435478
     53          6           0       -6.654049   -1.156092    1.141059
     54          6           0       -8.099923   -1.374541    1.594881
     55          6           0       -8.152524   -2.235836    2.870304
     56          6           0       -8.680580    0.064816    1.820230
     57          6           0       -9.761901    0.507037    0.820740
     58          6           0      -10.974745   -0.464187    0.829387
     59          6           0      -12.339915    0.175999    1.153490
     60          6           0      -13.021120   -0.587709    2.279979
     61          6           0      -13.314162    0.390606   -0.047909
     62          6           0      -13.764432    1.864766   -0.296578
     63          6           0      -15.159043    1.986239   -1.008486
     64          6           0      -15.805054    3.419226   -0.902625
     65          6           0      -17.296747    3.333262   -0.588982
     66          6           0      -15.482792    4.256785   -2.172234
     67          1           0        0.765918    1.680257   -0.637716
     68          1           0        5.942252    5.568995    0.055162
     69          1           0        9.721819    0.435456    0.013103
     70          1           0        2.003428   -2.783472   -0.596109
     71          1           0        0.352061   -0.743954    0.632543
     72          1           0        0.612599   -1.578116   -2.118417
     73          1           0        0.430397    0.123990   -2.059435
     74          1           0       -0.634276   -0.922215   -1.016167
     75          1           0        1.112290   -2.329317    2.146352
     76          1           0        2.683930   -2.982009    2.096462
     77          1           0        0.462873   -4.423146    2.212065
     78          1           0        1.818907   -5.087764    1.376935
     79          1           0        0.105260    3.954550    0.178182
     80          1           0        0.278480    4.220926   -1.563131
     81          1           0        0.417495    5.485756   -0.481831
     82          1           0        1.647085    7.219316   -1.645356
     83          1           0        2.450590    8.460252   -0.587808
     84          1           0        1.343527    7.377671    0.156299
     85          1           0        8.399007    4.743990    1.177319
     86          1           0        9.889672    3.016756   -0.812869
     87          1           0        9.215463    6.150041   -0.500548
     88          1           0        7.675755    5.929120   -1.266068
     89          1           0        9.050504    4.964953   -1.866651
     90          1           0       10.774183    4.137797    1.318305
     91          1           0       11.214679    2.513822    1.137975
     92          1           0        8.864537    2.523446    2.624707
     93          1           0        9.847716    3.697123    3.363326
     94          1           0       10.533147    2.071739    3.134920
     95          1           0        9.593386   -3.461088   -0.540375
     96          1           0       10.024071   -2.100224    0.700450
     97          1           0       10.105557   -1.853614   -1.062889
     98          1           0        4.606122   -4.139750    1.216480
     99          1           0        4.278426   -6.657678   -2.244565
    100          1           0        2.617161   -6.620624   -1.678498
    101          1           0        3.767850   -7.804613   -0.951211
    102          1           0       -2.217720   -4.978805   -0.930917
    103          1           0       -1.485331   -3.685103   -1.834502
    104          1           0       -3.011873   -2.538599    0.300376
    105          1           0       -4.951812   -3.193729   -3.243095
    106          1           0       -5.213695   -4.708623   -2.316465
    107          1           0       -3.518271   -4.208029   -2.882563
    108          1           0       -6.069736   -2.065378   -1.624893
    109          1           0       -4.899474   -1.112855   -0.838812
    110          1           0       -5.425949   -2.941244    1.167426
    111          1           0       -6.768867   -3.210202    0.117842
    112          1           0       -6.805216   -0.316534    0.461662
    113          1           0       -5.965791   -0.898248    1.945636
    114          1           0       -8.665570   -1.968385    0.877464
    115          1           0       -8.821669   -1.794182    3.608774
    116          1           0       -7.212149   -2.418594    3.390407
    117          1           0       -8.538111   -3.244558    2.725430
    118          1           0       -7.794217    0.681692    1.971461
    119          1           0       -9.234314    0.200701    2.749233
    120          1           0       -9.239021    0.424804   -0.131558
    121          1           0      -10.075415    1.529774    1.033145
    122          1           0      -10.896430   -1.240419    1.590749
    123          1           0      -10.996124   -0.957473   -0.142340
    124          1           0      -12.176435    1.151917    1.611232
    125          1           0      -12.439192   -1.112875    3.036932
    126          1           0      -13.660534   -1.343789    1.823742
    127          1           0      -13.623933    0.138313    2.825008
    128          1           0      -14.165969   -0.286457    0.012229
    129          1           0      -12.796772    0.080352   -0.955094
    130          1           0      -12.993015    2.276101   -0.947517
    131          1           0      -13.731995    2.434476    0.632521
    132          1           0      -15.814050    1.320840   -0.446345
    133          1           0      -15.118389    1.762955   -2.073849
    134          1           0      -15.418388    3.943151   -0.029454
    135          1           0      -17.364590    2.676209    0.277753
    136          1           0      -17.903791    2.939023   -1.404955
    137          1           0      -17.650763    4.310026   -0.258984
    138          1           0      -14.888701    5.112116   -1.848164
    139          1           0      -16.466849    4.606558   -2.483866
    140          1           0      -15.045670    3.687995   -2.993134
 ---------------------------------------------------------------------

 SCF Done:  E(RCAM-B3LYP) =  -3007.19804475     A.U. after   17 cycles

 Excitation energies and oscillator strengths:

 Excited State   1:      Singlet-A      1.6780 eV  738.89 nm  f=0.3750  <S**2>=0.000
     245 -> 248       -0.17791
     246 -> 247        0.68635
     245 <- 248       -0.10878
 This state for optimization and/or second-order correction.
 Total Energy, E(TD-HF/TD-DFT) =  -3007.13638007
 Copying the excited state density for this state as the 1-particle RhoCI density.

 Excited State   2:      Singlet-A      2.2632 eV  547.84 nm  f=0.0933  <S**2>=0.000
     245 -> 247        0.62856
     246 -> 248        0.31266

 Excited State   3:      Singlet-A      3.4458 eV  359.81 nm  f=0.2160  <S**2>=0.000
     243 -> 247        0.50655
     244 -> 247        0.14767
     245 -> 247        0.16526
     246 -> 248       -0.41602

 Excited State   4:      Singlet-A      3.5769 eV  346.63 nm  f=0.5689  <S**2>=0.000
     242 -> 247       -0.12890
     243 -> 247        0.42503
     244 -> 247        0.12352
     245 -> 247       -0.25837
     246 -> 248        0.45798

 Excited State   5:      Singlet-A      3.6341 eV  341.17 nm  f=0.0016  <S**2>=0.000
     241 -> 247        0.49631
     241 -> 248        0.13684
     241 -> 249        0.37318
     241 -> 250        0.17804
     241 -> 251       -0.17170

 The electronic state is 1-A.
 Alpha  occ. eigenvalues --  -46.87452 -19.25891 -19.24694 -19.21758 -19.19207
 Alpha  occ. eigenvalues --  -19.19002 -19.18853 -14.42302 -14.40943 -14.39093
 Alpha  occ. eigenvalues --  -14.38868 -10.40424 -10.38798 -10.35476 -10.35054
 Alpha  occ. eigenvalues --  -10.31975 -10.31010 -10.30834 -10.30570 -10.30315
 Alpha  occ. eigenvalues --  -10.29900 -10.29868 -10.29356 -10.29250 -10.28354
 Alpha  occ. eigenvalues --  -10.28287 -10.28213 -10.27988 -10.27979 -10.27843
 Alpha  occ. eigenvalues --  -10.27795 -10.27769 -10.27669 -10.27640 -10.27351
 Alpha  occ. eigenvalues --  -10.27225 -10.26814 -10.26686 -10.26352 -10.26175
 Alpha  occ. eigenvalues --  -10.26040 -10.25957 -10.25840 -10.25763 -10.25711
 Alpha  occ. eigenvalues --  -10.25505 -10.25473 -10.25465 -10.25443 -10.25424
 Alpha  occ. eigenvalues --  -10.25414 -10.25376 -10.25337 -10.25236 -10.25227
 Alpha  occ. eigenvalues --  -10.25226 -10.24992 -10.24856 -10.24699 -10.24661
 Alpha  occ. eigenvalues --  -10.24659 -10.24409 -10.24372 -10.24361 -10.24236
 Alpha  occ. eigenvalues --  -10.24150  -3.16276  -1.91141  -1.90716  -1.90614
 Alpha  occ. eigenvalues --   -1.16989  -1.15240  -1.10491  -1.09826  -1.09014
 Alpha  occ. eigenvalues --   -1.05993  -1.04319  -1.03165  -1.02255  -1.00602
 Alpha  occ. eigenvalues --   -0.93108  -0.91046  -0.90500  -0.89878  -0.88772
 Alpha  occ. eigenvalues --   -0.88519  -0.87866  -0.87672  -0.87506  -0.86815
 Alpha  occ. eigenvalues --   -0.86466  -0.85608  -0.84518  -0.83489  -0.83057
 Alpha  occ. eigenvalues --   -0.82515  -0.81648  -0.81186  -0.80753  -0.80166
 Alpha  occ. eigenvalues --   -0.79819  -0.78470  -0.77902  -0.76851  -0.75951
 Alpha  occ. eigenvalues --   -0.75820  -0.75563  -0.74840  -0.74598  -0.74204
 Alpha  occ. eigenvalues --   -0.73372  -0.72431  -0.71539  -0.70764  -0.69105
 Alpha  occ. eigenvalues --   -0.68699  -0.68408  -0.66846  -0.66636  -0.65607
 Alpha  occ. eigenvalues --   -0.65283  -0.64785  -0.64537  -0.64241  -0.64096
 Alpha  occ. eigenvalues --   -0.63464  -0.62959  -0.62176  -0.61390  -0.60862
 Alpha  occ. eigenvalues --   -0.59753  -0.59320  -0.58715  -0.58125  -0.57818
 Alpha  occ. eigenvalues --   -0.56873  -0.56684  -0.56478  -0.55958  -0.55443
 Alpha  occ. eigenvalues --   -0.55046  -0.54692  -0.54588  -0.54259  -0.54107
 Alpha  occ. eigenvalues --   -0.53932  -0.53759  -0.53358  -0.52929  -0.52487
 Alpha  occ. eigenvalues --   -0.52296  -0.52068  -0.51963  -0.51852  -0.51694
 Alpha  occ. eigenvalues --   -0.51543  -0.51293  -0.51213  -0.50880  -0.50624
 Alpha  occ. eigenvalues --   -0.50385  -0.50264  -0.50115  -0.49879  -0.49706
 Alpha  occ. eigenvalues --   -0.49448  -0.49024  -0.48932  -0.48832  -0.48684
 Alpha  occ. eigenvalues --   -0.48586  -0.48325  -0.48215  -0.48123  -0.47500
 Alpha  occ. eigenvalues --   -0.47417  -0.47255  -0.46929  -0.46850  -0.46813
 Alpha  occ. eigenvalues --   -0.46558  -0.46170  -0.46043  -0.45760  -0.45646
 Alpha  occ. eigenvalues --   -0.45484  -0.45287  -0.45219  -0.44948  -0.44763
 Alpha  occ. eigenvalues --   -0.44614  -0.44508  -0.44200  -0.44114  -0.43901
 Alpha  occ. eigenvalues --   -0.43660  -0.43607  -0.43338  -0.43273  -0.43096
 Alpha  occ. eigenvalues --   -0.42838  -0.42499  -0.42443  -0.42391  -0.42118
 Alpha  occ. eigenvalues --   -0.41899  -0.41873  -0.41665  -0.41287  -0.40924
 Alpha  occ. eigenvalues --   -0.40608  -0.40536  -0.40485  -0.40135  -0.39981
 Alpha  occ. eigenvalues --   -0.39400  -0.39336  -0.39128  -0.39060  -0.38819
 Alpha  occ. eigenvalues --   -0.38666  -0.38152  -0.37981  -0.37962  -0.37491
 Alpha  occ. eigenvalues --   -0.37135  -0.36959  -0.36814  -0.36632  -0.36230
 Alpha  occ. eigenvalues --   -0.36017  -0.35895  -0.35252  -0.35148  -0.35042
 Alpha  occ. eigenvalues --   -0.34130  -0.33590  -0.32668  -0.31095  -0.30896
 Alpha  occ. eigenvalues --   -0.30759  -0.30272  -0.29524  -0.29452  -0.23696
 Alpha  occ. eigenvalues --   -0.20449
 Alpha virt. eigenvalues --   -0.08066  -0.01215   0.00497   0.01996   0.02416
 Alpha virt. eigenvalues --    0.03698   0.05186   0.05430   0.05723   0.07718
 Alpha virt. eigenvalues --    0.08272   0.08868   0.08988   0.09170   0.09356

 Mulliken charges:
               1
     1  Mg   0.867166
     2  C   -0.013986
     3  C   -0.080067
     4  C   -0.082854
     5  C   -0.094149
     6  N   -0.273664
     7  C   -0.048838
     8  C   -0.018201
     9  C   -0.058424
    10  C    0.053219
    11  C    0.018182
    12  C    0.068397
    13  C    0.116126
    14  C    0.126126
    15  O   -0.194100
    16  O   -0.364780
    17  N   -0.324764
    18  C    0.123766
    19  C   -0.114415
    20  C   -0.022439
    21  C    0.116392
    22  C    0.105493
    23  C    0.010133
    24  O   -0.221878
    25  C    0.046311
    26  N   -0.351606
    27  C    0.045958
    28  C   -0.037729
    29  C    0.009801
    30  C    0.037489
    31  C    0.067018
    32  C    0.013038
    33  C    0.011664
    34  N   -0.412217
    35  C    0.144223
    36  C   -0.236592
    37  C    0.043927
    38  C    0.133593
    39  C    0.143928
    40  C    0.025320
    41  O   -0.147355
    42  C   -0.000022
    43  C    0.198023
    44  O   -0.246502
    45  O   -0.333417
    46  C    0.181005
    47  C    0.297048
    48  C   -0.148058
    49  C   -0.201012
    50  C    0.099793
    51  C    0.066776
    52  C    0.026997
    53  C    0.057496
    54  C   -0.155170
    55  C    0.044955
    56  C    0.028473
    57  C    0.058610
    58  C    0.051316
    59  C   -0.128955
    60  C    0.030170
    61  C    0.066514
    62  C    0.001603
    63  C    0.043482
    64  C   -0.171632
    65  C    0.040065
    66  C    0.065963
    67  H   -0.026700
    68  H    0.002615
    69  H   -0.041364
    70  H    0.047587
    71  H    0.018052
    72  H    0.030865
    73  H    0.033826
    74  H    0.017056
    75  H    0.002744
    76  H    0.014914
    77  H    0.024264
    78  H    0.031297
    79  H    0.021897
    80  H    0.030949
    81  H   -0.019778
    82  H    0.050771
    83  H    0.025497
    84  H    0.033572
    85  H    0.013985
    86  H    0.014414
    87  H    0.012258
    88  H    0.032559
    89  H    0.022545
    90  H    0.003555
    91  H   -0.002714
    92  H    0.012198
    93  H    0.010510
    94  H    0.019035
    95  H    0.041742
    96  H    0.034732
    97  H    0.024905
    98  H    0.040224
    99  H    0.043659
   100  H    0.049171
   101  H    0.040465
   102  H    0.026139
   103  H    0.037747
   104  H   -0.001744
   105  H    0.024695
   106  H    0.032714
   107  H    0.010200
   108  H   -0.018750
   109  H    0.009040
   110  H   -0.002183
   111  H   -0.008660
   112  H    0.003012
   113  H    0.010641
   114  H    0.004259
   115  H   -0.001245
   116  H   -0.000864
   117  H   -0.000886
   118  H   -0.009703
   119  H   -0.017642
   120  H   -0.015357
   121  H    0.006449
   122  H   -0.005553
   123  H   -0.006099
   124  H   -0.007818
   125  H    0.010080
   126  H    0.002773
   127  H    0.002509
   128  H   -0.007720
   129  H   -0.013859
   130  H   -0.003020
   131  H   -0.000244
   132  H   -0.009954
   133  H    0.001373
   134  H   -0.009878
   135  H    0.004381
   136  H    0.012807
   137  H    0.007322
   138  H    0.013681
   139  H   -0.005546
   140  H    0.012863
 Sum of Mulliken charges =  -0.00000

 Dipole moment (field-independent basis, Debye):
    X=             -4.6903    Y=              0.6469    Z=              2.5611  Tot=              5.3830
 Quadrupole moment (field-independent basis, Debye-Ang):
   XX=           -390.7501   YY=           -425.3412   ZZ=           -403.3924
   XY=             13.6001   XZ=             15.4763   YZ=             -2.7079

 Normal termination of Gaussian 16 at Wed May  4 06:28:23 2022.
