 Gaussian 16, Revision A.03,
 Gaussian 16:  ES64L-G16RevA.03 25-Dec-2016

 ---------------------------------
 #p PBE1PBE/Def2SVP td=(nstates=5)
 ---------------------------------

 ------------------------------------------------------
 step_1451_chromophore_18 TDDFT with PBE1PBE functional
 ------------------------------------------------------
 Symbolic Z-matrix:
 Charge =  0 Multiplicity = 1

                         Standard orientation:
 ---------------------------------------------------------------------
 Center     Atomic      Atomic             Coordinates (Angstroms)
 Number     Number       Type             X           Y           Z
 ---------------------------------------------------------------------
      1         12           0        5.288821    1.123266    0.360367
      2          6           0        4.702342   -2.226043    0.162867
      3          6           0        1.815593    1.631269   -0.343055
      4          6           0        5.742237    4.499692   -0.030593
      5          6           0        8.645540    0.595521    0.101211
      6          7           0        3.484875   -0.109477    0.038428
      7          6           0        3.475196   -1.500297    0.166361
      8          6           0        2.053626   -2.071703    0.227968
      9          6           0        1.180645   -0.792583   -0.072584
     10          6           0        2.195773    0.279350   -0.149255
     11          6           0        0.359809   -0.766741   -1.435561
     12          6           0        1.778789   -2.895291    1.495188
     13          6           0        1.137236   -4.238143    1.375657
     14          6           0        0.306666   -4.394208    0.113043
     15          8           0        0.670399   -5.011726   -0.852393
     16          8           0       -0.968784   -3.783693    0.262721
     17          7           0        3.948345    2.833189   -0.044245
     18          6           0        2.596770    2.822526   -0.319176
     19          6           0        2.126021    4.190618   -0.395858
     20          6           0        3.249956    5.044164   -0.303036
     21          6           0        4.390889    4.115249   -0.116144
     22          6           0        0.710763    4.440710   -0.586582
     23          6           0        3.281945    6.594533   -0.319071
     24          8           0        4.324518    7.269728   -0.268331
     25          6           0        2.060470    7.445081   -0.662798
     26          7           0        6.988936    2.338811    0.176807
     27          6           0        6.899369    3.759225    0.154304
     28          6           0        8.334220    4.337578    0.167993
     29          6           0        9.336535    3.047795    0.125516
     30          6           0        8.298039    1.916699    0.171273
     31          6           0        8.586197    5.401614   -0.983081
     32          6           0       10.338817    3.138915    1.309809
     33          6           0        9.904917    2.842268    2.687939
     34          7           0        6.440008   -0.387273    0.123116
     35          6           0        7.769098   -0.512350   -0.043169
     36          6           0        8.203377   -1.920905   -0.123463
     37          6           0        7.005665   -2.585192   -0.066195
     38          6           0        5.987275   -1.694350    0.072034
     39          6           0        9.615037   -2.407641   -0.261370
     40          6           0        6.417579   -3.919876    0.049032
     41          8           0        6.997927   -4.980992   -0.041028
     42          6           0        4.890116   -3.739326    0.243513
     43          6           0        4.165706   -4.520625   -0.788472
     44          8           0        3.929682   -4.165482   -1.957051
     45          8           0        4.003618   -5.784666   -0.322930
     46          6           0        3.646423   -6.804567   -1.368623
     47          6           0       -1.865462   -3.950872   -0.848076
     48          6           0       -3.061632   -3.122585   -0.618228
     49          6           0       -4.245812   -3.140088   -1.255260
     50          6           0       -4.510990   -3.907736   -2.546575
     51          6           0       -5.300551   -2.126783   -0.855300
     52          6           0       -6.061533   -2.444038    0.435478
     53          6           0       -6.654049   -1.156092    1.141059
     54          6           0       -8.099923   -1.374541    1.594881
     55          6           0       -8.152524   -2.235836    2.870304
     56          6           0       -8.680580    0.064816    1.820230
     57          6           0       -9.761901    0.507037    0.820740
     58          6           0      -10.974745   -0.464187    0.829387
     59          6           0      -12.339915    0.175999    1.153490
     60          6           0      -13.021120   -0.587709    2.279979
     61          6           0      -13.314162    0.390606   -0.047909
     62          6           0      -13.764432    1.864766   -0.296578
     63          6           0      -15.159043    1.986239   -1.008486
     64          6           0      -15.805054    3.419226   -0.902625
     65          6           0      -17.296747    3.333262   -0.588982
     66          6           0      -15.482792    4.256785   -2.172234
     67          1           0        0.765918    1.680257   -0.637716
     68          1           0        5.942252    5.568995    0.055162
     69          1           0        9.721819    0.435456    0.013103
     70          1           0        2.003428   -2.783472   -0.596109
     71          1           0        0.352061   -0.743954    0.632543
     72          1           0        0.612599   -1.578116   -2.118417
     73          1           0        0.430397    0.123990   -2.059435
     74          1           0       -0.634276   -0.922215   -1.016167
     75          1           0        1.112290   -2.329317    2.146352
     76          1           0        2.683930   -2.982009    2.096462
     77          1           0        0.462873   -4.423146    2.212065
     78          1           0        1.818907   -5.087764    1.376935
     79          1           0        0.105260    3.954550    0.178182
     80          1           0        0.278480    4.220926   -1.563131
     81          1           0        0.417495    5.485756   -0.481831
     82          1           0        1.647085    7.219316   -1.645356
     83          1           0        2.450590    8.460252   -0.587808
     84          1           0        1.343527    7.377671    0.156299
     85          1           0        8.399007    4.743990    1.177319
     86          1           0        9.889672    3.016756   -0.812869
     87          1           0        9.215463    6.150041   -0.500548
     88          1           0        7.675755    5.929120   -1.266068
     89          1           0        9.050504    4.964953   -1.866651
     90          1           0       10.774183    4.137797    1.318305
     91          1           0       11.214679    2.513822    1.137975
     92          1           0        8.864537    2.523446    2.624707
     93          1           0        9.847716    3.697123    3.363326
     94          1           0       10.533147    2.071739    3.134920
     95          1           0        9.593386   -3.461088   -0.540375
     96          1           0       10.024071   -2.100224    0.700450
     97          1           0       10.105557   -1.853614   -1.062889
     98          1           0        4.606122   -4.139750    1.216480
     99          1           0        4.278426   -6.657678   -2.244565
    100          1           0        2.617161   -6.620624   -1.678498
    101          1           0        3.767850   -7.804613   -0.951211
    102          1           0       -2.217720   -4.978805   -0.930917
    103          1           0       -1.485331   -3.685103   -1.834502
    104          1           0       -3.011873   -2.538599    0.300376
    105          1           0       -4.951812   -3.193729   -3.243095
    106          1           0       -5.213695   -4.708623   -2.316465
    107          1           0       -3.518271   -4.208029   -2.882563
    108          1           0       -6.069736   -2.065378   -1.624893
    109          1           0       -4.899474   -1.112855   -0.838812
    110          1           0       -5.425949   -2.941244    1.167426
    111          1           0       -6.768867   -3.210202    0.117842
    112          1           0       -6.805216   -0.316534    0.461662
    113          1           0       -5.965791   -0.898248    1.945636
    114          1           0       -8.665570   -1.968385    0.877464
    115          1           0       -8.821669   -1.794182    3.608774
    116          1           0       -7.212149   -2.418594    3.390407
    117          1           0       -8.538111   -3.244558    2.725430
    118          1           0       -7.794217    0.681692    1.971461
    119          1           0       -9.234314    0.200701    2.749233
    120          1           0       -9.239021    0.424804   -0.131558
    121          1           0      -10.075415    1.529774    1.033145
    122          1           0      -10.896430   -1.240419    1.590749
    123          1           0      -10.996124   -0.957473   -0.142340
    124          1           0      -12.176435    1.151917    1.611232
    125          1           0      -12.439192   -1.112875    3.036932
    126          1           0      -13.660534   -1.343789    1.823742
    127          1           0      -13.623933    0.138313    2.825008
    128          1           0      -14.165969   -0.286457    0.012229
    129          1           0      -12.796772    0.080352   -0.955094
    130          1           0      -12.993015    2.276101   -0.947517
    131          1           0      -13.731995    2.434476    0.632521
    132          1           0      -15.814050    1.320840   -0.446345
    133          1           0      -15.118389    1.762955   -2.073849
    134          1           0      -15.418388    3.943151   -0.029454
    135          1           0      -17.364590    2.676209    0.277753
    136          1           0      -17.903791    2.939023   -1.404955
    137          1           0      -17.650763    4.310026   -0.258984
    138          1           0      -14.888701    5.112116   -1.848164
    139          1           0      -16.466849    4.606558   -2.483866
    140          1           0      -15.045670    3.687995   -2.993134
 ---------------------------------------------------------------------

 SCF Done:  E(RPBE1PBE) =  -3005.38541841     A.U. after   15 cycles

 Excitation energies and oscillator strengths:

 Excited State   1:      Singlet-A      1.8323 eV  676.66 nm  f=0.3671  <S**2>=0.000
     245 -> 248       -0.16970
     246 -> 247        0.69451
     246 <- 247       -0.11077
 This state for optimization and/or second-order correction.
 Total Energy, E(TD-HF/TD-DFT) =  -3005.31808315
 Copying the excited state density for this state as the 1-particle RhoCI density.

 Excited State   2:      Singlet-A      2.2669 eV  546.92 nm  f=0.0908  <S**2>=0.000
     245 -> 247        0.64093
     246 -> 248        0.28738

 Excited State   3:      Singlet-A      3.1345 eV  395.54 nm  f=0.0022  <S**2>=0.000
     242 -> 247       -0.40093
     242 -> 249       -0.14381
     243 -> 247        0.53019
     246 -> 248       -0.11973

 Excited State   4:      Singlet-A      3.1810 eV  389.76 nm  f=0.0031  <S**2>=0.000
     242 -> 247        0.52413
     242 -> 249        0.11507
     243 -> 247        0.41534
     246 -> 248       -0.12954

 Excited State   5:      Singlet-A      3.2656 eV  379.66 nm  f=0.0483  <S**2>=0.000
     240 -> 247        0.23456
     241 -> 247        0.57187
     241 -> 249       -0.13422
     246 -> 248       -0.23663

 The electronic state is 1-A.
 Alpha  occ. eigenvalues --  -46.90887 -19.26571 -19.25332 -19.21972 -19.19433
 Alpha  occ. eigenvalues --  -19.19227 -19.19009 -14.41708 -14.40621 -14.38706
 Alpha  occ. eigenvalues --  -14.38559 -10.37481 -10.35783 -10.32569 -10.32226
 Alpha  occ. eigenvalues --  -10.29361 -10.28867 -10.28244 -10.28066 -10.28010
 Alpha  occ. eigenvalues --  -10.27652 -10.27459 -10.27030 -10.26998 -10.26078
 Alpha  occ. eigenvalues --  -10.26038 -10.25956 -10.25777 -10.25711 -10.25526
 Alpha  occ. eigenvalues --  -10.25525 -10.25473 -10.25257 -10.25234 -10.25048
 Alpha  occ. eigenvalues --  -10.24993 -10.24353 -10.24329 -10.23739 -10.23545
 Alpha  occ. eigenvalues --  -10.23473 -10.23468 -10.23466 -10.23341 -10.23178
 Alpha  occ. eigenvalues --  -10.23167 -10.23131 -10.23065 -10.23012 -10.23008
 Alpha  occ. eigenvalues --  -10.22987 -10.22952 -10.22913 -10.22893 -10.22766
 Alpha  occ. eigenvalues --  -10.22759 -10.22558 -10.22420 -10.22265 -10.22243
 Alpha  occ. eigenvalues --  -10.22097 -10.22068 -10.21793 -10.21741 -10.21636
 Alpha  occ. eigenvalues --  -10.21533  -3.13282  -1.86088  -1.85644  -1.85542
 Alpha  occ. eigenvalues --   -1.11762  -1.09983  -1.05257  -1.04692  -1.03665
 Alpha  occ. eigenvalues --   -1.00778  -0.99038  -0.97755  -0.96856  -0.95224
 Alpha  occ. eigenvalues --   -0.87491  -0.85220  -0.84655  -0.83999  -0.82875
 Alpha  occ. eigenvalues --   -0.82781  -0.82142  -0.81819  -0.81770  -0.81108
 Alpha  occ. eigenvalues --   -0.80816  -0.79877  -0.78703  -0.77804  -0.77282
 Alpha  occ. eigenvalues --   -0.76752  -0.75919  -0.75370  -0.74937  -0.74350
 Alpha  occ. eigenvalues --   -0.74108  -0.72773  -0.72126  -0.71175  -0.70270
 Alpha  occ. eigenvalues --   -0.69967  -0.69651  -0.69036  -0.68915  -0.68383
 Alpha  occ. eigenvalues --   -0.67683  -0.66882  -0.65885  -0.65149  -0.63489
 Alpha  occ. eigenvalues --   -0.63047  -0.62732  -0.61250  -0.60863  -0.60061
 Alpha  occ. eigenvalues --   -0.59508  -0.59222  -0.59044  -0.58586  -0.58348
 Alpha  occ. eigenvalues --   -0.58043  -0.57119  -0.56372  -0.55972  -0.55327
 Alpha  occ. eigenvalues --   -0.54251  -0.53843  -0.53275  -0.52765  -0.52211
 Alpha  occ. eigenvalues --   -0.51366  -0.51221  -0.50982  -0.50523  -0.49956
 Alpha  occ. eigenvalues --   -0.49578  -0.49230  -0.49075  -0.48640  -0.48530
 Alpha  occ. eigenvalues --   -0.48444  -0.48244  -0.47897  -0.47406  -0.47047
 Alpha  occ. eigenvalues --   -0.46917  -0.46512  -0.46474  -0.46255  -0.46189
 Alpha  occ. eigenvalues --   -0.46095  -0.45847  -0.45758  -0.45480  -0.45309
 Alpha  occ. eigenvalues --   -0.44940  -0.44757  -0.44577  -0.44425  -0.44289
 Alpha  occ. eigenvalues --   -0.44054  -0.43622  -0.43576  -0.43441  -0.43258
 Alpha  occ. eigenvalues --   -0.43208  -0.42913  -0.42792  -0.42738  -0.42202
 Alpha  occ. eigenvalues --   -0.42035  -0.41789  -0.41619  -0.41554  -0.41429
 Alpha  occ. eigenvalues --   -0.41111  -0.40828  -0.40763  -0.40498  -0.40284
 Alpha  occ. eigenvalues --   -0.40179  -0.39988  -0.39966  -0.39728  -0.39484
 Alpha  occ. eigenvalues --   -0.39298  -0.39239  -0.39004  -0.38892  -0.38672
 Alpha  occ. eigenvalues --   -0.38484  -0.38355  -0.38082  -0.38026  -0.37925
 Alpha  occ. eigenvalues --   -0.37690  -0.37357  -0.37197  -0.37139  -0.36997
 Alpha  occ. eigenvalues --   -0.36651  -0.36588  -0.36434  -0.36089  -0.35861
 Alpha  occ. eigenvalues --   -0.35558  -0.35313  -0.35275  -0.35008  -0.34732
 Alpha  occ. eigenvalues --   -0.34327  -0.34153  -0.34052  -0.33864  -0.33562
 Alpha  occ. eigenvalues --   -0.33457  -0.33067  -0.32952  -0.32730  -0.32312
 Alpha  occ. eigenvalues --   -0.32153  -0.31770  -0.31700  -0.31611  -0.31296
 Alpha  occ. eigenvalues --   -0.30912  -0.30843  -0.30148  -0.30037  -0.29970
 Alpha  occ. eigenvalues --   -0.29345  -0.28562  -0.28048  -0.26629  -0.26004
 Alpha  occ. eigenvalues --   -0.25840  -0.25450  -0.25093  -0.24742  -0.20597
 Alpha  occ. eigenvalues --   -0.18089
 Alpha virt. eigenvalues --   -0.10562  -0.04721  -0.03726  -0.02321  -0.00849
 Alpha virt. eigenvalues --   -0.00446   0.00785   0.00876   0.01343   0.03646
 Alpha virt. eigenvalues --    0.04720   0.04984   0.05658   0.05728   0.05881

 Mulliken charges:
               1
     1  Mg   1.018160
     2  C   -0.028298
     3  C   -0.070635
     4  C   -0.073124
     5  C   -0.080517
     6  N   -0.379561
     7  C    0.026569
     8  C   -0.091435
     9  C   -0.128236
    10  C    0.086008
    11  C   -0.036692
    12  C    0.021636
    13  C    0.039295
    14  C    0.186770
    15  O   -0.227324
    16  O   -0.395976
    17  N   -0.435712
    18  C    0.151466
    19  C   -0.152846
    20  C   -0.064874
    21  C    0.141469
    22  C    0.050029
    23  C    0.059983
    24  O   -0.257143
    25  C   -0.029907
    26  N   -0.450868
    27  C    0.084114
    28  C   -0.116493
    29  C   -0.062721
    30  C    0.070866
    31  C    0.006134
    32  C   -0.046866
    33  C   -0.061689
    34  N   -0.543970
    35  C    0.165790
    36  C   -0.249725
    37  C   -0.004262
    38  C    0.169644
    39  C    0.082592
    40  C    0.132264
    41  O   -0.194361
    42  C   -0.104244
    43  C    0.285164
    44  O   -0.280923
    45  O   -0.365203
    46  C    0.124234
    47  C    0.259591
    48  C   -0.153380
    49  C   -0.246262
    50  C    0.030056
    51  C    0.002310
    52  C   -0.028934
    53  C   -0.005040
    54  C   -0.238155
    55  C   -0.006623
    56  C   -0.031192
    57  C   -0.010191
    58  C   -0.000906
    59  C   -0.215204
    60  C   -0.030053
    61  C    0.018139
    62  C   -0.061581
    63  C   -0.015831
    64  C   -0.258016
    65  C   -0.026399
    66  C    0.005268
    67  H    0.003430
    68  H    0.034857
    69  H   -0.008712
    70  H    0.090841
    71  H    0.052934
    72  H    0.057543
    73  H    0.060337
    74  H    0.046378
    75  H    0.035108
    76  H    0.047887
    77  H    0.056856
    78  H    0.064043
    79  H    0.048814
    80  H    0.057406
    81  H    0.009991
    82  H    0.076677
    83  H    0.053247
    84  H    0.059675
    85  H    0.052787
    86  H    0.050093
    87  H    0.040428
    88  H    0.059614
    89  H    0.049358
    90  H    0.037804
    91  H    0.029614
    92  H    0.043702
    93  H    0.038026
    94  H    0.046296
    95  H    0.069913
    96  H    0.063029
    97  H    0.053146
    98  H    0.076699
    99  H    0.065275
   100  H    0.072926
   101  H    0.062057
   102  H    0.053869
   103  H    0.062975
   104  H    0.027731
   105  H    0.052325
   106  H    0.060986
   107  H    0.038358
   108  H    0.014582
   109  H    0.041008
   110  H    0.030415
   111  H    0.023379
   112  H    0.037997
   113  H    0.042651
   114  H    0.040521
   115  H    0.025029
   116  H    0.025816
   117  H    0.026122
   118  H    0.023327
   119  H    0.016812
   120  H    0.019202
   121  H    0.037934
   122  H    0.028788
   123  H    0.025606
   124  H    0.030421
   125  H    0.036713
   126  H    0.030718
   127  H    0.031180
   128  H    0.022482
   129  H    0.019457
   130  H    0.031147
   131  H    0.030964
   132  H    0.023045
   133  H    0.033500
   134  H    0.027782
   135  H    0.033200
   136  H    0.040581
   137  H    0.036125
   138  H    0.041135
   139  H    0.023034
   140  H    0.038824
 Sum of Mulliken charges =  -0.00000

 Dipole moment (field-independent basis, Debye):
    X=             -4.5060    Y=              0.5203    Z=              2.6005  Tot=              5.2285
 Quadrupole moment (field-independent basis, Debye-Ang):
   XX=           -382.8783   YY=           -423.1014   ZZ=           -400.8398
   XY=             13.9672   XZ=             15.7147   YZ=             -2.4804

 Normal termination of Gaussian 16 at Wed May  4 06:49:27 2022.
