 Gaussian 16, Revision A.03,
 Gaussian 16:  ES64L-G16RevA.03 25-Dec-2016

 --------------------------------
 #p wB97XD/Def2SVP td=(nstates=5)
 --------------------------------

 -----------------------------------------------------
 step_1451_chromophore_18 TDDFT with wB97XD functional
 -----------------------------------------------------
 Symbolic Z-matrix:
 Charge =  0 Multiplicity = 1

                         Standard orientation:
 ---------------------------------------------------------------------
 Center     Atomic      Atomic             Coordinates (Angstroms)
 Number     Number       Type             X           Y           Z
 ---------------------------------------------------------------------
      1         12           0        5.288821    1.123266    0.360367
      2          6           0        4.702342   -2.226043    0.162867
      3          6           0        1.815593    1.631269   -0.343055
      4          6           0        5.742237    4.499692   -0.030593
      5          6           0        8.645540    0.595521    0.101211
      6          7           0        3.484875   -0.109477    0.038428
      7          6           0        3.475196   -1.500297    0.166361
      8          6           0        2.053626   -2.071703    0.227968
      9          6           0        1.180645   -0.792583   -0.072584
     10          6           0        2.195773    0.279350   -0.149255
     11          6           0        0.359809   -0.766741   -1.435561
     12          6           0        1.778789   -2.895291    1.495188
     13          6           0        1.137236   -4.238143    1.375657
     14          6           0        0.306666   -4.394208    0.113043
     15          8           0        0.670399   -5.011726   -0.852393
     16          8           0       -0.968784   -3.783693    0.262721
     17          7           0        3.948345    2.833189   -0.044245
     18          6           0        2.596770    2.822526   -0.319176
     19          6           0        2.126021    4.190618   -0.395858
     20          6           0        3.249956    5.044164   -0.303036
     21          6           0        4.390889    4.115249   -0.116144
     22          6           0        0.710763    4.440710   -0.586582
     23          6           0        3.281945    6.594533   -0.319071
     24          8           0        4.324518    7.269728   -0.268331
     25          6           0        2.060470    7.445081   -0.662798
     26          7           0        6.988936    2.338811    0.176807
     27          6           0        6.899369    3.759225    0.154304
     28          6           0        8.334220    4.337578    0.167993
     29          6           0        9.336535    3.047795    0.125516
     30          6           0        8.298039    1.916699    0.171273
     31          6           0        8.586197    5.401614   -0.983081
     32          6           0       10.338817    3.138915    1.309809
     33          6           0        9.904917    2.842268    2.687939
     34          7           0        6.440008   -0.387273    0.123116
     35          6           0        7.769098   -0.512350   -0.043169
     36          6           0        8.203377   -1.920905   -0.123463
     37          6           0        7.005665   -2.585192   -0.066195
     38          6           0        5.987275   -1.694350    0.072034
     39          6           0        9.615037   -2.407641   -0.261370
     40          6           0        6.417579   -3.919876    0.049032
     41          8           0        6.997927   -4.980992   -0.041028
     42          6           0        4.890116   -3.739326    0.243513
     43          6           0        4.165706   -4.520625   -0.788472
     44          8           0        3.929682   -4.165482   -1.957051
     45          8           0        4.003618   -5.784666   -0.322930
     46          6           0        3.646423   -6.804567   -1.368623
     47          6           0       -1.865462   -3.950872   -0.848076
     48          6           0       -3.061632   -3.122585   -0.618228
     49          6           0       -4.245812   -3.140088   -1.255260
     50          6           0       -4.510990   -3.907736   -2.546575
     51          6           0       -5.300551   -2.126783   -0.855300
     52          6           0       -6.061533   -2.444038    0.435478
     53          6           0       -6.654049   -1.156092    1.141059
     54          6           0       -8.099923   -1.374541    1.594881
     55          6           0       -8.152524   -2.235836    2.870304
     56          6           0       -8.680580    0.064816    1.820230
     57          6           0       -9.761901    0.507037    0.820740
     58          6           0      -10.974745   -0.464187    0.829387
     59          6           0      -12.339915    0.175999    1.153490
     60          6           0      -13.021120   -0.587709    2.279979
     61          6           0      -13.314162    0.390606   -0.047909
     62          6           0      -13.764432    1.864766   -0.296578
     63          6           0      -15.159043    1.986239   -1.008486
     64          6           0      -15.805054    3.419226   -0.902625
     65          6           0      -17.296747    3.333262   -0.588982
     66          6           0      -15.482792    4.256785   -2.172234
     67          1           0        0.765918    1.680257   -0.637716
     68          1           0        5.942252    5.568995    0.055162
     69          1           0        9.721819    0.435456    0.013103
     70          1           0        2.003428   -2.783472   -0.596109
     71          1           0        0.352061   -0.743954    0.632543
     72          1           0        0.612599   -1.578116   -2.118417
     73          1           0        0.430397    0.123990   -2.059435
     74          1           0       -0.634276   -0.922215   -1.016167
     75          1           0        1.112290   -2.329317    2.146352
     76          1           0        2.683930   -2.982009    2.096462
     77          1           0        0.462873   -4.423146    2.212065
     78          1           0        1.818907   -5.087764    1.376935
     79          1           0        0.105260    3.954550    0.178182
     80          1           0        0.278480    4.220926   -1.563131
     81          1           0        0.417495    5.485756   -0.481831
     82          1           0        1.647085    7.219316   -1.645356
     83          1           0        2.450590    8.460252   -0.587808
     84          1           0        1.343527    7.377671    0.156299
     85          1           0        8.399007    4.743990    1.177319
     86          1           0        9.889672    3.016756   -0.812869
     87          1           0        9.215463    6.150041   -0.500548
     88          1           0        7.675755    5.929120   -1.266068
     89          1           0        9.050504    4.964953   -1.866651
     90          1           0       10.774183    4.137797    1.318305
     91          1           0       11.214679    2.513822    1.137975
     92          1           0        8.864537    2.523446    2.624707
     93          1           0        9.847716    3.697123    3.363326
     94          1           0       10.533147    2.071739    3.134920
     95          1           0        9.593386   -3.461088   -0.540375
     96          1           0       10.024071   -2.100224    0.700450
     97          1           0       10.105557   -1.853614   -1.062889
     98          1           0        4.606122   -4.139750    1.216480
     99          1           0        4.278426   -6.657678   -2.244565
    100          1           0        2.617161   -6.620624   -1.678498
    101          1           0        3.767850   -7.804613   -0.951211
    102          1           0       -2.217720   -4.978805   -0.930917
    103          1           0       -1.485331   -3.685103   -1.834502
    104          1           0       -3.011873   -2.538599    0.300376
    105          1           0       -4.951812   -3.193729   -3.243095
    106          1           0       -5.213695   -4.708623   -2.316465
    107          1           0       -3.518271   -4.208029   -2.882563
    108          1           0       -6.069736   -2.065378   -1.624893
    109          1           0       -4.899474   -1.112855   -0.838812
    110          1           0       -5.425949   -2.941244    1.167426
    111          1           0       -6.768867   -3.210202    0.117842
    112          1           0       -6.805216   -0.316534    0.461662
    113          1           0       -5.965791   -0.898248    1.945636
    114          1           0       -8.665570   -1.968385    0.877464
    115          1           0       -8.821669   -1.794182    3.608774
    116          1           0       -7.212149   -2.418594    3.390407
    117          1           0       -8.538111   -3.244558    2.725430
    118          1           0       -7.794217    0.681692    1.971461
    119          1           0       -9.234314    0.200701    2.749233
    120          1           0       -9.239021    0.424804   -0.131558
    121          1           0      -10.075415    1.529774    1.033145
    122          1           0      -10.896430   -1.240419    1.590749
    123          1           0      -10.996124   -0.957473   -0.142340
    124          1           0      -12.176435    1.151917    1.611232
    125          1           0      -12.439192   -1.112875    3.036932
    126          1           0      -13.660534   -1.343789    1.823742
    127          1           0      -13.623933    0.138313    2.825008
    128          1           0      -14.165969   -0.286457    0.012229
    129          1           0      -12.796772    0.080352   -0.955094
    130          1           0      -12.993015    2.276101   -0.947517
    131          1           0      -13.731995    2.434476    0.632521
    132          1           0      -15.814050    1.320840   -0.446345
    133          1           0      -15.118389    1.762955   -2.073849
    134          1           0      -15.418388    3.943151   -0.029454
    135          1           0      -17.364590    2.676209    0.277753
    136          1           0      -17.903791    2.939023   -1.404955
    137          1           0      -17.650763    4.310026   -0.258984
    138          1           0      -14.888701    5.112116   -1.848164
    139          1           0      -16.466849    4.606558   -2.483866
    140          1           0      -15.045670    3.687995   -2.993134
 ---------------------------------------------------------------------

 SCF Done:  E(RwB97XD) =  -3007.89618898     A.U. after   18 cycles

 Excitation energies and oscillator strengths:

 Excited State   1:      Singlet-A      1.6214 eV  764.66 nm  f=0.3732  <S**2>=0.000
     245 -> 248       -0.18352
     246 -> 247        0.68386
     245 <- 248       -0.11791
 This state for optimization and/or second-order correction.
 Total Energy, E(TD-HF/TD-DFT) =  -3007.83660278
 Copying the excited state density for this state as the 1-particle RhoCI density.

 Excited State   2:      Singlet-A      2.2092 eV  561.22 nm  f=0.0923  <S**2>=0.000
     245 -> 247        0.62737
     246 -> 248        0.31314

 Excited State   3:      Singlet-A      3.4570 eV  358.64 nm  f=0.2337  <S**2>=0.000
     243 -> 247        0.51538
     245 -> 247        0.16648
     246 -> 248       -0.42368

 Excited State   4:      Singlet-A      3.5999 eV  344.41 nm  f=0.5713  <S**2>=0.000
     242 -> 247       -0.13383
     243 -> 247        0.44550
     245 -> 247       -0.25661
     246 -> 248        0.44963

 Excited State   5:      Singlet-A      3.6474 eV  339.92 nm  f=0.0010  <S**2>=0.000
     241 -> 247        0.47362
     241 -> 248        0.13407
     241 -> 249        0.38847
     241 -> 250       -0.24152

 The electronic state is 1-A.
 Alpha  occ. eigenvalues --  -46.93796 -19.31119 -19.29894 -19.26641 -19.24234
 Alpha  occ. eigenvalues --  -19.23943 -19.23893 -14.46926 -14.45529 -14.43696
 Alpha  occ. eigenvalues --  -14.43467 -10.44239 -10.42643 -10.39481 -10.39051
 Alpha  occ. eigenvalues --  -10.35855 -10.35035 -10.34587 -10.34583 -10.34371
 Alpha  occ. eigenvalues --  -10.33962 -10.33842 -10.33425 -10.33239 -10.32391
 Alpha  occ. eigenvalues --  -10.32331 -10.32283 -10.32146 -10.31963 -10.31915
 Alpha  occ. eigenvalues --  -10.31879 -10.31713 -10.31667 -10.31604 -10.31477
 Alpha  occ. eigenvalues --  -10.31298 -10.30910 -10.30684 -10.30182 -10.30116
 Alpha  occ. eigenvalues --  -10.29925 -10.29810 -10.29761 -10.29724 -10.29611
 Alpha  occ. eigenvalues --  -10.29459 -10.29405 -10.29386 -10.29385 -10.29381
 Alpha  occ. eigenvalues --  -10.29370 -10.29310 -10.29281 -10.29254 -10.29150
 Alpha  occ. eigenvalues --  -10.29139 -10.28923 -10.28789 -10.28640 -10.28597
 Alpha  occ. eigenvalues --  -10.28438 -10.28373 -10.28226 -10.28163 -10.28069
 Alpha  occ. eigenvalues --  -10.27976  -3.20042  -1.93599  -1.93155  -1.93052
 Alpha  occ. eigenvalues --   -1.19125  -1.17395  -1.12715  -1.12017  -1.11236
 Alpha  occ. eigenvalues --   -1.08168  -1.06333  -1.05180  -1.04300  -1.02578
 Alpha  occ. eigenvalues --   -0.95088  -0.92875  -0.92309  -0.91666  -0.90545
 Alpha  occ. eigenvalues --   -0.90420  -0.89723  -0.89457  -0.89414  -0.88747
 Alpha  occ. eigenvalues --   -0.88385  -0.87518  -0.86366  -0.85410  -0.84922
 Alpha  occ. eigenvalues --   -0.84383  -0.83545  -0.83045  -0.82680  -0.82014
 Alpha  occ. eigenvalues --   -0.81768  -0.80382  -0.79860  -0.78763  -0.77873
 Alpha  occ. eigenvalues --   -0.77653  -0.77351  -0.76681  -0.76520  -0.76048
 Alpha  occ. eigenvalues --   -0.75288  -0.74412  -0.73470  -0.72713  -0.70999
 Alpha  occ. eigenvalues --   -0.70637  -0.70339  -0.68835  -0.68508  -0.67583
 Alpha  occ. eigenvalues --   -0.67152  -0.66739  -0.66511  -0.66050  -0.66046
 Alpha  occ. eigenvalues --   -0.65440  -0.64783  -0.64009  -0.63382  -0.62797
 Alpha  occ. eigenvalues --   -0.61765  -0.61272  -0.60691  -0.60108  -0.59754
 Alpha  occ. eigenvalues --   -0.58811  -0.58635  -0.58412  -0.57896  -0.57353
 Alpha  occ. eigenvalues --   -0.56980  -0.56654  -0.56488  -0.56107  -0.55966
 Alpha  occ. eigenvalues --   -0.55839  -0.55660  -0.55279  -0.54813  -0.54400
 Alpha  occ. eigenvalues --   -0.54258  -0.53999  -0.53884  -0.53730  -0.53571
 Alpha  occ. eigenvalues --   -0.53450  -0.53192  -0.53098  -0.52798  -0.52566
 Alpha  occ. eigenvalues --   -0.52272  -0.52148  -0.52041  -0.51783  -0.51610
 Alpha  occ. eigenvalues --   -0.51361  -0.50909  -0.50863  -0.50762  -0.50560
 Alpha  occ. eigenvalues --   -0.50487  -0.50218  -0.50110  -0.50028  -0.49443
 Alpha  occ. eigenvalues --   -0.49344  -0.49181  -0.48875  -0.48782  -0.48683
 Alpha  occ. eigenvalues --   -0.48391  -0.48052  -0.47980  -0.47650  -0.47518
 Alpha  occ. eigenvalues --   -0.47362  -0.47181  -0.47151  -0.46845  -0.46701
 Alpha  occ. eigenvalues --   -0.46492  -0.46432  -0.46113  -0.46031  -0.45823
 Alpha  occ. eigenvalues --   -0.45537  -0.45519  -0.45244  -0.45156  -0.44987
 Alpha  occ. eigenvalues --   -0.44750  -0.44419  -0.44330  -0.44306  -0.44056
 Alpha  occ. eigenvalues --   -0.43838  -0.43750  -0.43617  -0.43216  -0.42876
 Alpha  occ. eigenvalues --   -0.42549  -0.42392  -0.42363  -0.42015  -0.41827
 Alpha  occ. eigenvalues --   -0.41297  -0.41200  -0.40999  -0.40894  -0.40657
 Alpha  occ. eigenvalues --   -0.40526  -0.40128  -0.39889  -0.39808  -0.39329
 Alpha  occ. eigenvalues --   -0.39030  -0.38801  -0.38716  -0.38646  -0.38224
 Alpha  occ. eigenvalues --   -0.37908  -0.37874  -0.37099  -0.37034  -0.36877
 Alpha  occ. eigenvalues --   -0.36110  -0.35541  -0.34871  -0.33233  -0.32936
 Alpha  occ. eigenvalues --   -0.32697  -0.32440  -0.31713  -0.31494  -0.25618
 Alpha  occ. eigenvalues --   -0.22251
 Alpha virt. eigenvalues --   -0.06401   0.00713   0.02571   0.04187   0.05472
 Alpha virt. eigenvalues --    0.05993   0.07495   0.07626   0.08060   0.10345
 Alpha virt. eigenvalues --    0.11292   0.11646   0.12437   0.12468   0.12654

 Mulliken charges:
               1
     1  Mg   1.004170
     2  C   -0.027402
     3  C   -0.086067
     4  C   -0.092985
     5  C   -0.101238
     6  N   -0.344022
     7  C   -0.004986
     8  C   -0.059425
     9  C   -0.107321
    10  C    0.077305
    11  C   -0.025076
    12  C    0.026453
    13  C    0.057432
    14  C    0.175044
    15  O   -0.222944
    16  O   -0.393080
    17  N   -0.402251
    18  C    0.141341
    19  C   -0.136658
    20  C   -0.062725
    21  C    0.138941
    22  C    0.059491
    23  C    0.056090
    24  O   -0.251491
    25  C   -0.018709
    26  N   -0.422979
    27  C    0.073217
    28  C   -0.091258
    29  C   -0.039146
    30  C    0.059506
    31  C    0.019578
    32  C   -0.033753
    33  C   -0.044194
    34  N   -0.505217
    35  C    0.158410
    36  C   -0.246252
    37  C    0.000144
    38  C    0.157727
    39  C    0.094366
    40  C    0.107316
    41  O   -0.184177
    42  C   -0.065648
    43  C    0.257884
    44  O   -0.273094
    45  O   -0.362660
    46  C    0.140946
    47  C    0.267548
    48  C   -0.161719
    49  C   -0.231830
    50  C    0.047905
    51  C    0.020368
    52  C   -0.015333
    53  C    0.015274
    54  C   -0.213172
    55  C    0.001162
    56  C   -0.009067
    57  C    0.009463
    58  C    0.014308
    59  C   -0.185026
    60  C   -0.015291
    61  C    0.029536
    62  C   -0.043018
    63  C    0.001346
    64  C   -0.231117
    65  C   -0.012214
    66  C    0.015498
    67  H   -0.003423
    68  H    0.026827
    69  H   -0.014835
    70  H    0.067856
    71  H    0.044219
    72  H    0.053229
    73  H    0.054524
    74  H    0.037516
    75  H    0.028531
    76  H    0.039481
    77  H    0.052560
    78  H    0.057289
    79  H    0.044806
    80  H    0.054669
    81  H    0.003290
    82  H    0.073101
    83  H    0.051832
    84  H    0.054760
    85  H    0.040857
    86  H    0.041881
    87  H    0.034361
    88  H    0.053350
    89  H    0.044312
    90  H    0.028635
    91  H    0.022609
    92  H    0.031742
    93  H    0.032927
    94  H    0.042072
    95  H    0.066752
    96  H    0.056912
    97  H    0.047175
    98  H    0.069000
    99  H    0.061116
   100  H    0.067788
   101  H    0.059365
   102  H    0.048535
   103  H    0.057541
   104  H    0.023703
   105  H    0.046390
   106  H    0.055579
   107  H    0.031702
   108  H    0.006353
   109  H    0.033113
   110  H    0.021066
   111  H    0.015095
   112  H    0.024168
   113  H    0.035056
   114  H    0.027891
   115  H    0.018472
   116  H    0.020141
   117  H    0.021091
   118  H    0.014735
   119  H    0.004673
   120  H    0.009447
   121  H    0.030751
   122  H    0.013381
   123  H    0.017910
   124  H    0.015023
   125  H    0.031123
   126  H    0.023156
   127  H    0.024964
   128  H    0.013037
   129  H    0.010586
   130  H    0.021972
   131  H    0.021080
   132  H    0.011838
   133  H    0.024856
   134  H    0.016576
   135  H    0.025787
   136  H    0.034601
   137  H    0.030489
   138  H    0.036137
   139  H    0.016405
   140  H    0.033273
 Sum of Mulliken charges =  -0.00000

 Dipole moment (field-independent basis, Debye):
    X=             -4.8158    Y=              0.7141    Z=              2.6137  Tot=              5.5257
 Quadrupole moment (field-independent basis, Debye-Ang):
   XX=           -385.9036   YY=           -420.9202   ZZ=           -400.4596
   XY=             13.6192   XZ=             15.8960   YZ=             -2.7867

 Normal termination of Gaussian 16 at Wed May  4 07:20:54 2022.
