 Gaussian 16, Revision A.03,
 Gaussian 16:  ES64L-G16RevA.03 25-Dec-2016

 --------------------
 #p ZINDO=(nstates=5)
 --------------------

 ------------------------------
 step_1451_chromophore_18 ZINDO
 ------------------------------
 Symbolic Z-matrix:
 Charge =  0 Multiplicity = 1

                         Standard orientation:
 ---------------------------------------------------------------------
 Center     Atomic      Atomic             Coordinates (Angstroms)
 Number     Number       Type             X           Y           Z
 ---------------------------------------------------------------------
      1         12           0        5.288821    1.123266    0.360367
      2          6           0        4.702342   -2.226043    0.162867
      3          6           0        1.815593    1.631269   -0.343055
      4          6           0        5.742237    4.499692   -0.030593
      5          6           0        8.645540    0.595521    0.101211
      6          7           0        3.484875   -0.109477    0.038428
      7          6           0        3.475196   -1.500297    0.166361
      8          6           0        2.053626   -2.071703    0.227968
      9          6           0        1.180645   -0.792583   -0.072584
     10          6           0        2.195773    0.279350   -0.149255
     11          6           0        0.359809   -0.766741   -1.435561
     12          6           0        1.778789   -2.895291    1.495188
     13          6           0        1.137236   -4.238143    1.375657
     14          6           0        0.306666   -4.394208    0.113043
     15          8           0        0.670399   -5.011726   -0.852393
     16          8           0       -0.968784   -3.783693    0.262721
     17          7           0        3.948345    2.833189   -0.044245
     18          6           0        2.596770    2.822526   -0.319176
     19          6           0        2.126021    4.190618   -0.395858
     20          6           0        3.249956    5.044164   -0.303036
     21          6           0        4.390889    4.115249   -0.116144
     22          6           0        0.710763    4.440710   -0.586582
     23          6           0        3.281945    6.594533   -0.319071
     24          8           0        4.324518    7.269728   -0.268331
     25          6           0        2.060470    7.445081   -0.662798
     26          7           0        6.988936    2.338811    0.176807
     27          6           0        6.899369    3.759225    0.154304
     28          6           0        8.334220    4.337578    0.167993
     29          6           0        9.336535    3.047795    0.125516
     30          6           0        8.298039    1.916699    0.171273
     31          6           0        8.586197    5.401614   -0.983081
     32          6           0       10.338817    3.138915    1.309809
     33          6           0        9.904917    2.842268    2.687939
     34          7           0        6.440008   -0.387273    0.123116
     35          6           0        7.769098   -0.512350   -0.043169
     36          6           0        8.203377   -1.920905   -0.123463
     37          6           0        7.005665   -2.585192   -0.066195
     38          6           0        5.987275   -1.694350    0.072034
     39          6           0        9.615037   -2.407641   -0.261370
     40          6           0        6.417579   -3.919876    0.049032
     41          8           0        6.997927   -4.980992   -0.041028
     42          6           0        4.890116   -3.739326    0.243513
     43          6           0        4.165706   -4.520625   -0.788472
     44          8           0        3.929682   -4.165482   -1.957051
     45          8           0        4.003618   -5.784666   -0.322930
     46          6           0        3.646423   -6.804567   -1.368623
     47          6           0       -1.865462   -3.950872   -0.848076
     48          6           0       -3.061632   -3.122585   -0.618228
     49          6           0       -4.245812   -3.140088   -1.255260
     50          6           0       -4.510990   -3.907736   -2.546575
     51          6           0       -5.300551   -2.126783   -0.855300
     52          6           0       -6.061533   -2.444038    0.435478
     53          6           0       -6.654049   -1.156092    1.141059
     54          6           0       -8.099923   -1.374541    1.594881
     55          6           0       -8.152524   -2.235836    2.870304
     56          6           0       -8.680580    0.064816    1.820230
     57          6           0       -9.761901    0.507037    0.820740
     58          6           0      -10.974745   -0.464187    0.829387
     59          6           0      -12.339915    0.175999    1.153490
     60          6           0      -13.021120   -0.587709    2.279979
     61          6           0      -13.314162    0.390606   -0.047909
     62          6           0      -13.764432    1.864766   -0.296578
     63          6           0      -15.159043    1.986239   -1.008486
     64          6           0      -15.805054    3.419226   -0.902625
     65          6           0      -17.296747    3.333262   -0.588982
     66          6           0      -15.482792    4.256785   -2.172234
     67          1           0        0.765918    1.680257   -0.637716
     68          1           0        5.942252    5.568995    0.055162
     69          1           0        9.721819    0.435456    0.013103
     70          1           0        2.003428   -2.783472   -0.596109
     71          1           0        0.352061   -0.743954    0.632543
     72          1           0        0.612599   -1.578116   -2.118417
     73          1           0        0.430397    0.123990   -2.059435
     74          1           0       -0.634276   -0.922215   -1.016167
     75          1           0        1.112290   -2.329317    2.146352
     76          1           0        2.683930   -2.982009    2.096462
     77          1           0        0.462873   -4.423146    2.212065
     78          1           0        1.818907   -5.087764    1.376935
     79          1           0        0.105260    3.954550    0.178182
     80          1           0        0.278480    4.220926   -1.563131
     81          1           0        0.417495    5.485756   -0.481831
     82          1           0        1.647085    7.219316   -1.645356
     83          1           0        2.450590    8.460252   -0.587808
     84          1           0        1.343527    7.377671    0.156299
     85          1           0        8.399007    4.743990    1.177319
     86          1           0        9.889672    3.016756   -0.812869
     87          1           0        9.215463    6.150041   -0.500548
     88          1           0        7.675755    5.929120   -1.266068
     89          1           0        9.050504    4.964953   -1.866651
     90          1           0       10.774183    4.137797    1.318305
     91          1           0       11.214679    2.513822    1.137975
     92          1           0        8.864537    2.523446    2.624707
     93          1           0        9.847716    3.697123    3.363326
     94          1           0       10.533147    2.071739    3.134920
     95          1           0        9.593386   -3.461088   -0.540375
     96          1           0       10.024071   -2.100224    0.700450
     97          1           0       10.105557   -1.853614   -1.062889
     98          1           0        4.606122   -4.139750    1.216480
     99          1           0        4.278426   -6.657678   -2.244565
    100          1           0        2.617161   -6.620624   -1.678498
    101          1           0        3.767850   -7.804613   -0.951211
    102          1           0       -2.217720   -4.978805   -0.930917
    103          1           0       -1.485331   -3.685103   -1.834502
    104          1           0       -3.011873   -2.538599    0.300376
    105          1           0       -4.951812   -3.193729   -3.243095
    106          1           0       -5.213695   -4.708623   -2.316465
    107          1           0       -3.518271   -4.208029   -2.882563
    108          1           0       -6.069736   -2.065378   -1.624893
    109          1           0       -4.899474   -1.112855   -0.838812
    110          1           0       -5.425949   -2.941244    1.167426
    111          1           0       -6.768867   -3.210202    0.117842
    112          1           0       -6.805216   -0.316534    0.461662
    113          1           0       -5.965791   -0.898248    1.945636
    114          1           0       -8.665570   -1.968385    0.877464
    115          1           0       -8.821669   -1.794182    3.608774
    116          1           0       -7.212149   -2.418594    3.390407
    117          1           0       -8.538111   -3.244558    2.725430
    118          1           0       -7.794217    0.681692    1.971461
    119          1           0       -9.234314    0.200701    2.749233
    120          1           0       -9.239021    0.424804   -0.131558
    121          1           0      -10.075415    1.529774    1.033145
    122          1           0      -10.896430   -1.240419    1.590749
    123          1           0      -10.996124   -0.957473   -0.142340
    124          1           0      -12.176435    1.151917    1.611232
    125          1           0      -12.439192   -1.112875    3.036932
    126          1           0      -13.660534   -1.343789    1.823742
    127          1           0      -13.623933    0.138313    2.825008
    128          1           0      -14.165969   -0.286457    0.012229
    129          1           0      -12.796772    0.080352   -0.955094
    130          1           0      -12.993015    2.276101   -0.947517
    131          1           0      -13.731995    2.434476    0.632521
    132          1           0      -15.814050    1.320840   -0.446345
    133          1           0      -15.118389    1.762955   -2.073849
    134          1           0      -15.418388    3.943151   -0.029454
    135          1           0      -17.364590    2.676209    0.277753
    136          1           0      -17.903791    2.939023   -1.404955
    137          1           0      -17.650763    4.310026   -0.258984
    138          1           0      -14.888701    5.112116   -1.848164
    139          1           0      -16.466849    4.606558   -2.483866
    140          1           0      -15.045670    3.687995   -2.993134
 ---------------------------------------------------------------------

 SCF Done:  E(RZINDO/S) =  -474.403985756     A.U. after   19 cycles

 Excitation energies and oscillator strengths:

 Excited State   1:      Singlet-A      1.2187 eV 1017.36 nm  f=0.5951  <S**2>=0.000
     175 ->178        -0.18507
     176 ->177         0.66419
 This state for optimization and/or second-order correction.
 Total Energy, E(CIS/TDA) =  -474.359200022
 Copying the excited state density for this state as the 1-particle RhoCI density.

 Excited State   2:      Singlet-A      1.9446 eV  637.57 nm  f=0.0182  <S**2>=0.000
     175 ->177         0.51991
     176 ->178         0.45516

 Excited State   3:      Singlet-A      2.8761 eV  431.09 nm  f=0.0024  <S**2>=0.000
     168 ->177         0.26054
     168 ->179        -0.43148
     168 ->180         0.29797
     168 ->184         0.10063
     168 ->186        -0.21676
     168 ->187         0.10089
     169 ->179         0.10630

 Excited State   4:      Singlet-A      2.9431 eV  421.27 nm  f=0.3495  <S**2>=0.000
     175 ->177        -0.23223
     176 ->178         0.30377
     176 ->179         0.52475
     176 ->180         0.12287
     176 ->183         0.13713

 Excited State   5:      Singlet-A      3.0159 eV  411.10 nm  f=0.0006  <S**2>=0.000
     169 ->177         0.22777
     169 ->178         0.16188
     169 ->179         0.26443
     169 ->180         0.27232
     169 ->184         0.10734
     169 ->186         0.15322
     169 ->187         0.13413
     170 ->177         0.16575
     170 ->178         0.11152
     170 ->179         0.18872
     170 ->180         0.17760
     170 ->186         0.10338
     176 ->179         0.11657

 The electronic state is 1-A.
 Alpha  occ. eigenvalues --   -1.86498  -1.79724  -1.77923  -1.72940  -1.72038
 Alpha  occ. eigenvalues --   -1.69261  -1.65651  -1.60262  -1.58692  -1.57908
 Alpha  occ. eigenvalues --   -1.56282  -1.53450  -1.49803  -1.48831  -1.46958
 Alpha  occ. eigenvalues --   -1.45325  -1.42489  -1.40293  -1.39678  -1.39141
 Alpha  occ. eigenvalues --   -1.36728  -1.34407  -1.32927  -1.31633  -1.28534
 Alpha  occ. eigenvalues --   -1.27763  -1.24738  -1.21305  -1.20183  -1.18554
 Alpha  occ. eigenvalues --   -1.17695  -1.15765  -1.15602  -1.15533  -1.12661
 Alpha  occ. eigenvalues --   -1.12522  -1.10650  -1.10241  -1.03659  -1.03548
 Alpha  occ. eigenvalues --   -1.02162  -1.00993  -0.99612  -0.97626  -0.96810
 Alpha  occ. eigenvalues --   -0.95885  -0.94490  -0.93831  -0.93406  -0.92618
 Alpha  occ. eigenvalues --   -0.90807  -0.89778  -0.88847  -0.88278  -0.87060
 Alpha  occ. eigenvalues --   -0.86365  -0.84947  -0.83321  -0.82501  -0.80345
 Alpha  occ. eigenvalues --   -0.78795  -0.77744  -0.76613  -0.76335  -0.75375
 Alpha  occ. eigenvalues --   -0.75133  -0.75002  -0.74404  -0.74033  -0.73043
 Alpha  occ. eigenvalues --   -0.72449  -0.71912  -0.71286  -0.70947  -0.70350
 Alpha  occ. eigenvalues --   -0.69785  -0.69239  -0.68807  -0.68126  -0.67713
 Alpha  occ. eigenvalues --   -0.67301  -0.67239  -0.66516  -0.65707  -0.65472
 Alpha  occ. eigenvalues --   -0.65340  -0.64522  -0.64189  -0.63933  -0.63598
 Alpha  occ. eigenvalues --   -0.63118  -0.62880  -0.62522  -0.62424  -0.61933
 Alpha  occ. eigenvalues --   -0.61763  -0.61438  -0.60724  -0.60393  -0.60064
 Alpha  occ. eigenvalues --   -0.59855  -0.59550  -0.59303  -0.58597  -0.58338
 Alpha  occ. eigenvalues --   -0.57937  -0.57796  -0.57404  -0.57322  -0.56909
 Alpha  occ. eigenvalues --   -0.56409  -0.55867  -0.55224  -0.54628  -0.54326
 Alpha  occ. eigenvalues --   -0.53831  -0.53598  -0.53349  -0.53231  -0.52553
 Alpha  occ. eigenvalues --   -0.52458  -0.51925  -0.51591  -0.51289  -0.50830
 Alpha  occ. eigenvalues --   -0.50783  -0.50108  -0.49988  -0.49760  -0.49736
 Alpha  occ. eigenvalues --   -0.49390  -0.49221  -0.49186  -0.48920  -0.48540
 Alpha  occ. eigenvalues --   -0.48488  -0.48012  -0.47843  -0.47794  -0.47560
 Alpha  occ. eigenvalues --   -0.47274  -0.47164  -0.47051  -0.46546  -0.46475
 Alpha  occ. eigenvalues --   -0.46142  -0.45938  -0.45722  -0.45351  -0.44979
 Alpha  occ. eigenvalues --   -0.44901  -0.44885  -0.44791  -0.44482  -0.44184
 Alpha  occ. eigenvalues --   -0.43919  -0.43449  -0.43419  -0.43193  -0.42733
 Alpha  occ. eigenvalues --   -0.42377  -0.42114  -0.40899  -0.38929  -0.38508
 Alpha  occ. eigenvalues --   -0.37859  -0.37232  -0.35255  -0.34965  -0.34544
 Alpha  occ. eigenvalues --   -0.33312  -0.32582  -0.32107  -0.31808  -0.26593
 Alpha  occ. eigenvalues --   -0.21194
 Alpha virt. eigenvalues --   -0.08092  -0.01755  -0.00315   0.01040   0.02005
 Alpha virt. eigenvalues --    0.02072   0.02895   0.03185   0.04785   0.05016
 Alpha virt. eigenvalues --    0.06402   0.07250   0.07553   0.08286   0.08700

 Mulliken charges:
               1
     1  Mg   0.427497
     2  C   -0.037098
     3  C   -0.078479
     4  C   -0.070593
     5  C   -0.084089
     6  N   -0.272139
     7  C    0.093571
     8  C    0.005789
     9  C    0.006810
    10  C    0.147415
    11  C   -0.058729
    12  C   -0.009533
    13  C    0.012494
    14  C    0.465707
    15  O   -0.497908
    16  O   -0.283871
    17  N   -0.327500
    18  C    0.097018
    19  C    0.032172
    20  C   -0.053928
    21  C    0.158502
    22  C   -0.039388
    23  C    0.319695
    24  O   -0.522290
    25  C   -0.030228
    26  N   -0.301668
    27  C    0.134386
    28  C   -0.005918
    29  C    0.002322
    30  C    0.131831
    31  C   -0.052628
    32  C   -0.019379
    33  C   -0.050231
    34  N   -0.311193
    35  C    0.107717
    36  C    0.012542
    37  C   -0.034886
    38  C    0.093256
    39  C   -0.037614
    40  C    0.337782
    41  O   -0.512143
    42  C    0.059952
    43  C    0.489177
    44  O   -0.530041
    45  O   -0.267462
    46  C    0.073510
    47  C    0.112556
    48  C   -0.083689
    49  C   -0.025684
    50  C   -0.047071
    51  C   -0.021051
    52  C   -0.037958
    53  C   -0.033484
    54  C   -0.007697
    55  C   -0.061720
    56  C   -0.041480
    57  C   -0.031061
    58  C   -0.032867
    59  C   -0.010436
    60  C   -0.057482
    61  C   -0.036639
    62  C   -0.037059
    63  C   -0.039312
    64  C   -0.019693
    65  C   -0.053855
    66  C   -0.061977
    67  H    0.023189
    68  H    0.041396
    69  H    0.018539
    70  H    0.050057
    71  H    0.039415
    72  H    0.028672
    73  H    0.032633
    74  H    0.018263
    75  H    0.016430
    76  H    0.022014
    77  H    0.031293
    78  H    0.040513
    79  H    0.026791
    80  H    0.034978
    81  H    0.010204
    82  H    0.045400
    83  H    0.037157
    84  H    0.032038
    85  H    0.037691
    86  H    0.035625
    87  H    0.017138
    88  H    0.031958
    89  H    0.029598
    90  H    0.011513
    91  H    0.010492
    92  H    0.018568
    93  H    0.017549
    94  H    0.021401
    95  H    0.042391
    96  H    0.040585
    97  H    0.027602
    98  H    0.055098
    99  H    0.050014
   100  H    0.049960
   101  H    0.036088
   102  H    0.046214
   103  H    0.055172
   104  H    0.024333
   105  H    0.027666
   106  H    0.037844
   107  H    0.028317
   108  H    0.008740
   109  H    0.021002
   110  H    0.016889
   111  H    0.021155
   112  H    0.019145
   113  H    0.029119
   114  H    0.029079
   115  H    0.012738
   116  H    0.016710
   117  H    0.011565
   118  H    0.019099
   119  H    0.007782
   120  H    0.014671
   121  H    0.025055
   122  H    0.023460
   123  H    0.017619
   124  H    0.016117
   125  H    0.020171
   126  H    0.014137
   127  H    0.009998
   128  H    0.021735
   129  H    0.011391
   130  H    0.014348
   131  H    0.024680
   132  H    0.018403
   133  H    0.029168
   134  H    0.017287
   135  H    0.011283
   136  H    0.023417
   137  H    0.015092
   138  H    0.021266
   139  H    0.015464
   140  H    0.027863
 Sum of Mulliken charges =  -0.00000

 Dipole moment (field-independent basis, Debye):
    X=             -6.9818    Y=              2.0158    Z=              4.4034  Tot=              8.4970
 N-N= 4.293826879677D+03 E-N= 0.000000000000D+00  KE=-9.262502316354D+03
 Leave Link  601 at Wed May  4 07:33:39 2022, MaxMem=  6710886400 cpu:               1.2 elap:               0.1
 (Enter /sw/apps/gaussian-16.0/g16/l9999.exe)
 1\1\GINC-BP1-COMPUTE128\SP\RZINDO CIS\STO-3G\C55H74Mg1N4O6\OF15641\04-
 May-2022\0\\#p ZINDO=(nstates=5)\\step_1451_chromophore_18 ZINDO\\0,1\
 Mg,0,34.451,49.024,25.198\C,0,34.612,47.278,28.118\C,0,32.511,51.48,26
 .936\C,0,33.696,50.661,22.281\C,0,35.465,46.28,23.45\N,0,33.728,49.387
 ,27.253\C,0,34.07,48.578,28.339\C,0,33.726,49.229,29.684\C,0,32.936,50
 .515,29.225\C,0,33.043,50.45,27.752\C,0,31.388,50.594,29.585\C,0,34.93
 5,49.377,30.62\C,0,34.821,48.943,32.044\C,0,33.392,48.953,32.56\O,0,32

 Normal termination of Gaussian 16 at Wed May  4 07:33:39 2022.
