 Gaussian 16, Revision A.03,
 Gaussian 16:  ES64L-G16RevA.03 25-Dec-2016

 ------------------------------
 #p blyp/Def2SVP td=(nstates=5)
 ------------------------------

 --------------------------------------------------
 step_601_chromophore_24 TDDFT with blyp functional
 --------------------------------------------------
 Symbolic Z-matrix:
 Charge =  0 Multiplicity = 1

                         Standard orientation:
 ---------------------------------------------------------------------
 Center     Atomic      Atomic             Coordinates (Angstroms)
 Number     Number       Type             X           Y           Z
 ---------------------------------------------------------------------
      1         12           0        4.838985    1.089380    0.157264
      2          6           0        4.089068   -2.347454    0.080947
      3          6           0        1.335808    1.727799   -0.111170
      4          6           0        5.510773    4.190868   -0.199827
      5          6           0        8.232166    0.208982    0.103393
      6          7           0        2.906810   -0.160287    0.110599
      7          6           0        2.922495   -1.569802    0.087796
      8          6           0        1.504997   -2.086090    0.125602
      9          6           0        0.573142   -0.795498   -0.157815
     10          6           0        1.688870    0.344495   -0.093821
     11          6           0       -0.142438   -0.763189   -1.562151
     12          6           0        1.255204   -2.713842    1.503105
     13          6           0        0.017116   -3.632094    1.750310
     14          6           0       -0.817427   -4.103442    0.546369
     15          8           0       -0.631182   -5.122714   -0.162463
     16          8           0       -1.687848   -3.142360    0.203164
     17          7           0        3.552332    2.724160   -0.029725
     18          6           0        2.179302    2.817773    0.030374
     19          6           0        1.828286    4.226144    0.064372
     20          6           0        3.121778    4.949671   -0.071885
     21          6           0        4.113137    3.968737   -0.151491
     22          6           0        0.442053    4.776234    0.104947
     23          6           0        3.371120    6.456020   -0.177301
     24          8           0        4.433068    7.034658   -0.197159
     25          6           0        2.099575    7.372021   -0.256909
     26          7           0        6.662792    1.984467   -0.178570
     27          6           0        6.661403    3.359405   -0.214632
     28          6           0        8.075040    3.954753   -0.164913
     29          6           0        8.936058    2.661276   -0.003076
     30          6           0        7.893813    1.555080   -0.002247
     31          6           0        8.322770    4.771404   -1.468348
     32          6           0        9.810321    2.684923    1.207198
     33          6           0        9.135424    2.568598    2.583200
     34          7           0        5.964387   -0.720682    0.202720
     35          6           0        7.341290   -0.912637    0.177934
     36          6           0        7.684276   -2.324987    0.186182
     37          6           0        6.418827   -2.974564    0.123066
     38          6           0        5.436490   -1.925137    0.151210
     39          6           0        9.057811   -2.860978    0.114671
     40          6           0        5.771839   -4.233228    0.019743
     41          8           0        6.160425   -5.369966   -0.014954
     42          6           0        4.252302   -3.851544    0.064996
     43          6           0        3.526251   -4.526866   -1.094833
     44          8           0        3.516116   -4.066925   -2.207617
     45          8           0        2.814166   -5.663772   -0.753217
     46          6           0        2.076128   -6.301716   -1.857762
     47          6           0       -2.555405   -3.431548   -0.952471
     48          6           0       -3.883402   -2.738736   -0.671504
     49          6           0       -5.117017   -3.076954   -1.228032
     50          6           0       -5.330889   -4.202529   -2.288585
     51          6           0       -6.400664   -2.448043   -0.631795
     52          6           0       -6.916552   -3.136158    0.651906
     53          6           0       -6.657621   -2.289257    1.903247
     54          6           0       -7.916206   -1.896357    2.675578
     55          6           0       -7.882501   -2.144551    4.221750
     56          6           0       -8.292061   -0.398592    2.421221
     57          6           0       -8.863289   -0.192050    1.007969
     58          6           0       -8.261151    1.104381    0.338933
     59          6           0       -9.169208    1.474298   -0.873198
     60          6           0       -8.341887    1.291100   -2.199299
     61          6           0       -9.848629    2.858108   -0.760058
     62          6           0      -11.198105    2.866347   -0.013158
     63          6           0      -12.352039    3.181623   -0.944825
     64          6           0      -13.753897    2.695169   -0.417188
     65          6           0      -14.866570    2.665364   -1.584281
     66          6           0      -14.362345    3.636180    0.713926
     67          1           0        0.272446    1.976388   -0.128805
     68          1           0        5.769752    5.248104   -0.116718
     69          1           0        9.270427   -0.127614    0.139617
     70          1           0        1.342659   -2.733828   -0.736113
     71          1           0       -0.133123   -0.602657    0.648573
     72          1           0       -1.167953   -0.457300   -1.354275
     73          1           0       -0.048148   -1.679764   -2.144668
     74          1           0        0.227398    0.038916   -2.200346
     75          1           0        1.189767   -1.929757    2.256326
     76          1           0        2.163458   -3.212882    1.841959
     77          1           0       -0.625090   -3.142220    2.482092
     78          1           0        0.222698   -4.564171    2.275052
     79          1           0        0.173415    5.431643   -0.723356
     80          1           0        0.298163    5.392704    0.993428
     81          1           0       -0.302997    3.982809    0.161255
     82          1           0        1.399839    7.313782    0.577066
     83          1           0        1.632512    7.203125   -1.227191
     84          1           0        2.574676    8.352311   -0.269237
     85          1           0        8.222892    4.653494    0.658399
     86          1           0        9.539216    2.507160   -0.897800
     87          1           0        7.514760    4.490171   -2.143916
     88          1           0        9.309457    4.508906   -1.851274
     89          1           0        8.279201    5.854761   -1.358688
     90          1           0       10.455224    3.563194    1.200184
     91          1           0       10.430792    1.791908    1.130807
     92          1           0        9.619345    3.302693    3.227963
     93          1           0        9.455491    1.612281    2.997465
     94          1           0        8.046248    2.612250    2.552009
     95          1           0        9.747788   -2.468472    0.861796
     96          1           0        9.505438   -2.606245   -0.845576
     97          1           0        9.055668   -3.949878    0.156598
     98          1           0        3.877543   -4.230172    1.016061
     99          1           0        2.734939   -7.076952   -2.248115
    100          1           0        1.747724   -5.585318   -2.611269
    101          1           0        1.182346   -6.850014   -1.559865
    102          1           0       -2.942097   -4.450429   -0.923424
    103          1           0       -2.146626   -3.196766   -1.935473
    104          1           0       -3.824068   -1.889254    0.008030
    105          1           0       -5.771799   -3.888940   -3.234658
    106          1           0       -6.028045   -4.943940   -1.897508
    107          1           0       -4.412537   -4.738404   -2.528121
    108          1           0       -7.231392   -2.638480   -1.311579
    109          1           0       -6.404281   -1.376042   -0.437164
    110          1           0       -6.576471   -4.166751    0.756060
    111          1           0       -7.982864   -3.244115    0.451854
    112          1           0       -6.175781   -1.337538    1.678624
    113          1           0       -6.050633   -2.912975    2.558866
    114          1           0       -8.799895   -2.490072    2.439180
    115          1           0       -8.191839   -1.194060    4.656542
    116          1           0       -6.925737   -2.413090    4.669624
    117          1           0       -8.725214   -2.689394    4.645691
    118          1           0       -7.385921    0.195015    2.538834
    119          1           0       -9.128420   -0.041340    3.021401
    120          1           0       -9.947430   -0.279626    1.081481
    121          1           0       -8.519480   -0.964012    0.320136
    122          1           0       -7.200891    0.859617    0.282746
    123          1           0       -8.337140    1.933198    1.042167
    124          1           0       -9.962372    0.727329   -0.905076
    125          1           0       -8.756270    0.745622   -3.046808
    126          1           0       -7.438490    0.748415   -1.923662
    127          1           0       -7.826182    2.140012   -2.647759
    128          1           0      -10.027955    3.287923   -1.745193
    129          1           0       -9.251186    3.573715   -0.195376
    130          1           0      -11.264035    3.598887    0.791286
    131          1           0      -11.459884    1.906245    0.432354
    132          1           0      -12.111332    2.781435   -1.929294
    133          1           0      -12.404977    4.248023   -1.167120
    134          1           0      -13.683519    1.656693   -0.094548
    135          1           0      -14.818139    1.772591   -2.207596
    136          1           0      -14.871858    3.599865   -2.145338
    137          1           0      -15.859935    2.612444   -1.135991
    138          1           0      -13.568013    4.300300    1.055297
    139          1           0      -14.851317    3.208936    1.589706
    140          1           0      -15.163749    4.188595    0.223775
 ---------------------------------------------------------------------

 SCF Done:  E(RB-LYP) =  -3007.39763367     A.U. after   21 cycles

 Excitation energies and oscillator strengths:

 Excited State   1:      Singlet-A      1.8067 eV  686.26 nm  f=0.2862  <S**2>=0.000
     245 -> 248       -0.19048
     246 -> 247        0.68626
     246 <- 247       -0.15496
 This state for optimization and/or second-order correction.
 Total Energy, E(TD-HF/TD-DFT) =  -3007.33124024
 Copying the excited state density for this state as the 1-particle RhoCI density.

 Excited State   2:      Singlet-A      1.9254 eV  643.94 nm  f=0.0342  <S**2>=0.000
     243 -> 247       -0.14510
     244 -> 247        0.53677
     245 -> 247        0.41416
     246 -> 248        0.12093

 Excited State   3:      Singlet-A      1.9730 eV  628.39 nm  f=0.0450  <S**2>=0.000
     243 -> 247        0.39926
     244 -> 247        0.42477
     245 -> 247       -0.36476
     246 -> 248       -0.13343

 Excited State   4:      Singlet-A      2.0170 eV  614.68 nm  f=0.0332  <S**2>=0.000
     243 -> 247        0.56288
     244 -> 247       -0.16575
     245 -> 247        0.35672
     246 -> 248        0.14862

 Excited State   5:      Singlet-A      2.2661 eV  547.12 nm  f=0.0001  <S**2>=0.000
     241 -> 247       -0.10418
     242 -> 247        0.69937

 The electronic state is 1-A.
 Alpha  occ. eigenvalues --  -46.27676 -18.83528 -18.80568 -18.76944 -18.76332
 Alpha  occ. eigenvalues --  -18.75586 -18.75532 -14.03420 -14.03409 -14.00875
 Alpha  occ. eigenvalues --  -14.00613 -10.04767 -10.02791 -10.00238  -9.99116
 Alpha  occ. eigenvalues --   -9.98520  -9.96838  -9.96810  -9.96725  -9.96291
 Alpha  occ. eigenvalues --   -9.95776  -9.95553  -9.95466  -9.95336  -9.94533
 Alpha  occ. eigenvalues --   -9.94476  -9.94447  -9.94363  -9.94240  -9.94086
 Alpha  occ. eigenvalues --   -9.94041  -9.93954  -9.93630  -9.93567  -9.93384
 Alpha  occ. eigenvalues --   -9.93256  -9.93255  -9.93198  -9.93048  -9.93003
 Alpha  occ. eigenvalues --   -9.92840  -9.92692  -9.92664  -9.92650  -9.92476
 Alpha  occ. eigenvalues --   -9.92450  -9.92406  -9.92376  -9.92108  -9.92083
 Alpha  occ. eigenvalues --   -9.91919  -9.91837  -9.91795  -9.91755  -9.91616
 Alpha  occ. eigenvalues --   -9.91442  -9.91399  -9.91305  -9.91289  -9.91190
 Alpha  occ. eigenvalues --   -9.91186  -9.91182  -9.91100  -9.91063  -9.90912
 Alpha  occ. eigenvalues --   -9.90608  -2.92212  -1.72646  -1.72134  -1.71882
 Alpha  occ. eigenvalues --   -0.98964  -0.96387  -0.92718  -0.92195  -0.88879
 Alpha  occ. eigenvalues --   -0.88680  -0.87484  -0.86242  -0.85454  -0.84615
 Alpha  occ. eigenvalues --   -0.75379  -0.73875  -0.73015  -0.72970  -0.72616
 Alpha  occ. eigenvalues --   -0.71939  -0.71806  -0.70655  -0.70542  -0.70411
 Alpha  occ. eigenvalues --   -0.69726  -0.69124  -0.68033  -0.67412  -0.67022
 Alpha  occ. eigenvalues --   -0.66567  -0.65552  -0.65205  -0.64457  -0.64108
 Alpha  occ. eigenvalues --   -0.63839  -0.62928  -0.62553  -0.61754  -0.60752
 Alpha  occ. eigenvalues --   -0.60332  -0.59750  -0.59745  -0.59352  -0.59000
 Alpha  occ. eigenvalues --   -0.58593  -0.57825  -0.56630  -0.56131  -0.55202
 Alpha  occ. eigenvalues --   -0.54087  -0.53615  -0.52924  -0.52487  -0.51489
 Alpha  occ. eigenvalues --   -0.51225  -0.51124  -0.50732  -0.50521  -0.50372
 Alpha  occ. eigenvalues --   -0.50019  -0.49525  -0.49096  -0.47300  -0.46945
 Alpha  occ. eigenvalues --   -0.46887  -0.46017  -0.45580  -0.45418  -0.44352
 Alpha  occ. eigenvalues --   -0.44052  -0.43634  -0.43237  -0.42861  -0.42823
 Alpha  occ. eigenvalues --   -0.42612  -0.41806  -0.41632  -0.41547  -0.41318
 Alpha  occ. eigenvalues --   -0.41002  -0.40504  -0.40379  -0.39961  -0.39672
 Alpha  occ. eigenvalues --   -0.39484  -0.39395  -0.39054  -0.39010  -0.38861
 Alpha  occ. eigenvalues --   -0.38743  -0.38646  -0.38471  -0.38374  -0.38137
 Alpha  occ. eigenvalues --   -0.38046  -0.37699  -0.37553  -0.37428  -0.37102
 Alpha  occ. eigenvalues --   -0.36884  -0.36845  -0.36833  -0.36502  -0.36398
 Alpha  occ. eigenvalues --   -0.36243  -0.36164  -0.36009  -0.35836  -0.35480
 Alpha  occ. eigenvalues --   -0.35289  -0.35151  -0.34997  -0.34627  -0.34474
 Alpha  occ. eigenvalues --   -0.34440  -0.34347  -0.34100  -0.34040  -0.33846
 Alpha  occ. eigenvalues --   -0.33748  -0.33579  -0.33458  -0.33271  -0.33209
 Alpha  occ. eigenvalues --   -0.32979  -0.32887  -0.32689  -0.32551  -0.32503
 Alpha  occ. eigenvalues --   -0.32154  -0.32062  -0.31812  -0.31707  -0.31571
 Alpha  occ. eigenvalues --   -0.31432  -0.31375  -0.31310  -0.31242  -0.30873
 Alpha  occ. eigenvalues --   -0.30720  -0.30550  -0.30510  -0.30271  -0.30151
 Alpha  occ. eigenvalues --   -0.29778  -0.29644  -0.29398  -0.29340  -0.29098
 Alpha  occ. eigenvalues --   -0.28786  -0.28701  -0.28013  -0.27899  -0.27560
 Alpha  occ. eigenvalues --   -0.27537  -0.27322  -0.27238  -0.27108  -0.26598
 Alpha  occ. eigenvalues --   -0.26437  -0.26338  -0.26126  -0.25918  -0.25455
 Alpha  occ. eigenvalues --   -0.25378  -0.25341  -0.24019  -0.23820  -0.23549
 Alpha  occ. eigenvalues --   -0.23251  -0.22053  -0.21737  -0.21048  -0.20791
 Alpha  occ. eigenvalues --   -0.20132  -0.20109  -0.19053  -0.18827  -0.17312
 Alpha  occ. eigenvalues --   -0.15975
 Alpha virt. eigenvalues --   -0.11782  -0.06825  -0.06272  -0.04343  -0.04133
 Alpha virt. eigenvalues --   -0.03011  -0.02176  -0.01319  -0.01116   0.00114
 Alpha virt. eigenvalues --    0.01262   0.01892   0.02337   0.02537   0.02676

 Mulliken charges:
               1
     1  Mg   0.684974
     2  C    0.094068
     3  C   -0.051476
     4  C   -0.028335
     5  C   -0.084463
     6  N   -0.182038
     7  C   -0.104885
     8  C    0.048594
     9  C   -0.030459
    10  C    0.002165
    11  C    0.117148
    12  C    0.136596
    13  C    0.171243
    14  C    0.068915
    15  O   -0.221390
    16  O   -0.256932
    17  N   -0.304835
    18  C    0.133303
    19  C   -0.134685
    20  C    0.042369
    21  C    0.106723
    22  C    0.177168
    23  C   -0.075085
    24  O   -0.141062
    25  C    0.092377
    26  N   -0.219085
    27  C    0.009434
    28  C   -0.014881
    29  C    0.111709
    30  C    0.021742
    31  C    0.118622
    32  C    0.058383
    33  C    0.079563
    34  N   -0.212473
    35  C    0.066047
    36  C   -0.159338
    37  C    0.097999
    38  C    0.006441
    39  C    0.170137
    40  C   -0.064240
    41  O   -0.098587
    42  C    0.015782
    43  C    0.106688
    44  O   -0.177637
    45  O   -0.274926
    46  C    0.214939
    47  C    0.310222
    48  C   -0.139208
    49  C   -0.104533
    50  C    0.115426
    51  C    0.099177
    52  C    0.071453
    53  C    0.162753
    54  C   -0.102830
    55  C    0.114540
    56  C    0.117311
    57  C   -0.006920
    58  C    0.089289
    59  C   -0.017032
    60  C    0.089374
    61  C    0.147023
    62  C    0.074133
    63  C    0.057228
    64  C   -0.076491
    65  C    0.075140
    66  C    0.095901
    67  H   -0.069784
    68  H   -0.047686
    69  H   -0.073546
    70  H    0.004113
    71  H   -0.017291
    72  H   -0.004589
    73  H    0.011974
    74  H   -0.009777
    75  H   -0.034704
    76  H   -0.022957
    77  H   -0.021028
    78  H   -0.008137
    79  H    0.002743
    80  H   -0.000964
    81  H   -0.022344
    82  H    0.008481
    83  H    0.010017
    84  H   -0.014014
    85  H   -0.012327
    86  H   -0.033153
    87  H    0.000330
    88  H   -0.012257
    89  H    0.002837
    90  H   -0.017674
    91  H   -0.027179
    92  H   -0.012624
    93  H   -0.014500
    94  H    0.013211
    95  H   -0.002778
    96  H    0.001458
    97  H    0.005460
    98  H    0.003993
    99  H    0.006269
   100  H    0.015403
   101  H    0.017452
   102  H    0.017296
   103  H    0.027131
   104  H   -0.026196
   105  H    0.006075
   106  H   -0.004468
   107  H   -0.012597
   108  H   -0.042803
   109  H   -0.007885
   110  H   -0.029679
   111  H   -0.028761
   112  H   -0.030209
   113  H   -0.032278
   114  H   -0.040181
   115  H   -0.049916
   116  H   -0.013040
   117  H   -0.025846
   118  H   -0.030677
   119  H   -0.027951
   120  H   -0.022093
   121  H   -0.031844
   122  H   -0.019959
   123  H   -0.038984
   124  H   -0.026766
   125  H   -0.014150
   126  H   -0.040417
   127  H   -0.027827
   128  H   -0.032358
   129  H   -0.036881
   130  H   -0.034721
   131  H   -0.034561
   132  H   -0.036700
   133  H   -0.036885
   134  H   -0.030871
   135  H   -0.014199
   136  H   -0.009845
   137  H   -0.023502
   138  H   -0.015526
   139  H   -0.010791
   140  H   -0.021841
 Sum of Mulliken charges =  -0.00000

 Dipole moment (field-independent basis, Debye):
    X=             -3.8560    Y=              2.7843    Z=              1.9933  Tot=              5.1569
 Quadrupole moment (field-independent basis, Debye-Ang):
   XX=           -369.5435   YY=           -447.2937   ZZ=           -404.6988
   XY=             25.9389   XZ=             11.7476   YZ=              0.9663

 Normal termination of Gaussian 16 at Sat Apr 30 06:19:16 2022.
