 Gaussian 16, Revision A.03,
 Gaussian 16:  ES64L-G16RevA.03 25-Dec-2016

 -----------------------------------
 #p cam-b3lyp/Def2SVP td=(nstates=5)
 -----------------------------------

 -------------------------------------------------------
 step_601_chromophore_24 TDDFT with cam-b3lyp functional
 -------------------------------------------------------
 Symbolic Z-matrix:
 Charge =  0 Multiplicity = 1

                         Standard orientation:
 ---------------------------------------------------------------------
 Center     Atomic      Atomic             Coordinates (Angstroms)
 Number     Number       Type             X           Y           Z
 ---------------------------------------------------------------------
      1         12           0        4.838985    1.089380    0.157264
      2          6           0        4.089068   -2.347454    0.080947
      3          6           0        1.335808    1.727799   -0.111170
      4          6           0        5.510773    4.190868   -0.199827
      5          6           0        8.232166    0.208982    0.103393
      6          7           0        2.906810   -0.160287    0.110599
      7          6           0        2.922495   -1.569802    0.087796
      8          6           0        1.504997   -2.086090    0.125602
      9          6           0        0.573142   -0.795498   -0.157815
     10          6           0        1.688870    0.344495   -0.093821
     11          6           0       -0.142438   -0.763189   -1.562151
     12          6           0        1.255204   -2.713842    1.503105
     13          6           0        0.017116   -3.632094    1.750310
     14          6           0       -0.817427   -4.103442    0.546369
     15          8           0       -0.631182   -5.122714   -0.162463
     16          8           0       -1.687848   -3.142360    0.203164
     17          7           0        3.552332    2.724160   -0.029725
     18          6           0        2.179302    2.817773    0.030374
     19          6           0        1.828286    4.226144    0.064372
     20          6           0        3.121778    4.949671   -0.071885
     21          6           0        4.113137    3.968737   -0.151491
     22          6           0        0.442053    4.776234    0.104947
     23          6           0        3.371120    6.456020   -0.177301
     24          8           0        4.433068    7.034658   -0.197159
     25          6           0        2.099575    7.372021   -0.256909
     26          7           0        6.662792    1.984467   -0.178570
     27          6           0        6.661403    3.359405   -0.214632
     28          6           0        8.075040    3.954753   -0.164913
     29          6           0        8.936058    2.661276   -0.003076
     30          6           0        7.893813    1.555080   -0.002247
     31          6           0        8.322770    4.771404   -1.468348
     32          6           0        9.810321    2.684923    1.207198
     33          6           0        9.135424    2.568598    2.583200
     34          7           0        5.964387   -0.720682    0.202720
     35          6           0        7.341290   -0.912637    0.177934
     36          6           0        7.684276   -2.324987    0.186182
     37          6           0        6.418827   -2.974564    0.123066
     38          6           0        5.436490   -1.925137    0.151210
     39          6           0        9.057811   -2.860978    0.114671
     40          6           0        5.771839   -4.233228    0.019743
     41          8           0        6.160425   -5.369966   -0.014954
     42          6           0        4.252302   -3.851544    0.064996
     43          6           0        3.526251   -4.526866   -1.094833
     44          8           0        3.516116   -4.066925   -2.207617
     45          8           0        2.814166   -5.663772   -0.753217
     46          6           0        2.076128   -6.301716   -1.857762
     47          6           0       -2.555405   -3.431548   -0.952471
     48          6           0       -3.883402   -2.738736   -0.671504
     49          6           0       -5.117017   -3.076954   -1.228032
     50          6           0       -5.330889   -4.202529   -2.288585
     51          6           0       -6.400664   -2.448043   -0.631795
     52          6           0       -6.916552   -3.136158    0.651906
     53          6           0       -6.657621   -2.289257    1.903247
     54          6           0       -7.916206   -1.896357    2.675578
     55          6           0       -7.882501   -2.144551    4.221750
     56          6           0       -8.292061   -0.398592    2.421221
     57          6           0       -8.863289   -0.192050    1.007969
     58          6           0       -8.261151    1.104381    0.338933
     59          6           0       -9.169208    1.474298   -0.873198
     60          6           0       -8.341887    1.291100   -2.199299
     61          6           0       -9.848629    2.858108   -0.760058
     62          6           0      -11.198105    2.866347   -0.013158
     63          6           0      -12.352039    3.181623   -0.944825
     64          6           0      -13.753897    2.695169   -0.417188
     65          6           0      -14.866570    2.665364   -1.584281
     66          6           0      -14.362345    3.636180    0.713926
     67          1           0        0.272446    1.976388   -0.128805
     68          1           0        5.769752    5.248104   -0.116718
     69          1           0        9.270427   -0.127614    0.139617
     70          1           0        1.342659   -2.733828   -0.736113
     71          1           0       -0.133123   -0.602657    0.648573
     72          1           0       -1.167953   -0.457300   -1.354275
     73          1           0       -0.048148   -1.679764   -2.144668
     74          1           0        0.227398    0.038916   -2.200346
     75          1           0        1.189767   -1.929757    2.256326
     76          1           0        2.163458   -3.212882    1.841959
     77          1           0       -0.625090   -3.142220    2.482092
     78          1           0        0.222698   -4.564171    2.275052
     79          1           0        0.173415    5.431643   -0.723356
     80          1           0        0.298163    5.392704    0.993428
     81          1           0       -0.302997    3.982809    0.161255
     82          1           0        1.399839    7.313782    0.577066
     83          1           0        1.632512    7.203125   -1.227191
     84          1           0        2.574676    8.352311   -0.269237
     85          1           0        8.222892    4.653494    0.658399
     86          1           0        9.539216    2.507160   -0.897800
     87          1           0        7.514760    4.490171   -2.143916
     88          1           0        9.309457    4.508906   -1.851274
     89          1           0        8.279201    5.854761   -1.358688
     90          1           0       10.455224    3.563194    1.200184
     91          1           0       10.430792    1.791908    1.130807
     92          1           0        9.619345    3.302693    3.227963
     93          1           0        9.455491    1.612281    2.997465
     94          1           0        8.046248    2.612250    2.552009
     95          1           0        9.747788   -2.468472    0.861796
     96          1           0        9.505438   -2.606245   -0.845576
     97          1           0        9.055668   -3.949878    0.156598
     98          1           0        3.877543   -4.230172    1.016061
     99          1           0        2.734939   -7.076952   -2.248115
    100          1           0        1.747724   -5.585318   -2.611269
    101          1           0        1.182346   -6.850014   -1.559865
    102          1           0       -2.942097   -4.450429   -0.923424
    103          1           0       -2.146626   -3.196766   -1.935473
    104          1           0       -3.824068   -1.889254    0.008030
    105          1           0       -5.771799   -3.888940   -3.234658
    106          1           0       -6.028045   -4.943940   -1.897508
    107          1           0       -4.412537   -4.738404   -2.528121
    108          1           0       -7.231392   -2.638480   -1.311579
    109          1           0       -6.404281   -1.376042   -0.437164
    110          1           0       -6.576471   -4.166751    0.756060
    111          1           0       -7.982864   -3.244115    0.451854
    112          1           0       -6.175781   -1.337538    1.678624
    113          1           0       -6.050633   -2.912975    2.558866
    114          1           0       -8.799895   -2.490072    2.439180
    115          1           0       -8.191839   -1.194060    4.656542
    116          1           0       -6.925737   -2.413090    4.669624
    117          1           0       -8.725214   -2.689394    4.645691
    118          1           0       -7.385921    0.195015    2.538834
    119          1           0       -9.128420   -0.041340    3.021401
    120          1           0       -9.947430   -0.279626    1.081481
    121          1           0       -8.519480   -0.964012    0.320136
    122          1           0       -7.200891    0.859617    0.282746
    123          1           0       -8.337140    1.933198    1.042167
    124          1           0       -9.962372    0.727329   -0.905076
    125          1           0       -8.756270    0.745622   -3.046808
    126          1           0       -7.438490    0.748415   -1.923662
    127          1           0       -7.826182    2.140012   -2.647759
    128          1           0      -10.027955    3.287923   -1.745193
    129          1           0       -9.251186    3.573715   -0.195376
    130          1           0      -11.264035    3.598887    0.791286
    131          1           0      -11.459884    1.906245    0.432354
    132          1           0      -12.111332    2.781435   -1.929294
    133          1           0      -12.404977    4.248023   -1.167120
    134          1           0      -13.683519    1.656693   -0.094548
    135          1           0      -14.818139    1.772591   -2.207596
    136          1           0      -14.871858    3.599865   -2.145338
    137          1           0      -15.859935    2.612444   -1.135991
    138          1           0      -13.568013    4.300300    1.055297
    139          1           0      -14.851317    3.208936    1.589706
    140          1           0      -15.163749    4.188595    0.223775
 ---------------------------------------------------------------------

 SCF Done:  E(RCAM-B3LYP) =  -3007.18875808     A.U. after   17 cycles

 Excitation energies and oscillator strengths:

 Excited State   1:      Singlet-A      1.6997 eV  729.45 nm  f=0.3977  <S**2>=0.000
     245 -> 248       -0.17747
     246 -> 247        0.68480
     245 <- 248       -0.10694
 This state for optimization and/or second-order correction.
 Total Energy, E(TD-HF/TD-DFT) =  -3007.12629536
 Copying the excited state density for this state as the 1-particle RhoCI density.

 Excited State   2:      Singlet-A      2.1739 eV  570.32 nm  f=0.1315  <S**2>=0.000
     245 -> 247        0.64668
     246 -> 248        0.26876

 Excited State   3:      Singlet-A      3.2179 eV  385.30 nm  f=0.0008  <S**2>=0.000
     244 -> 247        0.68468
     246 -> 248       -0.12071

 Excited State   4:      Singlet-A      3.4928 eV  354.97 nm  f=0.1626  <S**2>=0.000
     241 -> 247        0.16816
     242 -> 247        0.49948
     245 -> 247        0.13479
     246 -> 248       -0.41993

 Excited State   5:      Singlet-A      3.5387 eV  350.36 nm  f=0.0005  <S**2>=0.000
     239 -> 247        0.12333
     241 -> 247        0.54628
     241 -> 249       -0.27234
     241 -> 250       -0.16740
     242 -> 247       -0.20478

 The electronic state is 1-A.
 Alpha  occ. eigenvalues --  -46.89206 -19.26435 -19.23349 -19.19861 -19.19669
 Alpha  occ. eigenvalues --  -19.18678 -19.18571 -14.42353 -14.42210 -14.39233
 Alpha  occ. eigenvalues --  -14.39006 -10.40053 -10.38168 -10.35620 -10.34321
 Alpha  occ. eigenvalues --  -10.32620 -10.31424 -10.31284 -10.31248 -10.30503
 Alpha  occ. eigenvalues --  -10.29971 -10.29808 -10.29636 -10.29552 -10.29383
 Alpha  occ. eigenvalues --  -10.28633 -10.28611 -10.28606 -10.28301 -10.28274
 Alpha  occ. eigenvalues --  -10.28022 -10.27988 -10.27838 -10.27571 -10.27526
 Alpha  occ. eigenvalues --  -10.27278 -10.27266 -10.27183 -10.27162 -10.26925
 Alpha  occ. eigenvalues --  -10.26854 -10.26788 -10.26657 -10.26634 -10.26186
 Alpha  occ. eigenvalues --  -10.26149 -10.26110 -10.26076 -10.26066 -10.25841
 Alpha  occ. eigenvalues --  -10.25688 -10.25553 -10.25506 -10.25449 -10.25363
 Alpha  occ. eigenvalues --  -10.25260 -10.25157 -10.25088 -10.25032 -10.24982
 Alpha  occ. eigenvalues --  -10.24880 -10.24849 -10.24778 -10.24728 -10.24553
 Alpha  occ. eigenvalues --  -10.24230  -3.17644  -1.92557  -1.92139  -1.91907
 Alpha  occ. eigenvalues --   -1.17371  -1.14874  -1.11289  -1.10562  -1.06677
 Alpha  occ. eigenvalues --   -1.06482  -1.05168  -1.03789  -1.03116  -1.02176
 Alpha  occ. eigenvalues --   -0.92470  -0.90755  -0.89759  -0.89651  -0.89362
 Alpha  occ. eigenvalues --   -0.88655  -0.88495  -0.87191  -0.87070  -0.86962
 Alpha  occ. eigenvalues --   -0.86446  -0.85411  -0.84308  -0.83562  -0.83102
 Alpha  occ. eigenvalues --   -0.82666  -0.81536  -0.81083  -0.80322  -0.80212
 Alpha  occ. eigenvalues --   -0.79563  -0.78652  -0.78296  -0.77227  -0.76117
 Alpha  occ. eigenvalues --   -0.75632  -0.75066  -0.74992  -0.74658  -0.74224
 Alpha  occ. eigenvalues --   -0.73649  -0.72824  -0.71517  -0.70950  -0.69823
 Alpha  occ. eigenvalues --   -0.68718  -0.68143  -0.67322  -0.66969  -0.65697
 Alpha  occ. eigenvalues --   -0.65429  -0.65074  -0.64804  -0.64594  -0.64260
 Alpha  occ. eigenvalues --   -0.63903  -0.63519  -0.63013  -0.60901  -0.60705
 Alpha  occ. eigenvalues --   -0.60354  -0.59537  -0.59074  -0.58765  -0.57747
 Alpha  occ. eigenvalues --   -0.57589  -0.56858  -0.56229  -0.55970  -0.55919
 Alpha  occ. eigenvalues --   -0.55514  -0.54976  -0.54951  -0.54550  -0.54336
 Alpha  occ. eigenvalues --   -0.53676  -0.53295  -0.53250  -0.52534  -0.52474
 Alpha  occ. eigenvalues --   -0.52346  -0.52195  -0.52075  -0.51622  -0.51462
 Alpha  occ. eigenvalues --   -0.51305  -0.51050  -0.50912  -0.50821  -0.50730
 Alpha  occ. eigenvalues --   -0.50369  -0.50052  -0.49963  -0.49705  -0.49594
 Alpha  occ. eigenvalues --   -0.49368  -0.49270  -0.49037  -0.48932  -0.48899
 Alpha  occ. eigenvalues --   -0.48705  -0.48482  -0.48253  -0.48102  -0.47536
 Alpha  occ. eigenvalues --   -0.47337  -0.47217  -0.46878  -0.46554  -0.46312
 Alpha  occ. eigenvalues --   -0.46238  -0.46163  -0.45884  -0.45748  -0.45577
 Alpha  occ. eigenvalues --   -0.45409  -0.45394  -0.45200  -0.45112  -0.44933
 Alpha  occ. eigenvalues --   -0.44748  -0.44647  -0.44320  -0.44225  -0.44153
 Alpha  occ. eigenvalues --   -0.43785  -0.43695  -0.43474  -0.43384  -0.43182
 Alpha  occ. eigenvalues --   -0.43088  -0.42965  -0.42814  -0.42682  -0.42351
 Alpha  occ. eigenvalues --   -0.42043  -0.41791  -0.41654  -0.41534  -0.41417
 Alpha  occ. eigenvalues --   -0.41070  -0.40835  -0.40590  -0.40494  -0.40169
 Alpha  occ. eigenvalues --   -0.39996  -0.39776  -0.39771  -0.38937  -0.38675
 Alpha  occ. eigenvalues --   -0.38382  -0.38181  -0.38082  -0.37954  -0.37681
 Alpha  occ. eigenvalues --   -0.37400  -0.37030  -0.36868  -0.36729  -0.36310
 Alpha  occ. eigenvalues --   -0.36057  -0.35944  -0.35040  -0.34271  -0.34197
 Alpha  occ. eigenvalues --   -0.34033  -0.33567  -0.32956  -0.31184  -0.31093
 Alpha  occ. eigenvalues --   -0.30688  -0.30077  -0.29645  -0.29477  -0.24049
 Alpha  occ. eigenvalues --   -0.21234
 Alpha virt. eigenvalues --   -0.09013  -0.01609   0.00173   0.02578   0.02924
 Alpha virt. eigenvalues --    0.03559   0.04558   0.05748   0.06371   0.06752
 Alpha virt. eigenvalues --    0.08092   0.08667   0.08745   0.08875   0.09174

 Mulliken charges:
               1
     1  Mg   0.817990
     2  C    0.064235
     3  C   -0.063054
     4  C   -0.053566
     5  C   -0.086262
     6  N   -0.248956
     7  C   -0.061064
     8  C   -0.008397
     9  C   -0.071348
    10  C    0.021632
    11  C    0.060632
    12  C    0.085602
    13  C    0.104347
    14  C    0.142967
    15  O   -0.263547
    16  O   -0.319083
    17  N   -0.395548
    18  C    0.141666
    19  C   -0.137343
    20  C   -0.031213
    21  C    0.135980
    22  C    0.116285
    23  C    0.007745
    24  O   -0.182390
    25  C    0.014099
    26  N   -0.294170
    27  C    0.027051
    28  C   -0.069608
    29  C    0.054358
    30  C    0.034853
    31  C    0.063012
    32  C    0.007327
    33  C    0.014966
    34  N   -0.300577
    35  C    0.067219
    36  C   -0.148935
    37  C    0.014059
    38  C    0.044456
    39  C    0.112258
    40  C    0.037099
    41  O   -0.138744
    42  C   -0.056941
    43  C    0.191737
    44  O   -0.214372
    45  O   -0.338311
    46  C    0.176094
    47  C    0.278320
    48  C   -0.151065
    49  C   -0.131498
    50  C    0.057032
    51  C    0.044977
    52  C    0.019059
    53  C    0.102821
    54  C   -0.158840
    55  C    0.055772
    56  C    0.060055
    57  C   -0.049796
    58  C    0.040500
    59  C   -0.077293
    60  C    0.034127
    61  C    0.087741
    62  C    0.024967
    63  C    0.005451
    64  C   -0.136277
    65  C    0.017301
    66  C    0.035903
    67  H   -0.034433
    68  H   -0.006647
    69  H   -0.037041
    70  H    0.034450
    71  H    0.016634
    72  H    0.017139
    73  H    0.033707
    74  H    0.017677
    75  H   -0.002211
    76  H    0.006915
    77  H    0.013242
    78  H    0.025521
    79  H    0.029640
    80  H    0.026078
    81  H    0.006521
    82  H    0.035124
    83  H    0.036999
    84  H    0.022087
    85  H    0.022115
    86  H    0.004308
    87  H    0.026385
    88  H    0.011717
    89  H    0.026945
    90  H    0.010382
    91  H    0.001148
    92  H    0.012198
    93  H    0.010397
    94  H    0.033231
    95  H    0.022095
    96  H    0.028010
    97  H    0.033718
    98  H    0.045660
    99  H    0.028483
   100  H    0.039673
   101  H    0.040370
   102  H    0.045507
   103  H    0.051500
   104  H    0.005524
   105  H    0.031066
   106  H    0.018650
   107  H    0.011241
   108  H   -0.011537
   109  H    0.013611
   110  H    0.000108
   111  H   -0.000050
   112  H   -0.005094
   113  H   -0.001019
   114  H   -0.007123
   115  H   -0.022776
   116  H    0.011235
   117  H    0.000110
   118  H   -0.002420
   119  H    0.001532
   120  H    0.004403
   121  H   -0.010901
   122  H    0.004346
   123  H   -0.010166
   124  H    0.005276
   125  H    0.010488
   126  H   -0.017637
   127  H   -0.002510
   128  H   -0.002191
   129  H   -0.007027
   130  H   -0.006798
   131  H   -0.009465
   132  H   -0.008175
   133  H   -0.009021
   134  H   -0.000286
   135  H    0.010306
   136  H    0.012699
   137  H    0.001364
   138  H    0.006674
   139  H    0.014187
   140  H    0.002637
 Sum of Mulliken charges =  -0.00000

 Dipole moment (field-independent basis, Debye):
    X=             -4.4576    Y=              3.4566    Z=              2.0906  Tot=              6.0157
 Quadrupole moment (field-independent basis, Debye-Ang):
   XX=           -369.0293   YY=           -443.7503   ZZ=           -404.3515
   XY=             27.2280   XZ=             12.2790   YZ=              0.6708

 Normal termination of Gaussian 16 at Sat Apr 30 05:19:36 2022.
