 Gaussian 16, Revision A.03,
 Gaussian 16:  ES64L-G16RevA.03 25-Dec-2016

 ---------------------------------
 #p PBE1PBE/Def2SVP td=(nstates=5)
 ---------------------------------

 -----------------------------------------------------
 step_601_chromophore_24 TDDFT with PBE1PBE functional
 -----------------------------------------------------
 Symbolic Z-matrix:
 Charge =  0 Multiplicity = 1

                         Standard orientation:
 ---------------------------------------------------------------------
 Center     Atomic      Atomic             Coordinates (Angstroms)
 Number     Number       Type             X           Y           Z
 ---------------------------------------------------------------------
      1         12           0        4.838985    1.089380    0.157264
      2          6           0        4.089068   -2.347454    0.080947
      3          6           0        1.335808    1.727799   -0.111170
      4          6           0        5.510773    4.190868   -0.199827
      5          6           0        8.232166    0.208982    0.103393
      6          7           0        2.906810   -0.160287    0.110599
      7          6           0        2.922495   -1.569802    0.087796
      8          6           0        1.504997   -2.086090    0.125602
      9          6           0        0.573142   -0.795498   -0.157815
     10          6           0        1.688870    0.344495   -0.093821
     11          6           0       -0.142438   -0.763189   -1.562151
     12          6           0        1.255204   -2.713842    1.503105
     13          6           0        0.017116   -3.632094    1.750310
     14          6           0       -0.817427   -4.103442    0.546369
     15          8           0       -0.631182   -5.122714   -0.162463
     16          8           0       -1.687848   -3.142360    0.203164
     17          7           0        3.552332    2.724160   -0.029725
     18          6           0        2.179302    2.817773    0.030374
     19          6           0        1.828286    4.226144    0.064372
     20          6           0        3.121778    4.949671   -0.071885
     21          6           0        4.113137    3.968737   -0.151491
     22          6           0        0.442053    4.776234    0.104947
     23          6           0        3.371120    6.456020   -0.177301
     24          8           0        4.433068    7.034658   -0.197159
     25          6           0        2.099575    7.372021   -0.256909
     26          7           0        6.662792    1.984467   -0.178570
     27          6           0        6.661403    3.359405   -0.214632
     28          6           0        8.075040    3.954753   -0.164913
     29          6           0        8.936058    2.661276   -0.003076
     30          6           0        7.893813    1.555080   -0.002247
     31          6           0        8.322770    4.771404   -1.468348
     32          6           0        9.810321    2.684923    1.207198
     33          6           0        9.135424    2.568598    2.583200
     34          7           0        5.964387   -0.720682    0.202720
     35          6           0        7.341290   -0.912637    0.177934
     36          6           0        7.684276   -2.324987    0.186182
     37          6           0        6.418827   -2.974564    0.123066
     38          6           0        5.436490   -1.925137    0.151210
     39          6           0        9.057811   -2.860978    0.114671
     40          6           0        5.771839   -4.233228    0.019743
     41          8           0        6.160425   -5.369966   -0.014954
     42          6           0        4.252302   -3.851544    0.064996
     43          6           0        3.526251   -4.526866   -1.094833
     44          8           0        3.516116   -4.066925   -2.207617
     45          8           0        2.814166   -5.663772   -0.753217
     46          6           0        2.076128   -6.301716   -1.857762
     47          6           0       -2.555405   -3.431548   -0.952471
     48          6           0       -3.883402   -2.738736   -0.671504
     49          6           0       -5.117017   -3.076954   -1.228032
     50          6           0       -5.330889   -4.202529   -2.288585
     51          6           0       -6.400664   -2.448043   -0.631795
     52          6           0       -6.916552   -3.136158    0.651906
     53          6           0       -6.657621   -2.289257    1.903247
     54          6           0       -7.916206   -1.896357    2.675578
     55          6           0       -7.882501   -2.144551    4.221750
     56          6           0       -8.292061   -0.398592    2.421221
     57          6           0       -8.863289   -0.192050    1.007969
     58          6           0       -8.261151    1.104381    0.338933
     59          6           0       -9.169208    1.474298   -0.873198
     60          6           0       -8.341887    1.291100   -2.199299
     61          6           0       -9.848629    2.858108   -0.760058
     62          6           0      -11.198105    2.866347   -0.013158
     63          6           0      -12.352039    3.181623   -0.944825
     64          6           0      -13.753897    2.695169   -0.417188
     65          6           0      -14.866570    2.665364   -1.584281
     66          6           0      -14.362345    3.636180    0.713926
     67          1           0        0.272446    1.976388   -0.128805
     68          1           0        5.769752    5.248104   -0.116718
     69          1           0        9.270427   -0.127614    0.139617
     70          1           0        1.342659   -2.733828   -0.736113
     71          1           0       -0.133123   -0.602657    0.648573
     72          1           0       -1.167953   -0.457300   -1.354275
     73          1           0       -0.048148   -1.679764   -2.144668
     74          1           0        0.227398    0.038916   -2.200346
     75          1           0        1.189767   -1.929757    2.256326
     76          1           0        2.163458   -3.212882    1.841959
     77          1           0       -0.625090   -3.142220    2.482092
     78          1           0        0.222698   -4.564171    2.275052
     79          1           0        0.173415    5.431643   -0.723356
     80          1           0        0.298163    5.392704    0.993428
     81          1           0       -0.302997    3.982809    0.161255
     82          1           0        1.399839    7.313782    0.577066
     83          1           0        1.632512    7.203125   -1.227191
     84          1           0        2.574676    8.352311   -0.269237
     85          1           0        8.222892    4.653494    0.658399
     86          1           0        9.539216    2.507160   -0.897800
     87          1           0        7.514760    4.490171   -2.143916
     88          1           0        9.309457    4.508906   -1.851274
     89          1           0        8.279201    5.854761   -1.358688
     90          1           0       10.455224    3.563194    1.200184
     91          1           0       10.430792    1.791908    1.130807
     92          1           0        9.619345    3.302693    3.227963
     93          1           0        9.455491    1.612281    2.997465
     94          1           0        8.046248    2.612250    2.552009
     95          1           0        9.747788   -2.468472    0.861796
     96          1           0        9.505438   -2.606245   -0.845576
     97          1           0        9.055668   -3.949878    0.156598
     98          1           0        3.877543   -4.230172    1.016061
     99          1           0        2.734939   -7.076952   -2.248115
    100          1           0        1.747724   -5.585318   -2.611269
    101          1           0        1.182346   -6.850014   -1.559865
    102          1           0       -2.942097   -4.450429   -0.923424
    103          1           0       -2.146626   -3.196766   -1.935473
    104          1           0       -3.824068   -1.889254    0.008030
    105          1           0       -5.771799   -3.888940   -3.234658
    106          1           0       -6.028045   -4.943940   -1.897508
    107          1           0       -4.412537   -4.738404   -2.528121
    108          1           0       -7.231392   -2.638480   -1.311579
    109          1           0       -6.404281   -1.376042   -0.437164
    110          1           0       -6.576471   -4.166751    0.756060
    111          1           0       -7.982864   -3.244115    0.451854
    112          1           0       -6.175781   -1.337538    1.678624
    113          1           0       -6.050633   -2.912975    2.558866
    114          1           0       -8.799895   -2.490072    2.439180
    115          1           0       -8.191839   -1.194060    4.656542
    116          1           0       -6.925737   -2.413090    4.669624
    117          1           0       -8.725214   -2.689394    4.645691
    118          1           0       -7.385921    0.195015    2.538834
    119          1           0       -9.128420   -0.041340    3.021401
    120          1           0       -9.947430   -0.279626    1.081481
    121          1           0       -8.519480   -0.964012    0.320136
    122          1           0       -7.200891    0.859617    0.282746
    123          1           0       -8.337140    1.933198    1.042167
    124          1           0       -9.962372    0.727329   -0.905076
    125          1           0       -8.756270    0.745622   -3.046808
    126          1           0       -7.438490    0.748415   -1.923662
    127          1           0       -7.826182    2.140012   -2.647759
    128          1           0      -10.027955    3.287923   -1.745193
    129          1           0       -9.251186    3.573715   -0.195376
    130          1           0      -11.264035    3.598887    0.791286
    131          1           0      -11.459884    1.906245    0.432354
    132          1           0      -12.111332    2.781435   -1.929294
    133          1           0      -12.404977    4.248023   -1.167120
    134          1           0      -13.683519    1.656693   -0.094548
    135          1           0      -14.818139    1.772591   -2.207596
    136          1           0      -14.871858    3.599865   -2.145338
    137          1           0      -15.859935    2.612444   -1.135991
    138          1           0      -13.568013    4.300300    1.055297
    139          1           0      -14.851317    3.208936    1.589706
    140          1           0      -15.163749    4.188595    0.223775
 ---------------------------------------------------------------------

 SCF Done:  E(RPBE1PBE) =  -3005.37740442     A.U. after   15 cycles

 Excitation energies and oscillator strengths:

 Excited State   1:      Singlet-A      1.8570 eV  667.65 nm  f=0.3764  <S**2>=0.000
     245 -> 248       -0.17293
     246 -> 247        0.69320
     246 <- 247       -0.11435
 This state for optimization and/or second-order correction.
 Total Energy, E(TD-HF/TD-DFT) =  -3005.30915999
 Copying the excited state density for this state as the 1-particle RhoCI density.

 Excited State   2:      Singlet-A      2.1796 eV  568.85 nm  f=0.1279  <S**2>=0.000
     245 -> 247        0.65837
     246 -> 248        0.24277

 Excited State   3:      Singlet-A      2.9217 eV  424.36 nm  f=0.0032  <S**2>=0.000
     243 -> 247        0.69077

 Excited State   4:      Singlet-A      2.9905 eV  414.60 nm  f=0.0002  <S**2>=0.000
     242 -> 247        0.67306
     242 -> 249        0.15559

 Excited State   5:      Singlet-A      3.0923 eV  400.95 nm  f=0.0004  <S**2>=0.000
     240 -> 247        0.66545
     240 -> 249       -0.13455
     241 -> 247       -0.14709

 The electronic state is 1-A.
 Alpha  occ. eigenvalues --  -46.92598 -19.27072 -19.24032 -19.20151 -19.19798
 Alpha  occ. eigenvalues --  -19.18955 -19.18805 -14.41819 -14.41728 -14.38909
 Alpha  occ. eigenvalues --  -14.38660 -10.37091 -10.35204 -10.32680 -10.31481
 Alpha  occ. eigenvalues --  -10.30015 -10.29085 -10.29070 -10.28985 -10.28294
 Alpha  occ. eigenvalues --  -10.27537 -10.27419 -10.27354 -10.26941 -10.26894
 Alpha  occ. eigenvalues --  -10.26396 -10.26373 -10.26342 -10.26081 -10.26076
 Alpha  occ. eigenvalues --  -10.25637 -10.25611 -10.25510 -10.25345 -10.25232
 Alpha  occ. eigenvalues --  -10.25019 -10.24815 -10.24778 -10.24613 -10.24554
 Alpha  occ. eigenvalues --  -10.24358 -10.24346 -10.24338 -10.24322 -10.23841
 Alpha  occ. eigenvalues --  -10.23759 -10.23705 -10.23575 -10.23566 -10.23549
 Alpha  occ. eigenvalues --  -10.23093 -10.23052 -10.23026 -10.22983 -10.22912
 Alpha  occ. eigenvalues --  -10.22830 -10.22792 -10.22639 -10.22595 -10.22571
 Alpha  occ. eigenvalues --  -10.22405 -10.22240 -10.22235 -10.22190 -10.21954
 Alpha  occ. eigenvalues --  -10.21651  -3.14620  -1.87475  -1.87035  -1.86805
 Alpha  occ. eigenvalues --   -1.12176  -1.09647  -1.05950  -1.05376  -1.01505
 Alpha  occ. eigenvalues --   -1.01342  -0.99818  -0.98519  -0.97705  -0.96780
 Alpha  occ. eigenvalues --   -0.86858  -0.84835  -0.83960  -0.83888  -0.83520
 Alpha  occ. eigenvalues --   -0.82946  -0.82644  -0.81558  -0.81366  -0.81069
 Alpha  occ. eigenvalues --   -0.80621  -0.79606  -0.78511  -0.77812  -0.77392
 Alpha  occ. eigenvalues --   -0.76873  -0.75825  -0.75280  -0.74441  -0.74356
 Alpha  occ. eigenvalues --   -0.73893  -0.72925  -0.72515  -0.71518  -0.70291
 Alpha  occ. eigenvalues --   -0.69976  -0.69351  -0.69188  -0.68730  -0.68411
 Alpha  occ. eigenvalues --   -0.67940  -0.67279  -0.65931  -0.65255  -0.64173
 Alpha  occ. eigenvalues --   -0.63211  -0.62393  -0.61607  -0.61309  -0.60067
 Alpha  occ. eigenvalues --   -0.59684  -0.59588  -0.59318  -0.58780  -0.58643
 Alpha  occ. eigenvalues --   -0.58476  -0.57677  -0.57224  -0.55501  -0.55186
 Alpha  occ. eigenvalues --   -0.54746  -0.54129  -0.53691  -0.53334  -0.52311
 Alpha  occ. eigenvalues --   -0.52007  -0.51371  -0.50767  -0.50446  -0.50400
 Alpha  occ. eigenvalues --   -0.49899  -0.49552  -0.49505  -0.49071  -0.48693
 Alpha  occ. eigenvalues --   -0.48171  -0.47896  -0.47796  -0.47187  -0.47045
 Alpha  occ. eigenvalues --   -0.46764  -0.46661  -0.46476  -0.46152  -0.46004
 Alpha  occ. eigenvalues --   -0.45825  -0.45610  -0.45556  -0.45370  -0.45268
 Alpha  occ. eigenvalues --   -0.44917  -0.44677  -0.44515  -0.44177  -0.44080
 Alpha  occ. eigenvalues --   -0.44005  -0.43770  -0.43675  -0.43552  -0.43450
 Alpha  occ. eigenvalues --   -0.43301  -0.43093  -0.42838  -0.42680  -0.42199
 Alpha  occ. eigenvalues --   -0.41988  -0.41849  -0.41525  -0.41327  -0.41060
 Alpha  occ. eigenvalues --   -0.40924  -0.40825  -0.40653  -0.40429  -0.40252
 Alpha  occ. eigenvalues --   -0.40124  -0.40083  -0.39958  -0.39886  -0.39590
 Alpha  occ. eigenvalues --   -0.39469  -0.39402  -0.39056  -0.38896  -0.38818
 Alpha  occ. eigenvalues --   -0.38544  -0.38438  -0.38309  -0.38148  -0.37932
 Alpha  occ. eigenvalues --   -0.37850  -0.37696  -0.37672  -0.37368  -0.37174
 Alpha  occ. eigenvalues --   -0.36919  -0.36548  -0.36512  -0.36434  -0.36090
 Alpha  occ. eigenvalues --   -0.35827  -0.35652  -0.35503  -0.35289  -0.34928
 Alpha  occ. eigenvalues --   -0.34811  -0.34676  -0.34544  -0.33736  -0.33600
 Alpha  occ. eigenvalues --   -0.33234  -0.33059  -0.32921  -0.32757  -0.32686
 Alpha  occ. eigenvalues --   -0.32311  -0.31966  -0.31854  -0.31546  -0.31384
 Alpha  occ. eigenvalues --   -0.30946  -0.30851  -0.29966  -0.29490  -0.29194
 Alpha  occ. eigenvalues --   -0.28988  -0.28791  -0.27953  -0.26825  -0.25873
 Alpha  occ. eigenvalues --   -0.25811  -0.25643  -0.25048  -0.24947  -0.20982
 Alpha  occ. eigenvalues --   -0.18890
 Alpha virt. eigenvalues --   -0.11415  -0.05138  -0.04018  -0.01761  -0.00974
 Alpha virt. eigenvalues --    0.00009   0.00123   0.01606   0.01974   0.02966
 Alpha virt. eigenvalues --    0.03994   0.05060   0.05258   0.05445   0.05628

 Mulliken charges:
               1
     1  Mg   0.966282
     2  C    0.048827
     3  C   -0.057541
     4  C   -0.041024
     5  C   -0.070860
     6  N   -0.350790
     7  C    0.007037
     8  C   -0.085106
     9  C   -0.139205
    10  C    0.061723
    11  C    0.005260
    12  C    0.037544
    13  C    0.035577
    14  C    0.202675
    15  O   -0.295681
    16  O   -0.347243
    17  N   -0.510856
    18  C    0.167278
    19  C   -0.167873
    20  C   -0.079179
    21  C    0.167588
    22  C    0.056031
    23  C    0.060240
    24  O   -0.221245
    25  C   -0.061562
    26  N   -0.404584
    27  C    0.047288
    28  C   -0.140264
    29  C   -0.023642
    30  C    0.074301
    31  C    0.007920
    32  C   -0.054729
    33  C   -0.058833
    34  N   -0.428639
    35  C    0.086024
    36  C   -0.157530
    37  C   -0.036020
    38  C    0.100489
    39  C    0.058281
    40  C    0.132213
    41  O   -0.187960
    42  C   -0.163558
    43  C    0.281392
    44  O   -0.248222
    45  O   -0.372094
    46  C    0.121658
    47  C    0.236167
    48  C   -0.155686
    49  C   -0.178004
    50  C   -0.005299
    51  C   -0.028170
    52  C   -0.036603
    53  C    0.045467
    54  C   -0.243198
    55  C    0.000015
    56  C   -0.003525
    57  C   -0.114665
    58  C   -0.012728
    59  C   -0.166770
    60  C   -0.023345
    61  C    0.030566
    62  C   -0.036051
    63  C   -0.048184
    64  C   -0.226625
    65  C   -0.047534
    66  C   -0.025413
    67  H   -0.002148
    68  H    0.026280
    69  H   -0.004711
    70  H    0.074158
    71  H    0.051521
    72  H    0.044459
    73  H    0.058817
    74  H    0.045697
    75  H    0.030394
    76  H    0.042272
    77  H    0.044726
    78  H    0.056657
    79  H    0.056374
    80  H    0.054110
    81  H    0.034329
    82  H    0.060852
    83  H    0.064218
    84  H    0.049979
    85  H    0.057622
    86  H    0.041654
    87  H    0.055262
    88  H    0.039279
    89  H    0.053818
    90  H    0.043416
    91  H    0.034930
    92  H    0.040527
    93  H    0.038406
    94  H    0.062895
    95  H    0.049027
    96  H    0.056359
    97  H    0.062115
    98  H    0.084258
    99  H    0.051380
   100  H    0.060206
   101  H    0.062484
   102  H    0.072533
   103  H    0.076691
   104  H    0.034698
   105  H    0.058507
   106  H    0.046063
   107  H    0.037519
   108  H    0.021960
   109  H    0.048953
   110  H    0.032271
   111  H    0.030692
   112  H    0.026413
   113  H    0.032727
   114  H    0.031476
   115  H    0.005365
   116  H    0.037836
   117  H    0.027322
   118  H    0.030549
   119  H    0.034985
   120  H    0.035712
   121  H    0.031769
   122  H    0.035017
   123  H    0.024057
   124  H    0.043469
   125  H    0.037483
   126  H    0.011951
   127  H    0.024692
   128  H    0.029985
   129  H    0.025512
   130  H    0.025782
   131  H    0.024211
   132  H    0.024979
   133  H    0.023899
   134  H    0.036480
   135  H    0.038465
   136  H    0.040431
   137  H    0.030136
   138  H    0.034307
   139  H    0.041405
   140  H    0.030278
 Sum of Mulliken charges =  -0.00000

 Dipole moment (field-independent basis, Debye):
    X=             -4.2773    Y=              3.2816    Z=              2.1102  Tot=              5.7894
 Quadrupole moment (field-independent basis, Debye-Ang):
   XX=           -361.1765   YY=           -441.2336   ZZ=           -401.8395
   XY=             27.3732   XZ=             12.3373   YZ=              0.8502

 Normal termination of Gaussian 16 at Sat Apr 30 05:36:15 2022.
