 Gaussian 16, Revision A.03,
 Gaussian 16:  ES64L-G16RevA.03 25-Dec-2016

 --------------------------------
 #p wB97XD/Def2SVP td=(nstates=5)
 --------------------------------

 ----------------------------------------------------
 step_601_chromophore_24 TDDFT with wB97XD functional
 ----------------------------------------------------
 Symbolic Z-matrix:
 Charge =  0 Multiplicity = 1

                         Standard orientation:
 ---------------------------------------------------------------------
 Center     Atomic      Atomic             Coordinates (Angstroms)
 Number     Number       Type             X           Y           Z
 ---------------------------------------------------------------------
      1         12           0        4.838985    1.089380    0.157264
      2          6           0        4.089068   -2.347454    0.080947
      3          6           0        1.335808    1.727799   -0.111170
      4          6           0        5.510773    4.190868   -0.199827
      5          6           0        8.232166    0.208982    0.103393
      6          7           0        2.906810   -0.160287    0.110599
      7          6           0        2.922495   -1.569802    0.087796
      8          6           0        1.504997   -2.086090    0.125602
      9          6           0        0.573142   -0.795498   -0.157815
     10          6           0        1.688870    0.344495   -0.093821
     11          6           0       -0.142438   -0.763189   -1.562151
     12          6           0        1.255204   -2.713842    1.503105
     13          6           0        0.017116   -3.632094    1.750310
     14          6           0       -0.817427   -4.103442    0.546369
     15          8           0       -0.631182   -5.122714   -0.162463
     16          8           0       -1.687848   -3.142360    0.203164
     17          7           0        3.552332    2.724160   -0.029725
     18          6           0        2.179302    2.817773    0.030374
     19          6           0        1.828286    4.226144    0.064372
     20          6           0        3.121778    4.949671   -0.071885
     21          6           0        4.113137    3.968737   -0.151491
     22          6           0        0.442053    4.776234    0.104947
     23          6           0        3.371120    6.456020   -0.177301
     24          8           0        4.433068    7.034658   -0.197159
     25          6           0        2.099575    7.372021   -0.256909
     26          7           0        6.662792    1.984467   -0.178570
     27          6           0        6.661403    3.359405   -0.214632
     28          6           0        8.075040    3.954753   -0.164913
     29          6           0        8.936058    2.661276   -0.003076
     30          6           0        7.893813    1.555080   -0.002247
     31          6           0        8.322770    4.771404   -1.468348
     32          6           0        9.810321    2.684923    1.207198
     33          6           0        9.135424    2.568598    2.583200
     34          7           0        5.964387   -0.720682    0.202720
     35          6           0        7.341290   -0.912637    0.177934
     36          6           0        7.684276   -2.324987    0.186182
     37          6           0        6.418827   -2.974564    0.123066
     38          6           0        5.436490   -1.925137    0.151210
     39          6           0        9.057811   -2.860978    0.114671
     40          6           0        5.771839   -4.233228    0.019743
     41          8           0        6.160425   -5.369966   -0.014954
     42          6           0        4.252302   -3.851544    0.064996
     43          6           0        3.526251   -4.526866   -1.094833
     44          8           0        3.516116   -4.066925   -2.207617
     45          8           0        2.814166   -5.663772   -0.753217
     46          6           0        2.076128   -6.301716   -1.857762
     47          6           0       -2.555405   -3.431548   -0.952471
     48          6           0       -3.883402   -2.738736   -0.671504
     49          6           0       -5.117017   -3.076954   -1.228032
     50          6           0       -5.330889   -4.202529   -2.288585
     51          6           0       -6.400664   -2.448043   -0.631795
     52          6           0       -6.916552   -3.136158    0.651906
     53          6           0       -6.657621   -2.289257    1.903247
     54          6           0       -7.916206   -1.896357    2.675578
     55          6           0       -7.882501   -2.144551    4.221750
     56          6           0       -8.292061   -0.398592    2.421221
     57          6           0       -8.863289   -0.192050    1.007969
     58          6           0       -8.261151    1.104381    0.338933
     59          6           0       -9.169208    1.474298   -0.873198
     60          6           0       -8.341887    1.291100   -2.199299
     61          6           0       -9.848629    2.858108   -0.760058
     62          6           0      -11.198105    2.866347   -0.013158
     63          6           0      -12.352039    3.181623   -0.944825
     64          6           0      -13.753897    2.695169   -0.417188
     65          6           0      -14.866570    2.665364   -1.584281
     66          6           0      -14.362345    3.636180    0.713926
     67          1           0        0.272446    1.976388   -0.128805
     68          1           0        5.769752    5.248104   -0.116718
     69          1           0        9.270427   -0.127614    0.139617
     70          1           0        1.342659   -2.733828   -0.736113
     71          1           0       -0.133123   -0.602657    0.648573
     72          1           0       -1.167953   -0.457300   -1.354275
     73          1           0       -0.048148   -1.679764   -2.144668
     74          1           0        0.227398    0.038916   -2.200346
     75          1           0        1.189767   -1.929757    2.256326
     76          1           0        2.163458   -3.212882    1.841959
     77          1           0       -0.625090   -3.142220    2.482092
     78          1           0        0.222698   -4.564171    2.275052
     79          1           0        0.173415    5.431643   -0.723356
     80          1           0        0.298163    5.392704    0.993428
     81          1           0       -0.302997    3.982809    0.161255
     82          1           0        1.399839    7.313782    0.577066
     83          1           0        1.632512    7.203125   -1.227191
     84          1           0        2.574676    8.352311   -0.269237
     85          1           0        8.222892    4.653494    0.658399
     86          1           0        9.539216    2.507160   -0.897800
     87          1           0        7.514760    4.490171   -2.143916
     88          1           0        9.309457    4.508906   -1.851274
     89          1           0        8.279201    5.854761   -1.358688
     90          1           0       10.455224    3.563194    1.200184
     91          1           0       10.430792    1.791908    1.130807
     92          1           0        9.619345    3.302693    3.227963
     93          1           0        9.455491    1.612281    2.997465
     94          1           0        8.046248    2.612250    2.552009
     95          1           0        9.747788   -2.468472    0.861796
     96          1           0        9.505438   -2.606245   -0.845576
     97          1           0        9.055668   -3.949878    0.156598
     98          1           0        3.877543   -4.230172    1.016061
     99          1           0        2.734939   -7.076952   -2.248115
    100          1           0        1.747724   -5.585318   -2.611269
    101          1           0        1.182346   -6.850014   -1.559865
    102          1           0       -2.942097   -4.450429   -0.923424
    103          1           0       -2.146626   -3.196766   -1.935473
    104          1           0       -3.824068   -1.889254    0.008030
    105          1           0       -5.771799   -3.888940   -3.234658
    106          1           0       -6.028045   -4.943940   -1.897508
    107          1           0       -4.412537   -4.738404   -2.528121
    108          1           0       -7.231392   -2.638480   -1.311579
    109          1           0       -6.404281   -1.376042   -0.437164
    110          1           0       -6.576471   -4.166751    0.756060
    111          1           0       -7.982864   -3.244115    0.451854
    112          1           0       -6.175781   -1.337538    1.678624
    113          1           0       -6.050633   -2.912975    2.558866
    114          1           0       -8.799895   -2.490072    2.439180
    115          1           0       -8.191839   -1.194060    4.656542
    116          1           0       -6.925737   -2.413090    4.669624
    117          1           0       -8.725214   -2.689394    4.645691
    118          1           0       -7.385921    0.195015    2.538834
    119          1           0       -9.128420   -0.041340    3.021401
    120          1           0       -9.947430   -0.279626    1.081481
    121          1           0       -8.519480   -0.964012    0.320136
    122          1           0       -7.200891    0.859617    0.282746
    123          1           0       -8.337140    1.933198    1.042167
    124          1           0       -9.962372    0.727329   -0.905076
    125          1           0       -8.756270    0.745622   -3.046808
    126          1           0       -7.438490    0.748415   -1.923662
    127          1           0       -7.826182    2.140012   -2.647759
    128          1           0      -10.027955    3.287923   -1.745193
    129          1           0       -9.251186    3.573715   -0.195376
    130          1           0      -11.264035    3.598887    0.791286
    131          1           0      -11.459884    1.906245    0.432354
    132          1           0      -12.111332    2.781435   -1.929294
    133          1           0      -12.404977    4.248023   -1.167120
    134          1           0      -13.683519    1.656693   -0.094548
    135          1           0      -14.818139    1.772591   -2.207596
    136          1           0      -14.871858    3.599865   -2.145338
    137          1           0      -15.859935    2.612444   -1.135991
    138          1           0      -13.568013    4.300300    1.055297
    139          1           0      -14.851317    3.208936    1.589706
    140          1           0      -15.163749    4.188595    0.223775
 ---------------------------------------------------------------------

 SCF Done:  E(RwB97XD) =  -3007.89089324     A.U. after   19 cycles

 Excitation energies and oscillator strengths:

 Excited State   1:      Singlet-A      1.6402 eV  755.89 nm  f=0.3964  <S**2>=0.000
     245 -> 248       -0.18292
     246 -> 247        0.68254
     245 <- 248       -0.11602
 This state for optimization and/or second-order correction.
 Total Energy, E(TD-HF/TD-DFT) =  -3007.83061566
 Copying the excited state density for this state as the 1-particle RhoCI density.

 Excited State   2:      Singlet-A      2.1140 eV  586.49 nm  f=0.1268  <S**2>=0.000
     245 -> 247        0.64442
     246 -> 248        0.27210

 Excited State   3:      Singlet-A      3.2296 eV  383.90 nm  f=0.0010  <S**2>=0.000
     243 -> 247       -0.25696
     244 -> 247        0.62613
     246 -> 248       -0.13538

 Excited State   4:      Singlet-A      3.5123 eV  353.00 nm  f=0.2371  <S**2>=0.000
     241 -> 247       -0.12971
     242 -> 247       -0.45711
     244 -> 247        0.10172
     245 -> 247       -0.16003
     246 -> 248        0.46521

 Excited State   5:      Singlet-A      3.5830 eV  346.04 nm  f=0.0005  <S**2>=0.000
     241 -> 247        0.54903
     241 -> 249       -0.30759
     241 -> 250       -0.19579
     242 -> 247       -0.16715

 The electronic state is 1-A.
 Alpha  occ. eigenvalues --  -46.95534 -19.31628 -19.28573 -19.24784 -19.24696
 Alpha  occ. eigenvalues --  -19.23705 -19.23492 -14.46962 -14.46780 -14.43801
 Alpha  occ. eigenvalues --  -14.43618 -10.43849 -10.42012 -10.39613 -10.38304
 Alpha  occ. eigenvalues --  -10.36532 -10.35461 -10.35347 -10.35281 -10.34455
 Alpha  occ. eigenvalues --  -10.34028 -10.33854 -10.33590 -10.33553 -10.33372
 Alpha  occ. eigenvalues --  -10.32690 -10.32674 -10.32574 -10.32404 -10.32331
 Alpha  occ. eigenvalues --  -10.31962 -10.31958 -10.31918 -10.31619 -10.31565
 Alpha  occ. eigenvalues --  -10.31335 -10.31293 -10.31240 -10.31195 -10.30836
 Alpha  occ. eigenvalues --  -10.30779 -10.30749 -10.30674 -10.30642 -10.30222
 Alpha  occ. eigenvalues --  -10.30151 -10.29980 -10.29974 -10.29936 -10.29835
 Alpha  occ. eigenvalues --  -10.29585 -10.29468 -10.29417 -10.29384 -10.29190
 Alpha  occ. eigenvalues --  -10.29189 -10.29168 -10.29025 -10.28974 -10.28930
 Alpha  occ. eigenvalues --  -10.28792 -10.28675 -10.28631 -10.28616 -10.28389
 Alpha  occ. eigenvalues --  -10.28064  -3.21425  -1.95026  -1.94587  -1.94357
 Alpha  occ. eigenvalues --   -1.19542  -1.17020  -1.13516  -1.12785  -1.08841
 Alpha  occ. eigenvalues --   -1.08678  -1.07153  -1.05795  -1.05146  -1.04211
 Alpha  occ. eigenvalues --   -0.94436  -0.92521  -0.91569  -0.91487  -0.91178
 Alpha  occ. eigenvalues --   -0.90581  -0.90316  -0.89112  -0.88990  -0.88753
 Alpha  occ. eigenvalues --   -0.88408  -0.87263  -0.86172  -0.85434  -0.84981
 Alpha  occ. eigenvalues --   -0.84531  -0.83461  -0.82948  -0.82209  -0.82083
 Alpha  occ. eigenvalues --   -0.81513  -0.80588  -0.80213  -0.79122  -0.77963
 Alpha  occ. eigenvalues --   -0.77568  -0.76925  -0.76878  -0.76450  -0.76075
 Alpha  occ. eigenvalues --   -0.75560  -0.74806  -0.73478  -0.72867  -0.71723
 Alpha  occ. eigenvalues --   -0.70720  -0.70022  -0.69225  -0.68937  -0.67618
 Alpha  occ. eigenvalues --   -0.67310  -0.67043  -0.66777  -0.66418  -0.66190
 Alpha  occ. eigenvalues --   -0.65889  -0.65342  -0.64859  -0.62896  -0.62716
 Alpha  occ. eigenvalues --   -0.62274  -0.61501  -0.61069  -0.60727  -0.59712
 Alpha  occ. eigenvalues --   -0.59524  -0.58773  -0.58185  -0.57879  -0.57836
 Alpha  occ. eigenvalues --   -0.57380  -0.56970  -0.56896  -0.56475  -0.56182
 Alpha  occ. eigenvalues --   -0.55563  -0.55218  -0.55185  -0.54481  -0.54377
 Alpha  occ. eigenvalues --   -0.54281  -0.54091  -0.53993  -0.53536  -0.53342
 Alpha  occ. eigenvalues --   -0.53192  -0.52946  -0.52821  -0.52711  -0.52646
 Alpha  occ. eigenvalues --   -0.52262  -0.51988  -0.51860  -0.51653  -0.51448
 Alpha  occ. eigenvalues --   -0.51297  -0.51217  -0.50966  -0.50837  -0.50789
 Alpha  occ. eigenvalues --   -0.50622  -0.50408  -0.50185  -0.49984  -0.49474
 Alpha  occ. eigenvalues --   -0.49247  -0.49152  -0.48757  -0.48503  -0.48219
 Alpha  occ. eigenvalues --   -0.48112  -0.48037  -0.47826  -0.47615  -0.47453
 Alpha  occ. eigenvalues --   -0.47321  -0.47277  -0.47110  -0.47014  -0.46808
 Alpha  occ. eigenvalues --   -0.46657  -0.46575  -0.46226  -0.46086  -0.46031
 Alpha  occ. eigenvalues --   -0.45700  -0.45618  -0.45419  -0.45323  -0.45144
 Alpha  occ. eigenvalues --   -0.44981  -0.44886  -0.44704  -0.44535  -0.44284
 Alpha  occ. eigenvalues --   -0.43985  -0.43645  -0.43555  -0.43444  -0.43259
 Alpha  occ. eigenvalues --   -0.42942  -0.42715  -0.42471  -0.42370  -0.42027
 Alpha  occ. eigenvalues --   -0.41917  -0.41666  -0.41624  -0.40785  -0.40564
 Alpha  occ. eigenvalues --   -0.40242  -0.40038  -0.39967  -0.39812  -0.39591
 Alpha  occ. eigenvalues --   -0.39357  -0.39054  -0.38873  -0.38568  -0.38211
 Alpha  occ. eigenvalues --   -0.37912  -0.37788  -0.37035  -0.36280  -0.36039
 Alpha  occ. eigenvalues --   -0.35910  -0.35704  -0.34989  -0.33383  -0.33066
 Alpha  occ. eigenvalues --   -0.32675  -0.32240  -0.31690  -0.31677  -0.25961
 Alpha  occ. eigenvalues --   -0.23024
 Alpha virt. eigenvalues --   -0.07381   0.00302   0.02231   0.04724   0.05797
 Alpha virt. eigenvalues --    0.05989   0.06797   0.08305   0.08778   0.09258
 Alpha virt. eigenvalues --    0.10583   0.11875   0.12065   0.12137   0.12327

 Mulliken charges:
               1
     1  Mg   0.956812
     2  C    0.048777
     3  C   -0.074244
     4  C   -0.062183
     5  C   -0.089746
     6  N   -0.316353
     7  C   -0.020575
     8  C   -0.055080
     9  C   -0.119898
    10  C    0.047361
    11  C    0.015395
    12  C    0.047643
    13  C    0.048963
    14  C    0.191037
    15  O   -0.292635
    16  O   -0.344623
    17  N   -0.479540
    18  C    0.159888
    19  C   -0.156079
    20  C   -0.074306
    21  C    0.160260
    22  C    0.068055
    23  C    0.056385
    24  O   -0.215154
    25  C   -0.047581
    26  N   -0.369878
    27  C    0.044880
    28  C   -0.122654
    29  C    0.002579
    30  C    0.059428
    31  C    0.018341
    32  C   -0.039103
    33  C   -0.042552
    34  N   -0.389321
    35  C    0.076989
    36  C   -0.155393
    37  C   -0.034305
    38  C    0.080780
    39  C    0.065184
    40  C    0.116241
    41  O   -0.178318
    42  C   -0.124680
    43  C    0.257814
    44  O   -0.243283
    45  O   -0.370012
    46  C    0.136446
    47  C    0.248905
    48  C   -0.165196
    49  C   -0.163678
    50  C    0.008436
    51  C    0.002693
    52  C   -0.024647
    53  C    0.062690
    54  C   -0.214146
    55  C    0.010738
    56  C    0.015571
    57  C   -0.086876
    58  C    0.003295
    59  C   -0.135660
    60  C   -0.010295
    61  C    0.045755
    62  C   -0.018457
    63  C   -0.033273
    64  C   -0.200350
    65  C   -0.032132
    66  C   -0.012732
    67  H   -0.008583
    68  H    0.019936
    69  H   -0.011326
    70  H    0.058258
    71  H    0.042867
    72  H    0.038456
    73  H    0.053553
    74  H    0.039882
    75  H    0.023230
    76  H    0.030396
    77  H    0.039692
    78  H    0.052323
    79  H    0.051531
    80  H    0.048751
    81  H    0.030587
    82  H    0.055852
    83  H    0.058746
    84  H    0.048234
    85  H    0.049002
    86  H    0.032308
    87  H    0.047729
    88  H    0.033504
    89  H    0.049249
    90  H    0.035771
    91  H    0.025773
    92  H    0.035556
    93  H    0.032784
    94  H    0.053479
    95  H    0.044115
    96  H    0.050991
    97  H    0.058993
    98  H    0.075854
    99  H    0.047372
   100  H    0.056201
   101  H    0.059769
   102  H    0.064221
   103  H    0.072937
   104  H    0.031415
   105  H    0.053817
   106  H    0.039857
   107  H    0.032273
   108  H    0.014064
   109  H    0.029825
   110  H    0.025399
   111  H    0.021775
   112  H    0.012733
   113  H    0.025051
   114  H    0.018815
   115  H   -0.002468
   116  H    0.032969
   117  H    0.022437
   118  H    0.019664
   119  H    0.026793
   120  H    0.027735
   121  H    0.006772
   122  H    0.024137
   123  H    0.013119
   124  H    0.029248
   125  H    0.033011
   126  H    0.002697
   127  H    0.019073
   128  H    0.020856
   129  H    0.017956
   130  H    0.017666
   131  H    0.010745
   132  H    0.014652
   133  H    0.014667
   134  H    0.026324
   135  H    0.033318
   136  H    0.033342
   137  H    0.022835
   138  H    0.027089
   139  H    0.037000
   140  H    0.022937
 Sum of Mulliken charges =  -0.00000

 Dipole moment (field-independent basis, Debye):
    X=             -4.5593    Y=              3.5770    Z=              2.1197  Tot=              6.1705
 Quadrupole moment (field-independent basis, Debye-Ang):
   XX=           -363.7973   YY=           -439.2977   ZZ=           -401.3652
   XY=             27.5864   XZ=             12.4826   YZ=              0.7555

 Normal termination of Gaussian 16 at Sat Apr 30 06:06:02 2022.
