 Gaussian 16, Revision A.03,
 Gaussian 16:  ES64L-G16RevA.03 25-Dec-2016

 --------------------
 #p ZINDO=(nstates=5)
 --------------------

 -----------------------------
 step_601_chromophore_24 ZINDO
 -----------------------------
 Symbolic Z-matrix:
 Charge =  0 Multiplicity = 1

                         Standard orientation:
 ---------------------------------------------------------------------
 Center     Atomic      Atomic             Coordinates (Angstroms)
 Number     Number       Type             X           Y           Z
 ---------------------------------------------------------------------
      1         12           0        4.838985    1.089380    0.157264
      2          6           0        4.089068   -2.347454    0.080947
      3          6           0        1.335808    1.727799   -0.111170
      4          6           0        5.510773    4.190868   -0.199827
      5          6           0        8.232166    0.208982    0.103393
      6          7           0        2.906810   -0.160287    0.110599
      7          6           0        2.922495   -1.569802    0.087796
      8          6           0        1.504997   -2.086090    0.125602
      9          6           0        0.573142   -0.795498   -0.157815
     10          6           0        1.688870    0.344495   -0.093821
     11          6           0       -0.142438   -0.763189   -1.562151
     12          6           0        1.255204   -2.713842    1.503105
     13          6           0        0.017116   -3.632094    1.750310
     14          6           0       -0.817427   -4.103442    0.546369
     15          8           0       -0.631182   -5.122714   -0.162463
     16          8           0       -1.687848   -3.142360    0.203164
     17          7           0        3.552332    2.724160   -0.029725
     18          6           0        2.179302    2.817773    0.030374
     19          6           0        1.828286    4.226144    0.064372
     20          6           0        3.121778    4.949671   -0.071885
     21          6           0        4.113137    3.968737   -0.151491
     22          6           0        0.442053    4.776234    0.104947
     23          6           0        3.371120    6.456020   -0.177301
     24          8           0        4.433068    7.034658   -0.197159
     25          6           0        2.099575    7.372021   -0.256909
     26          7           0        6.662792    1.984467   -0.178570
     27          6           0        6.661403    3.359405   -0.214632
     28          6           0        8.075040    3.954753   -0.164913
     29          6           0        8.936058    2.661276   -0.003076
     30          6           0        7.893813    1.555080   -0.002247
     31          6           0        8.322770    4.771404   -1.468348
     32          6           0        9.810321    2.684923    1.207198
     33          6           0        9.135424    2.568598    2.583200
     34          7           0        5.964387   -0.720682    0.202720
     35          6           0        7.341290   -0.912637    0.177934
     36          6           0        7.684276   -2.324987    0.186182
     37          6           0        6.418827   -2.974564    0.123066
     38          6           0        5.436490   -1.925137    0.151210
     39          6           0        9.057811   -2.860978    0.114671
     40          6           0        5.771839   -4.233228    0.019743
     41          8           0        6.160425   -5.369966   -0.014954
     42          6           0        4.252302   -3.851544    0.064996
     43          6           0        3.526251   -4.526866   -1.094833
     44          8           0        3.516116   -4.066925   -2.207617
     45          8           0        2.814166   -5.663772   -0.753217
     46          6           0        2.076128   -6.301716   -1.857762
     47          6           0       -2.555405   -3.431548   -0.952471
     48          6           0       -3.883402   -2.738736   -0.671504
     49          6           0       -5.117017   -3.076954   -1.228032
     50          6           0       -5.330889   -4.202529   -2.288585
     51          6           0       -6.400664   -2.448043   -0.631795
     52          6           0       -6.916552   -3.136158    0.651906
     53          6           0       -6.657621   -2.289257    1.903247
     54          6           0       -7.916206   -1.896357    2.675578
     55          6           0       -7.882501   -2.144551    4.221750
     56          6           0       -8.292061   -0.398592    2.421221
     57          6           0       -8.863289   -0.192050    1.007969
     58          6           0       -8.261151    1.104381    0.338933
     59          6           0       -9.169208    1.474298   -0.873198
     60          6           0       -8.341887    1.291100   -2.199299
     61          6           0       -9.848629    2.858108   -0.760058
     62          6           0      -11.198105    2.866347   -0.013158
     63          6           0      -12.352039    3.181623   -0.944825
     64          6           0      -13.753897    2.695169   -0.417188
     65          6           0      -14.866570    2.665364   -1.584281
     66          6           0      -14.362345    3.636180    0.713926
     67          1           0        0.272446    1.976388   -0.128805
     68          1           0        5.769752    5.248104   -0.116718
     69          1           0        9.270427   -0.127614    0.139617
     70          1           0        1.342659   -2.733828   -0.736113
     71          1           0       -0.133123   -0.602657    0.648573
     72          1           0       -1.167953   -0.457300   -1.354275
     73          1           0       -0.048148   -1.679764   -2.144668
     74          1           0        0.227398    0.038916   -2.200346
     75          1           0        1.189767   -1.929757    2.256326
     76          1           0        2.163458   -3.212882    1.841959
     77          1           0       -0.625090   -3.142220    2.482092
     78          1           0        0.222698   -4.564171    2.275052
     79          1           0        0.173415    5.431643   -0.723356
     80          1           0        0.298163    5.392704    0.993428
     81          1           0       -0.302997    3.982809    0.161255
     82          1           0        1.399839    7.313782    0.577066
     83          1           0        1.632512    7.203125   -1.227191
     84          1           0        2.574676    8.352311   -0.269237
     85          1           0        8.222892    4.653494    0.658399
     86          1           0        9.539216    2.507160   -0.897800
     87          1           0        7.514760    4.490171   -2.143916
     88          1           0        9.309457    4.508906   -1.851274
     89          1           0        8.279201    5.854761   -1.358688
     90          1           0       10.455224    3.563194    1.200184
     91          1           0       10.430792    1.791908    1.130807
     92          1           0        9.619345    3.302693    3.227963
     93          1           0        9.455491    1.612281    2.997465
     94          1           0        8.046248    2.612250    2.552009
     95          1           0        9.747788   -2.468472    0.861796
     96          1           0        9.505438   -2.606245   -0.845576
     97          1           0        9.055668   -3.949878    0.156598
     98          1           0        3.877543   -4.230172    1.016061
     99          1           0        2.734939   -7.076952   -2.248115
    100          1           0        1.747724   -5.585318   -2.611269
    101          1           0        1.182346   -6.850014   -1.559865
    102          1           0       -2.942097   -4.450429   -0.923424
    103          1           0       -2.146626   -3.196766   -1.935473
    104          1           0       -3.824068   -1.889254    0.008030
    105          1           0       -5.771799   -3.888940   -3.234658
    106          1           0       -6.028045   -4.943940   -1.897508
    107          1           0       -4.412537   -4.738404   -2.528121
    108          1           0       -7.231392   -2.638480   -1.311579
    109          1           0       -6.404281   -1.376042   -0.437164
    110          1           0       -6.576471   -4.166751    0.756060
    111          1           0       -7.982864   -3.244115    0.451854
    112          1           0       -6.175781   -1.337538    1.678624
    113          1           0       -6.050633   -2.912975    2.558866
    114          1           0       -8.799895   -2.490072    2.439180
    115          1           0       -8.191839   -1.194060    4.656542
    116          1           0       -6.925737   -2.413090    4.669624
    117          1           0       -8.725214   -2.689394    4.645691
    118          1           0       -7.385921    0.195015    2.538834
    119          1           0       -9.128420   -0.041340    3.021401
    120          1           0       -9.947430   -0.279626    1.081481
    121          1           0       -8.519480   -0.964012    0.320136
    122          1           0       -7.200891    0.859617    0.282746
    123          1           0       -8.337140    1.933198    1.042167
    124          1           0       -9.962372    0.727329   -0.905076
    125          1           0       -8.756270    0.745622   -3.046808
    126          1           0       -7.438490    0.748415   -1.923662
    127          1           0       -7.826182    2.140012   -2.647759
    128          1           0      -10.027955    3.287923   -1.745193
    129          1           0       -9.251186    3.573715   -0.195376
    130          1           0      -11.264035    3.598887    0.791286
    131          1           0      -11.459884    1.906245    0.432354
    132          1           0      -12.111332    2.781435   -1.929294
    133          1           0      -12.404977    4.248023   -1.167120
    134          1           0      -13.683519    1.656693   -0.094548
    135          1           0      -14.818139    1.772591   -2.207596
    136          1           0      -14.871858    3.599865   -2.145338
    137          1           0      -15.859935    2.612444   -1.135991
    138          1           0      -13.568013    4.300300    1.055297
    139          1           0      -14.851317    3.208936    1.589706
    140          1           0      -15.163749    4.188595    0.223775
 ---------------------------------------------------------------------

 SCF Done:  E(RZINDO/S) =  -474.192915724     A.U. after   19 cycles

 Excitation energies and oscillator strengths:

 Excited State   1:      Singlet-A      1.2289 eV 1008.88 nm  f=0.6303  <S**2>=0.000
     175 ->178        -0.19497
     176 ->177         0.66005
 This state for optimization and/or second-order correction.
 Total Energy, E(CIS/TDA) =  -474.147753442
 Copying the excited state density for this state as the 1-particle RhoCI density.

 Excited State   2:      Singlet-A      1.8925 eV  655.12 nm  f=0.0650  <S**2>=0.000
     175 ->177         0.55912
     176 ->178         0.40413

 Excited State   3:      Singlet-A      2.9535 eV  419.79 nm  f=0.6310  <S**2>=0.000
     171 ->177        -0.10368
     175 ->177        -0.29477
     176 ->178         0.47060
     176 ->179         0.36780
     176 ->181        -0.10271

 Excited State   4:      Singlet-A      3.0213 eV  410.36 nm  f=0.0457  <S**2>=0.000
     168 ->177        -0.11493
     168 ->179         0.18683
     168 ->181         0.13386
     168 ->186         0.13418
     169 ->177         0.15140
     169 ->179         0.24390
     169 ->181        -0.12739
     169 ->186         0.12591
     170 ->177         0.27111
     170 ->178         0.12622
     170 ->179         0.14676
     170 ->181        -0.24401
     170 ->187         0.11024
     176 ->179         0.12520

 Excited State   5:      Singlet-A      3.0311 eV  409.03 nm  f=0.0077  <S**2>=0.000
     168 ->177         0.22784
     168 ->179        -0.27262
     168 ->181        -0.26293
     168 ->186        -0.19899
     169 ->177         0.19962
     169 ->181        -0.19155
     170 ->179         0.22951
     170 ->186         0.13125

 The electronic state is 1-A.
 Alpha  occ. eigenvalues --   -1.84622  -1.81821  -1.79671  -1.74076  -1.70974
 Alpha  occ. eigenvalues --   -1.70095  -1.66746  -1.60251  -1.59444  -1.59236
 Alpha  occ. eigenvalues --   -1.52304  -1.49531  -1.48862  -1.48316  -1.45691
 Alpha  occ. eigenvalues --   -1.43361  -1.42818  -1.40640  -1.38626  -1.37677
 Alpha  occ. eigenvalues --   -1.35889  -1.34244  -1.34089  -1.32176  -1.29107
 Alpha  occ. eigenvalues --   -1.28079  -1.24474  -1.22153  -1.19929  -1.18595
 Alpha  occ. eigenvalues --   -1.17127  -1.14049  -1.13953  -1.13766  -1.13662
 Alpha  occ. eigenvalues --   -1.12686  -1.11449  -1.09619  -1.04708  -1.03922
 Alpha  occ. eigenvalues --   -1.03543  -1.01489  -0.99296  -0.97923  -0.97042
 Alpha  occ. eigenvalues --   -0.95642  -0.95164  -0.94355  -0.93651  -0.92501
 Alpha  occ. eigenvalues --   -0.91436  -0.90521  -0.89197  -0.87466  -0.86516
 Alpha  occ. eigenvalues --   -0.85968  -0.85303  -0.82771  -0.81946  -0.81767
 Alpha  occ. eigenvalues --   -0.80806  -0.78388  -0.78056  -0.76915  -0.76669
 Alpha  occ. eigenvalues --   -0.75983  -0.75084  -0.74885  -0.74498  -0.73376
 Alpha  occ. eigenvalues --   -0.72704  -0.72475  -0.72015  -0.71092  -0.70534
 Alpha  occ. eigenvalues --   -0.70317  -0.69134  -0.68995  -0.68539  -0.68295
 Alpha  occ. eigenvalues --   -0.66713  -0.66568  -0.65914  -0.65755  -0.65241
 Alpha  occ. eigenvalues --   -0.64883  -0.64665  -0.64331  -0.64017  -0.63549
 Alpha  occ. eigenvalues --   -0.63098  -0.62592  -0.62520  -0.62166  -0.61882
 Alpha  occ. eigenvalues --   -0.61376  -0.60745  -0.60344  -0.60077  -0.59970
 Alpha  occ. eigenvalues --   -0.59297  -0.59060  -0.58889  -0.57933  -0.57820
 Alpha  occ. eigenvalues --   -0.57800  -0.57622  -0.57247  -0.56667  -0.56275
 Alpha  occ. eigenvalues --   -0.56149  -0.55841  -0.55722  -0.54816  -0.54778
 Alpha  occ. eigenvalues --   -0.54090  -0.54066  -0.53496  -0.53057  -0.52792
 Alpha  occ. eigenvalues --   -0.52572  -0.52320  -0.51952  -0.51597  -0.51338
 Alpha  occ. eigenvalues --   -0.51150  -0.50862  -0.50602  -0.50548  -0.50287
 Alpha  occ. eigenvalues --   -0.50150  -0.49896  -0.49638  -0.49382  -0.49195
 Alpha  occ. eigenvalues --   -0.49002  -0.48645  -0.48437  -0.48377  -0.48235
 Alpha  occ. eigenvalues --   -0.48022  -0.47926  -0.47650  -0.47088  -0.46756
 Alpha  occ. eigenvalues --   -0.46355  -0.46033  -0.45870  -0.45468  -0.45328
 Alpha  occ. eigenvalues --   -0.45269  -0.45073  -0.44641  -0.44511  -0.44326
 Alpha  occ. eigenvalues --   -0.43795  -0.43743  -0.43567  -0.42866  -0.42155
 Alpha  occ. eigenvalues --   -0.41821  -0.41769  -0.41030  -0.39156  -0.38797
 Alpha  occ. eigenvalues --   -0.37698  -0.37100  -0.35184  -0.34832  -0.34637
 Alpha  occ. eigenvalues --   -0.32890  -0.32445  -0.32039  -0.31817  -0.26471
 Alpha  occ. eigenvalues --   -0.21739
 Alpha virt. eigenvalues --   -0.08750  -0.02018  -0.00444   0.00881   0.01627
 Alpha virt. eigenvalues --    0.02649   0.03077   0.03481   0.03603   0.04967
 Alpha virt. eigenvalues --    0.06454   0.06694   0.07274   0.07623   0.08176

 Mulliken charges:
               1
     1  Mg   0.430758
     2  C   -0.038648
     3  C   -0.077265
     4  C   -0.073257
     5  C   -0.076750
     6  N   -0.284258
     7  C    0.115994
     8  C    0.014868
     9  C   -0.010596
    10  C    0.141725
    11  C   -0.051133
    12  C   -0.008230
    13  C    0.003446
    14  C    0.468519
    15  O   -0.530548
    16  O   -0.257122
    17  N   -0.345482
    18  C    0.116841
    19  C   -0.001440
    20  C   -0.053770
    21  C    0.145251
    22  C   -0.036662
    23  C    0.323451
    24  O   -0.507094
    25  C   -0.045419
    26  N   -0.253059
    27  C    0.131762
    28  C   -0.000056
    29  C    0.011684
    30  C    0.138666
    31  C   -0.053852
    32  C   -0.022918
    33  C   -0.057330
    34  N   -0.316379
    35  C    0.079138
    36  C    0.037142
    37  C   -0.063346
    38  C    0.123226
    39  C   -0.031145
    40  C    0.343253
    41  O   -0.512999
    42  C    0.055226
    43  C    0.484032
    44  O   -0.520461
    45  O   -0.267832
    46  C    0.075632
    47  C    0.099205
    48  C   -0.092717
    49  C   -0.021499
    50  C   -0.042078
    51  C   -0.024719
    52  C   -0.029470
    53  C   -0.024208
    54  C   -0.012464
    55  C   -0.076540
    56  C   -0.039737
    57  C   -0.052924
    58  C   -0.038646
    59  C    0.002184
    60  C   -0.072132
    61  C   -0.028099
    62  C   -0.036236
    63  C   -0.030167
    64  C   -0.018031
    65  C   -0.066531
    66  C   -0.062540
    67  H    0.024389
    68  H    0.041198
    69  H    0.024291
    70  H    0.048835
    71  H    0.035700
    72  H    0.017823
    73  H    0.035836
    74  H    0.021869
    75  H    0.020557
    76  H    0.025576
    77  H    0.030008
    78  H    0.036645
    79  H    0.032129
    80  H    0.027562
    81  H    0.020343
    82  H    0.040272
    83  H    0.036921
    84  H    0.031773
    85  H    0.036721
    86  H    0.029001
    87  H    0.027480
    88  H    0.018771
    89  H    0.027207
    90  H    0.018193
    91  H    0.011520
    92  H    0.019325
    93  H    0.015770
    94  H    0.033079
    95  H    0.029192
    96  H    0.031029
    97  H    0.029933
    98  H    0.047933
    99  H    0.037198
   100  H    0.050009
   101  H    0.037924
   102  H    0.057013
   103  H    0.062549
   104  H    0.033935
   105  H    0.031779
   106  H    0.024664
   107  H    0.022875
   108  H    0.009395
   109  H    0.032631
   110  H    0.023970
   111  H    0.013745
   112  H    0.027721
   113  H    0.017388
   114  H    0.019391
   115  H    0.005654
   116  H    0.025640
   117  H    0.022708
   118  H    0.022824
   119  H    0.020910
   120  H    0.024280
   121  H    0.015218
   122  H    0.034260
   123  H    0.010352
   124  H    0.025562
   125  H    0.022871
   126  H    0.004965
   127  H    0.018825
   128  H    0.020991
   129  H    0.017380
   130  H    0.018230
   131  H    0.018829
   132  H    0.014001
   133  H    0.014808
   134  H    0.023636
   135  H    0.017637
   136  H    0.023036
   137  H    0.010548
   138  H    0.017782
   139  H    0.024475
   140  H    0.019291
 Sum of Mulliken charges =  -0.00000

 Dipole moment (field-independent basis, Debye):
    X=             -5.8612    Y=              4.8308    Z=              3.7516  Tot=              8.4714
 N-N= 4.417190527870D+03 E-N= 0.000000000000D+00  KE=-9.508555545182D+03
 Leave Link  601 at Sat Apr 30 06:19:22 2022, MaxMem=  6710886400 cpu:               0.8 elap:               0.1
 (Enter /sw/apps/gaussian-16.0/g16/l9999.exe)
 1\1\GINC-BP1-COMPUTE148\SP\RZINDO CIS\STO-3G\C55H74Mg1N4O6\OF15641\30-
 Apr-2022\0\\#p ZINDO=(nstates=5)\\step_601_chromophore_24 ZINDO\\0,1\M
 g,0,-0.655,43.806,25.664\C,0,1.889,43.447,28.068\C,0,-3.007,42.965,28.
 216\C,0,-2.931,43.71,23.426\C,0,1.863,44.3,23.275\N,0,-0.592,43.37,27.
 923\C,0,0.619,43.287,28.64\C,0,0.32,43.056,30.101\C,0,-1.25,42.674,30.
 16\C,0,-1.645,42.981,28.644\C,0,-1.576,41.17,30.502\C,0,0.653,44.34,30
 .872\C,0,0.779,44.328,32.428\C,0,0.81,42.978,33.166\O,0,1.813,42.267,3

 Normal termination of Gaussian 16 at Sat Apr 30 06:19:23 2022.
