 Gaussian 16, Revision A.03,
 Gaussian 16:  ES64L-G16RevA.03 25-Dec-2016

 ------------------------------
 #p blyp/Def2SVP td=(nstates=5)
 ------------------------------

 --------------------------------------------------
 step_151_chromophore_10 TDDFT with blyp functional
 --------------------------------------------------
 Symbolic Z-matrix:
 Charge =  0 Multiplicity = 1

                         Standard orientation:
 ---------------------------------------------------------------------
 Center     Atomic      Atomic             Coordinates (Angstroms)
 Number     Number       Type             X           Y           Z
 ---------------------------------------------------------------------
      1         12           0        6.204942    0.504872    0.052005
      2          6           0        3.918538   -2.240433   -0.122939
      3          6           0        3.550482    2.543917   -1.086940
      4          6           0        8.226899    3.128526    0.062439
      5          6           0        8.725399   -1.732666    0.443279
      6          7           0        3.917515    0.058315   -0.684068
      7          6           0        3.256760   -1.107219   -0.497417
      8          6           0        1.783663   -0.842452   -0.859895
      9          6           0        1.692787    0.710456   -1.335196
     10          6           0        3.153111    1.153562   -1.018539
     11          6           0        1.142505    0.880906   -2.790595
     12          6           0        0.732033   -1.031412    0.305944
     13          6           0       -0.768950   -0.515042    0.199938
     14          6           0       -1.874375   -1.337742    0.895142
     15          8           0       -2.249648   -1.259028    2.064534
     16          8           0       -2.432694   -2.180550   -0.063418
     17          7           0        5.924283    2.508988   -0.272963
     18          6           0        4.773895    3.191602   -0.774032
     19          6           0        4.997684    4.643374   -0.755950
     20          6           0        6.308820    4.755276   -0.329418
     21          6           0        6.908945    3.445303   -0.183003
     22          6           0        3.994542    5.670331   -1.248027
     23          6           0        7.144669    6.010148   -0.137614
     24          8           0        8.352903    6.120795    0.092328
     25          6           0        6.430155    7.359154   -0.255366
     26          7           0        8.236988    0.636840   -0.029186
     27          6           0        8.875215    1.856900    0.133381
     28          6           0       10.401905    1.647905    0.444906
     29          6           0       10.498429    0.100928    0.584886
     30          6           0        9.099145   -0.423946    0.255179
     31          6           0       11.444220    2.236962   -0.632889
     32          6           0       11.111459   -0.309873    1.930537
     33          6           0       10.099094   -0.008306    3.065037
     34          7           0        6.330126   -1.529198    0.187484
     35          6           0        7.465332   -2.310262    0.378613
     36          6           0        7.123267   -3.694236    0.544572
     37          6           0        5.680359   -3.687633    0.351200
     38          6           0        5.284527   -2.350106    0.186484
     39          6           0        8.037325   -4.903560    0.775342
     40          6           0        4.487117   -4.582021    0.254723
     41          8           0        4.336509   -5.801117    0.295262
     42          6           0        3.289926   -3.584831    0.132067
     43          6           0        2.422054   -4.034896   -1.069044
     44          8           0        2.758657   -4.072033   -2.301349
     45          8           0        1.193553   -4.336282   -0.670664
     46          6           0        0.191640   -4.679714   -1.699746
     47          6           0       -3.351679   -3.160114    0.433295
     48          6           0       -4.827117   -2.583660    0.564941
     49          6           0       -5.979222   -3.253717    0.797750
     50          6           0       -6.064471   -4.708781    0.727544
     51          6           0       -7.286602   -2.414091    0.774517
     52          6           0       -7.731109   -1.818223   -0.652790
     53          6           0       -7.595434   -0.257047   -0.649282
     54          6           0       -9.009375    0.482485   -0.587857
     55          6           0       -9.362398    1.027157   -1.952605
     56          6           0       -8.977776    1.583314    0.454247
     57          6           0      -10.465788    2.229581    0.552877
     58          6           0      -11.060634    2.710851    1.854643
     59          6           0      -12.513203    3.104168    1.671540
     60          6           0      -13.009552    4.154255    2.727885
     61          6           0      -13.422364    1.808210    1.805437
     62          6           0      -14.479192    1.879973    0.682021
     63          6           0      -14.617557    0.553449   -0.090726
     64          6           0      -15.963255    0.359898   -0.819126
     65          6           0      -16.097974   -1.166489   -1.091539
     66          6           0      -16.205423    1.167807   -2.115017
     67          1           0        2.680695    3.136919   -1.376885
     68          1           0        8.917721    3.955066    0.243027
     69          1           0        9.501466   -2.424414    0.776165
     70          1           0        1.492432   -1.599372   -1.587551
     71          1           0        1.076041    1.254195   -0.619669
     72          1           0        1.827863    1.473371   -3.397336
     73          1           0        0.221966    1.462923   -2.831323
     74          1           0        1.138774   -0.059564   -3.340831
     75          1           0        1.073347   -0.684303    1.280396
     76          1           0        0.731103   -2.114419    0.436580
     77          1           0       -1.105236   -0.363138   -0.825059
     78          1           0       -0.925200    0.425371    0.728447
     79          1           0        3.907627    6.387307   -0.430736
     80          1           0        3.015641    5.231056   -1.437414
     81          1           0        4.405601    6.160151   -2.130048
     82          1           0        5.848191    7.494738    0.656132
     83          1           0        5.693947    7.460005   -1.052788
     84          1           0        7.172692    8.149282   -0.361282
     85          1           0       10.566443    2.033079    1.452014
     86          1           0       11.070530   -0.404342   -0.192760
     87          1           0       11.625357    3.294127   -0.438566
     88          1           0       11.065519    2.255181   -1.655296
     89          1           0       12.410594    1.732925   -0.601924
     90          1           0       11.980252    0.328943    2.094878
     91          1           0       11.362573   -1.369041    1.883683
     92          1           0        9.112876    0.274315    2.695085
     93          1           0       10.534137    0.794925    3.659417
     94          1           0        9.978963   -0.834663    3.764975
     95          1           0        8.928416   -4.609518    1.330400
     96          1           0        8.262636   -5.268031   -0.227881
     97          1           0        7.508298   -5.700046    1.297762
     98          1           0        2.787280   -3.676493    1.094962
     99          1           0        0.596858   -5.501187   -2.290712
    100          1           0       -0.090830   -3.742493   -2.180668
    101          1           0       -0.640761   -5.097558   -1.134660
    102          1           0       -3.067188   -3.688894    1.342456
    103          1           0       -3.465057   -3.876750   -0.380078
    104          1           0       -4.864173   -1.496090    0.628792
    105          1           0       -7.077294   -4.918700    0.383127
    106          1           0       -6.210210   -4.992979    1.769268
    107          1           0       -5.276667   -5.377924    0.380995
    108          1           0       -7.020309   -1.605856    1.454804
    109          1           0       -8.174853   -2.900763    1.179810
    110          1           0       -8.783306   -2.049913   -0.816776
    111          1           0       -7.052483   -2.213398   -1.408038
    112          1           0       -7.072913    0.035263   -1.559996
    113          1           0       -7.033048    0.087971    0.217469
    114          1           0       -9.704631   -0.282944   -0.240612
    115          1           0       -8.573948    1.100792   -2.701131
    116          1           0       -9.844045    2.004415   -1.921183
    117          1           0      -10.159275    0.424483   -2.386785
    118          1           0       -8.284756    2.382223    0.191127
    119          1           0       -8.583662    1.288542    1.426961
    120          1           0      -11.170128    1.482440    0.189352
    121          1           0      -10.521122    3.093283   -0.111124
    122          1           0      -10.417613    3.561398    2.081844
    123          1           0      -11.000445    2.095250    2.752120
    124          1           0      -12.626564    3.569390    0.693170
    125          1           0      -14.079725    4.022848    2.888407
    126          1           0      -12.750178    5.135960    2.331867
    127          1           0      -12.288292    4.099084    3.542510
    128          1           0      -13.935014    1.808366    2.766543
    129          1           0      -12.901468    0.854580    1.724799
    130          1           0      -14.491115    2.750873    0.027853
    131          1           0      -15.390164    1.896490    1.280421
    132          1           0      -14.487297   -0.149386    0.733116
    133          1           0      -13.838234    0.464192   -0.847830
    134          1           0      -16.790732    0.630455   -0.164592
    135          1           0      -16.433833   -1.339016   -2.114953
    136          1           0      -16.792318   -1.592832   -0.367995
    137          1           0      -15.134232   -1.665757   -0.992336
    138          1           0      -17.043271    1.752279   -1.735934
    139          1           0      -16.648616    0.581744   -2.919764
    140          1           0      -15.272290    1.668665   -2.373596
 ---------------------------------------------------------------------

 SCF Done:  E(RB-LYP) =  -3007.37849848     A.U. after   21 cycles

 Excitation energies and oscillator strengths:

 Excited State   1:      Singlet-A      1.8234 eV  679.95 nm  f=0.2529  <S**2>=0.000
     243 -> 247        0.12238
     245 -> 247        0.12151
     245 -> 248        0.19402
     246 -> 247        0.66422
     246 <- 247       -0.13323
 This state for optimization and/or second-order correction.
 Total Energy, E(TD-HF/TD-DFT) =  -3007.31148895
 Copying the excited state density for this state as the 1-particle RhoCI density.

 Excited State   2:      Singlet-A      1.8999 eV  652.59 nm  f=0.0653  <S**2>=0.000
     243 -> 247        0.41593
     244 -> 247        0.21246
     245 -> 247        0.48889
     246 -> 247       -0.14809
     246 -> 248       -0.12620

 Excited State   3:      Singlet-A      1.9680 eV  630.00 nm  f=0.0065  <S**2>=0.000
     243 -> 247       -0.24553
     244 -> 247        0.65481

 Excited State   4:      Singlet-A      2.0791 eV  596.35 nm  f=0.0001  <S**2>=0.000
     242 -> 247        0.70690

 Excited State   5:      Singlet-A      2.0906 eV  593.05 nm  f=0.0445  <S**2>=0.000
     243 -> 247        0.49274
     244 -> 247        0.14995
     245 -> 247       -0.41720
     246 -> 248        0.21987

 The electronic state is 1-A.
 Alpha  occ. eigenvalues --  -46.26851 -18.82872 -18.82681 -18.77681 -18.76094
 Alpha  occ. eigenvalues --  -18.75861 -18.75832 -14.03264 -14.02921 -14.01531
 Alpha  occ. eigenvalues --  -14.00839 -10.04742 -10.04163 -10.00256  -9.99781
 Alpha  occ. eigenvalues --   -9.98409  -9.98325  -9.97319  -9.97214  -9.96704
 Alpha  occ. eigenvalues --   -9.96351  -9.96296  -9.95817  -9.95257  -9.94886
 Alpha  occ. eigenvalues --   -9.94689  -9.94676  -9.94610  -9.94443  -9.94214
 Alpha  occ. eigenvalues --   -9.94181  -9.94154  -9.93960  -9.93831  -9.93748
 Alpha  occ. eigenvalues --   -9.93558  -9.93261  -9.93130  -9.92997  -9.92783
 Alpha  occ. eigenvalues --   -9.92783  -9.92693  -9.92620  -9.92426  -9.92252
 Alpha  occ. eigenvalues --   -9.92068  -9.92066  -9.91967  -9.91951  -9.91834
 Alpha  occ. eigenvalues --   -9.91603  -9.91574  -9.91544  -9.91374  -9.91366
 Alpha  occ. eigenvalues --   -9.91236  -9.91164  -9.91152  -9.91066  -9.90991
 Alpha  occ. eigenvalues --   -9.90886  -9.90825  -9.90576  -9.90563  -9.90542
 Alpha  occ. eigenvalues --   -9.90305  -2.91621  -1.72021  -1.71532  -1.71328
 Alpha  occ. eigenvalues --   -0.98447  -0.97942  -0.91405  -0.90886  -0.90367
 Alpha  occ. eigenvalues --   -0.87030  -0.86422  -0.85419  -0.84954  -0.84279
 Alpha  occ. eigenvalues --   -0.75707  -0.73302  -0.72911  -0.72734  -0.72041
 Alpha  occ. eigenvalues --   -0.71899  -0.71669  -0.70991  -0.70881  -0.70582
 Alpha  occ. eigenvalues --   -0.69556  -0.68572  -0.67550  -0.67319  -0.66899
 Alpha  occ. eigenvalues --   -0.66209  -0.66003  -0.65415  -0.64776  -0.64204
 Alpha  occ. eigenvalues --   -0.63901  -0.63311  -0.62507  -0.62094  -0.61024
 Alpha  occ. eigenvalues --   -0.60364  -0.60095  -0.60057  -0.59711  -0.58720
 Alpha  occ. eigenvalues --   -0.58232  -0.57722  -0.57339  -0.55865  -0.55446
 Alpha  occ. eigenvalues --   -0.53968  -0.53742  -0.52639  -0.51754  -0.51326
 Alpha  occ. eigenvalues --   -0.50947  -0.50642  -0.50563  -0.50461  -0.49726
 Alpha  occ. eigenvalues --   -0.49361  -0.49154  -0.48571  -0.48554  -0.46968
 Alpha  occ. eigenvalues --   -0.46060  -0.45950  -0.45691  -0.44892  -0.44398
 Alpha  occ. eigenvalues --   -0.43893  -0.43412  -0.42880  -0.42605  -0.42298
 Alpha  occ. eigenvalues --   -0.42130  -0.42049  -0.41709  -0.41599  -0.41367
 Alpha  occ. eigenvalues --   -0.41149  -0.40802  -0.40610  -0.40288  -0.40131
 Alpha  occ. eigenvalues --   -0.39909  -0.39692  -0.39561  -0.39494  -0.39095
 Alpha  occ. eigenvalues --   -0.38807  -0.38707  -0.38514  -0.38129  -0.37859
 Alpha  occ. eigenvalues --   -0.37654  -0.37573  -0.37469  -0.37421  -0.37311
 Alpha  occ. eigenvalues --   -0.36796  -0.36777  -0.36579  -0.36518  -0.36394
 Alpha  occ. eigenvalues --   -0.36318  -0.36195  -0.35841  -0.35706  -0.35641
 Alpha  occ. eigenvalues --   -0.35319  -0.35308  -0.35045  -0.34878  -0.34788
 Alpha  occ. eigenvalues --   -0.34738  -0.34530  -0.34450  -0.34399  -0.34128
 Alpha  occ. eigenvalues --   -0.33926  -0.33792  -0.33484  -0.33346  -0.33275
 Alpha  occ. eigenvalues --   -0.32947  -0.32791  -0.32669  -0.32561  -0.32319
 Alpha  occ. eigenvalues --   -0.32119  -0.31904  -0.31869  -0.31697  -0.31569
 Alpha  occ. eigenvalues --   -0.31543  -0.31316  -0.31011  -0.30760  -0.30655
 Alpha  occ. eigenvalues --   -0.30358  -0.30191  -0.30122  -0.29950  -0.29828
 Alpha  occ. eigenvalues --   -0.29673  -0.29396  -0.29310  -0.29248  -0.28900
 Alpha  occ. eigenvalues --   -0.28794  -0.28706  -0.28087  -0.28083  -0.27805
 Alpha  occ. eigenvalues --   -0.27283  -0.27163  -0.26993  -0.26891  -0.26626
 Alpha  occ. eigenvalues --   -0.26588  -0.26570  -0.25976  -0.25416  -0.25089
 Alpha  occ. eigenvalues --   -0.24948  -0.24707  -0.24148  -0.23969  -0.23429
 Alpha  occ. eigenvalues --   -0.23314  -0.22387  -0.22259  -0.21336  -0.20892
 Alpha  occ. eigenvalues --   -0.20362  -0.19337  -0.18878  -0.18812  -0.17373
 Alpha  occ. eigenvalues --   -0.16158
 Alpha virt. eigenvalues --   -0.11696  -0.07158  -0.06269  -0.04753  -0.03806
 Alpha virt. eigenvalues --   -0.02879  -0.02509  -0.01648  -0.01436   0.00104
 Alpha virt. eigenvalues --    0.01365   0.01814   0.02080   0.02565   0.02852

 Mulliken charges:
               1
     1  Mg   0.702981
     2  C    0.028048
     3  C   -0.041262
     4  C   -0.042854
     5  C   -0.089574
     6  N   -0.172476
     7  C   -0.081963
     8  C    0.012319
     9  C    0.012503
    10  C   -0.045020
    11  C    0.137404
    12  C    0.059305
    13  C    0.136257
    14  C    0.070851
    15  O   -0.186333
    16  O   -0.271917
    17  N   -0.326731
    18  C    0.167461
    19  C   -0.149412
    20  C    0.051461
    21  C    0.144662
    22  C    0.189762
    23  C   -0.064503
    24  O   -0.165917
    25  C    0.106521
    26  N   -0.292085
    27  C    0.001091
    28  C    0.058638
    29  C    0.016732
    30  C    0.044920
    31  C    0.110392
    32  C    0.087068
    33  C    0.047320
    34  N   -0.263417
    35  C    0.133818
    36  C   -0.179275
    37  C    0.012478
    38  C    0.113395
    39  C    0.177512
    40  C   -0.025115
    41  O   -0.134678
    42  C    0.066249
    43  C    0.116740
    44  O   -0.245555
    45  O   -0.243101
    46  C    0.220388
    47  C    0.309886
    48  C   -0.142652
    49  C   -0.151332
    50  C    0.197561
    51  C    0.092733
    52  C    0.093785
    53  C    0.088245
    54  C   -0.081676
    55  C    0.128844
    56  C    0.119362
    57  C    0.010377
    58  C    0.137881
    59  C   -0.115303
    60  C    0.140530
    61  C    0.108365
    62  C    0.063758
    63  C    0.075985
    64  C   -0.127525
    65  C    0.110250
    66  C    0.128697
    67  H   -0.068040
    68  H   -0.046195
    69  H   -0.075251
    70  H   -0.004768
    71  H   -0.014066
    72  H   -0.022007
    73  H   -0.003143
    74  H    0.002108
    75  H   -0.020903
    76  H   -0.006193
    77  H   -0.010515
    78  H   -0.003953
    79  H    0.005751
    80  H   -0.011259
    81  H    0.031068
    82  H    0.007631
    83  H   -0.019856
    84  H   -0.003700
    85  H   -0.016853
    86  H   -0.030335
    87  H   -0.001588
    88  H   -0.000398
    89  H   -0.001043
    90  H   -0.011924
    91  H   -0.014084
    92  H    0.015717
    93  H   -0.010518
    94  H   -0.010914
    95  H   -0.003243
    96  H    0.016636
    97  H    0.009793
    98  H    0.012962
    99  H    0.033342
   100  H    0.031277
   101  H    0.010565
   102  H    0.013358
   103  H   -0.009760
   104  H   -0.028663
   105  H   -0.026330
   106  H   -0.018664
   107  H   -0.004425
   108  H   -0.008763
   109  H   -0.039199
   110  H   -0.020192
   111  H   -0.020696
   112  H   -0.036319
   113  H   -0.025311
   114  H   -0.029839
   115  H   -0.014204
   116  H   -0.026498
   117  H   -0.027795
   118  H   -0.039114
   119  H   -0.037373
   120  H   -0.027294
   121  H   -0.016777
   122  H   -0.057300
   123  H   -0.036868
   124  H   -0.036735
   125  H   -0.001167
   126  H   -0.030541
   127  H   -0.023506
   128  H   -0.033518
   129  H   -0.027167
   130  H   -0.022083
   131  H   -0.050827
   132  H   -0.030833
   133  H   -0.023105
   134  H   -0.042830
   135  H   -0.028605
   136  H   -0.013249
   137  H   -0.020877
   138  H   -0.015412
   139  H   -0.018133
   140  H   -0.002346
 Sum of Mulliken charges =  -0.00000

 Dipole moment (field-independent basis, Debye):
    X=             -2.2394    Y=              2.6419    Z=              0.1311  Tot=              3.4658
 Quadrupole moment (field-independent basis, Debye-Ang):
   XX=           -373.3457   YY=           -423.5964   ZZ=           -413.3154
   XY=              4.6846   XZ=             17.4710   YZ=             -9.4834

 Normal termination of Gaussian 16 at Thu Apr 28 09:24:32 2022.
