 Gaussian 16, Revision A.03,
 Gaussian 16:  ES64L-G16RevA.03 25-Dec-2016

 -----------------------------------
 #p cam-b3lyp/Def2SVP td=(nstates=5)
 -----------------------------------

 -------------------------------------------------------
 step_151_chromophore_10 TDDFT with cam-b3lyp functional
 -------------------------------------------------------
 Symbolic Z-matrix:
 Charge =  0 Multiplicity = 1

                         Standard orientation:
 ---------------------------------------------------------------------
 Center     Atomic      Atomic             Coordinates (Angstroms)
 Number     Number       Type             X           Y           Z
 ---------------------------------------------------------------------
      1         12           0        6.204942    0.504872    0.052005
      2          6           0        3.918538   -2.240433   -0.122939
      3          6           0        3.550482    2.543917   -1.086940
      4          6           0        8.226899    3.128526    0.062439
      5          6           0        8.725399   -1.732666    0.443279
      6          7           0        3.917515    0.058315   -0.684068
      7          6           0        3.256760   -1.107219   -0.497417
      8          6           0        1.783663   -0.842452   -0.859895
      9          6           0        1.692787    0.710456   -1.335196
     10          6           0        3.153111    1.153562   -1.018539
     11          6           0        1.142505    0.880906   -2.790595
     12          6           0        0.732033   -1.031412    0.305944
     13          6           0       -0.768950   -0.515042    0.199938
     14          6           0       -1.874375   -1.337742    0.895142
     15          8           0       -2.249648   -1.259028    2.064534
     16          8           0       -2.432694   -2.180550   -0.063418
     17          7           0        5.924283    2.508988   -0.272963
     18          6           0        4.773895    3.191602   -0.774032
     19          6           0        4.997684    4.643374   -0.755950
     20          6           0        6.308820    4.755276   -0.329418
     21          6           0        6.908945    3.445303   -0.183003
     22          6           0        3.994542    5.670331   -1.248027
     23          6           0        7.144669    6.010148   -0.137614
     24          8           0        8.352903    6.120795    0.092328
     25          6           0        6.430155    7.359154   -0.255366
     26          7           0        8.236988    0.636840   -0.029186
     27          6           0        8.875215    1.856900    0.133381
     28          6           0       10.401905    1.647905    0.444906
     29          6           0       10.498429    0.100928    0.584886
     30          6           0        9.099145   -0.423946    0.255179
     31          6           0       11.444220    2.236962   -0.632889
     32          6           0       11.111459   -0.309873    1.930537
     33          6           0       10.099094   -0.008306    3.065037
     34          7           0        6.330126   -1.529198    0.187484
     35          6           0        7.465332   -2.310262    0.378613
     36          6           0        7.123267   -3.694236    0.544572
     37          6           0        5.680359   -3.687633    0.351200
     38          6           0        5.284527   -2.350106    0.186484
     39          6           0        8.037325   -4.903560    0.775342
     40          6           0        4.487117   -4.582021    0.254723
     41          8           0        4.336509   -5.801117    0.295262
     42          6           0        3.289926   -3.584831    0.132067
     43          6           0        2.422054   -4.034896   -1.069044
     44          8           0        2.758657   -4.072033   -2.301349
     45          8           0        1.193553   -4.336282   -0.670664
     46          6           0        0.191640   -4.679714   -1.699746
     47          6           0       -3.351679   -3.160114    0.433295
     48          6           0       -4.827117   -2.583660    0.564941
     49          6           0       -5.979222   -3.253717    0.797750
     50          6           0       -6.064471   -4.708781    0.727544
     51          6           0       -7.286602   -2.414091    0.774517
     52          6           0       -7.731109   -1.818223   -0.652790
     53          6           0       -7.595434   -0.257047   -0.649282
     54          6           0       -9.009375    0.482485   -0.587857
     55          6           0       -9.362398    1.027157   -1.952605
     56          6           0       -8.977776    1.583314    0.454247
     57          6           0      -10.465788    2.229581    0.552877
     58          6           0      -11.060634    2.710851    1.854643
     59          6           0      -12.513203    3.104168    1.671540
     60          6           0      -13.009552    4.154255    2.727885
     61          6           0      -13.422364    1.808210    1.805437
     62          6           0      -14.479192    1.879973    0.682021
     63          6           0      -14.617557    0.553449   -0.090726
     64          6           0      -15.963255    0.359898   -0.819126
     65          6           0      -16.097974   -1.166489   -1.091539
     66          6           0      -16.205423    1.167807   -2.115017
     67          1           0        2.680695    3.136919   -1.376885
     68          1           0        8.917721    3.955066    0.243027
     69          1           0        9.501466   -2.424414    0.776165
     70          1           0        1.492432   -1.599372   -1.587551
     71          1           0        1.076041    1.254195   -0.619669
     72          1           0        1.827863    1.473371   -3.397336
     73          1           0        0.221966    1.462923   -2.831323
     74          1           0        1.138774   -0.059564   -3.340831
     75          1           0        1.073347   -0.684303    1.280396
     76          1           0        0.731103   -2.114419    0.436580
     77          1           0       -1.105236   -0.363138   -0.825059
     78          1           0       -0.925200    0.425371    0.728447
     79          1           0        3.907627    6.387307   -0.430736
     80          1           0        3.015641    5.231056   -1.437414
     81          1           0        4.405601    6.160151   -2.130048
     82          1           0        5.848191    7.494738    0.656132
     83          1           0        5.693947    7.460005   -1.052788
     84          1           0        7.172692    8.149282   -0.361282
     85          1           0       10.566443    2.033079    1.452014
     86          1           0       11.070530   -0.404342   -0.192760
     87          1           0       11.625357    3.294127   -0.438566
     88          1           0       11.065519    2.255181   -1.655296
     89          1           0       12.410594    1.732925   -0.601924
     90          1           0       11.980252    0.328943    2.094878
     91          1           0       11.362573   -1.369041    1.883683
     92          1           0        9.112876    0.274315    2.695085
     93          1           0       10.534137    0.794925    3.659417
     94          1           0        9.978963   -0.834663    3.764975
     95          1           0        8.928416   -4.609518    1.330400
     96          1           0        8.262636   -5.268031   -0.227881
     97          1           0        7.508298   -5.700046    1.297762
     98          1           0        2.787280   -3.676493    1.094962
     99          1           0        0.596858   -5.501187   -2.290712
    100          1           0       -0.090830   -3.742493   -2.180668
    101          1           0       -0.640761   -5.097558   -1.134660
    102          1           0       -3.067188   -3.688894    1.342456
    103          1           0       -3.465057   -3.876750   -0.380078
    104          1           0       -4.864173   -1.496090    0.628792
    105          1           0       -7.077294   -4.918700    0.383127
    106          1           0       -6.210210   -4.992979    1.769268
    107          1           0       -5.276667   -5.377924    0.380995
    108          1           0       -7.020309   -1.605856    1.454804
    109          1           0       -8.174853   -2.900763    1.179810
    110          1           0       -8.783306   -2.049913   -0.816776
    111          1           0       -7.052483   -2.213398   -1.408038
    112          1           0       -7.072913    0.035263   -1.559996
    113          1           0       -7.033048    0.087971    0.217469
    114          1           0       -9.704631   -0.282944   -0.240612
    115          1           0       -8.573948    1.100792   -2.701131
    116          1           0       -9.844045    2.004415   -1.921183
    117          1           0      -10.159275    0.424483   -2.386785
    118          1           0       -8.284756    2.382223    0.191127
    119          1           0       -8.583662    1.288542    1.426961
    120          1           0      -11.170128    1.482440    0.189352
    121          1           0      -10.521122    3.093283   -0.111124
    122          1           0      -10.417613    3.561398    2.081844
    123          1           0      -11.000445    2.095250    2.752120
    124          1           0      -12.626564    3.569390    0.693170
    125          1           0      -14.079725    4.022848    2.888407
    126          1           0      -12.750178    5.135960    2.331867
    127          1           0      -12.288292    4.099084    3.542510
    128          1           0      -13.935014    1.808366    2.766543
    129          1           0      -12.901468    0.854580    1.724799
    130          1           0      -14.491115    2.750873    0.027853
    131          1           0      -15.390164    1.896490    1.280421
    132          1           0      -14.487297   -0.149386    0.733116
    133          1           0      -13.838234    0.464192   -0.847830
    134          1           0      -16.790732    0.630455   -0.164592
    135          1           0      -16.433833   -1.339016   -2.114953
    136          1           0      -16.792318   -1.592832   -0.367995
    137          1           0      -15.134232   -1.665757   -0.992336
    138          1           0      -17.043271    1.752279   -1.735934
    139          1           0      -16.648616    0.581744   -2.919764
    140          1           0      -15.272290    1.668665   -2.373596
 ---------------------------------------------------------------------

 SCF Done:  E(RCAM-B3LYP) =  -3007.16224998     A.U. after   17 cycles

 Excitation energies and oscillator strengths:

 Excited State   1:      Singlet-A      1.7771 eV  697.70 nm  f=0.3580  <S**2>=0.000
     245 -> 248       -0.18812
     246 -> 247        0.68305
     245 <- 248       -0.10610
 This state for optimization and/or second-order correction.
 Total Energy, E(TD-HF/TD-DFT) =  -3007.09694446
 Copying the excited state density for this state as the 1-particle RhoCI density.

 Excited State   2:      Singlet-A      2.2471 eV  551.76 nm  f=0.1128  <S**2>=0.000
     245 -> 247        0.63828
     246 -> 248        0.29010

 Excited State   3:      Singlet-A      3.4396 eV  360.46 nm  f=0.0178  <S**2>=0.000
     241 -> 247       -0.16317
     242 -> 247        0.23312
     243 -> 247        0.62531

 Excited State   4:      Singlet-A      3.4914 eV  355.11 nm  f=0.2309  <S**2>=0.000
     240 -> 247        0.27045
     240 -> 249        0.19309
     241 -> 247       -0.31725
     243 -> 247       -0.17479
     245 -> 247       -0.15612
     246 -> 248        0.43490

 Excited State   5:      Singlet-A      3.5573 eV  348.53 nm  f=0.2715  <S**2>=0.000
     240 -> 247        0.35154
     240 -> 249        0.18843
     240 -> 250       -0.12045
     241 -> 249       -0.13756
     242 -> 247        0.29920
     242 -> 249       -0.10207
     242 -> 250       -0.11312
     243 -> 247       -0.11869
     245 -> 247        0.17079
     246 -> 248       -0.34065

 The electronic state is 1-A.
 Alpha  occ. eigenvalues --  -46.88349 -19.25760 -19.25568 -19.20765 -19.19705
 Alpha  occ. eigenvalues --  -19.18739 -19.18696 -14.42020 -14.41961 -14.40189
 Alpha  occ. eigenvalues --  -14.38989 -10.40167 -10.39562 -10.35904 -10.34869
 Alpha  occ. eigenvalues --  -10.32383 -10.32366 -10.32242 -10.32113 -10.31662
 Alpha  occ. eigenvalues --  -10.30667 -10.30526 -10.30312 -10.30154 -10.28920
 Alpha  occ. eigenvalues --  -10.28914 -10.28815 -10.28665 -10.28545 -10.28489
 Alpha  occ. eigenvalues --  -10.28428 -10.28322 -10.28285 -10.28016 -10.27799
 Alpha  occ. eigenvalues --  -10.27732 -10.27689 -10.26981 -10.26750 -10.26634
 Alpha  occ. eigenvalues --  -10.26577 -10.26457 -10.26140 -10.26126 -10.26098
 Alpha  occ. eigenvalues --  -10.26042 -10.25984 -10.25698 -10.25676 -10.25631
 Alpha  occ. eigenvalues --  -10.25372 -10.25313 -10.25270 -10.25257 -10.25108
 Alpha  occ. eigenvalues --  -10.25092 -10.24921 -10.24825 -10.24773 -10.24724
 Alpha  occ. eigenvalues --  -10.24508 -10.24401 -10.24218 -10.24181 -10.24166
 Alpha  occ. eigenvalues --  -10.23899  -3.17030  -1.91902  -1.91504  -1.91335
 Alpha  occ. eigenvalues --   -1.16845  -1.16409  -1.10171  -1.08993  -1.08303
 Alpha  occ. eigenvalues --   -1.04770  -1.03878  -1.03262  -1.02593  -1.01769
 Alpha  occ. eigenvalues --   -0.92681  -0.90176  -0.89744  -0.89579  -0.88776
 Alpha  occ. eigenvalues --   -0.88747  -0.88415  -0.87682  -0.87605  -0.87103
 Alpha  occ. eigenvalues --   -0.85826  -0.84859  -0.83744  -0.83369  -0.83020
 Alpha  occ. eigenvalues --   -0.82237  -0.81834  -0.81531  -0.80792  -0.80221
 Alpha  occ. eigenvalues --   -0.79711  -0.79392  -0.78079  -0.77539  -0.76334
 Alpha  occ. eigenvalues --   -0.75688  -0.75414  -0.75371  -0.75034  -0.73959
 Alpha  occ. eigenvalues --   -0.73263  -0.72702  -0.72320  -0.70784  -0.70043
 Alpha  occ. eigenvalues --   -0.68586  -0.68320  -0.67186  -0.66099  -0.65588
 Alpha  occ. eigenvalues --   -0.65115  -0.64737  -0.64507  -0.64255  -0.63758
 Alpha  occ. eigenvalues --   -0.63346  -0.62956  -0.62486  -0.62151  -0.60905
 Alpha  occ. eigenvalues --   -0.59608  -0.59438  -0.59127  -0.58246  -0.57902
 Alpha  occ. eigenvalues --   -0.57346  -0.56717  -0.56047  -0.55855  -0.55581
 Alpha  occ. eigenvalues --   -0.55144  -0.54849  -0.54781  -0.54609  -0.54428
 Alpha  occ. eigenvalues --   -0.53988  -0.53534  -0.53426  -0.53259  -0.52765
 Alpha  occ. eigenvalues --   -0.52631  -0.52458  -0.52141  -0.52032  -0.51892
 Alpha  occ. eigenvalues --   -0.51229  -0.51128  -0.50873  -0.50490  -0.50430
 Alpha  occ. eigenvalues --   -0.50181  -0.50009  -0.49901  -0.49789  -0.49623
 Alpha  occ. eigenvalues --   -0.49511  -0.49193  -0.48980  -0.48835  -0.48698
 Alpha  occ. eigenvalues --   -0.48496  -0.48430  -0.48393  -0.47996  -0.47796
 Alpha  occ. eigenvalues --   -0.47402  -0.47286  -0.47183  -0.46912  -0.46707
 Alpha  occ. eigenvalues --   -0.46604  -0.46349  -0.46222  -0.46170  -0.45944
 Alpha  occ. eigenvalues --   -0.45666  -0.45556  -0.45348  -0.45154  -0.44859
 Alpha  occ. eigenvalues --   -0.44579  -0.44496  -0.44314  -0.44246  -0.43893
 Alpha  occ. eigenvalues --   -0.43783  -0.43699  -0.43309  -0.43207  -0.43143
 Alpha  occ. eigenvalues --   -0.43079  -0.42711  -0.42573  -0.42253  -0.42018
 Alpha  occ. eigenvalues --   -0.42007  -0.41642  -0.41499  -0.41341  -0.41133
 Alpha  occ. eigenvalues --   -0.41044  -0.40829  -0.40497  -0.40330  -0.40296
 Alpha  occ. eigenvalues --   -0.39796  -0.39724  -0.39061  -0.38988  -0.38721
 Alpha  occ. eigenvalues --   -0.38408  -0.38188  -0.38035  -0.37713  -0.37457
 Alpha  occ. eigenvalues --   -0.37443  -0.37310  -0.36763  -0.36093  -0.36067
 Alpha  occ. eigenvalues --   -0.35992  -0.35814  -0.34752  -0.34309  -0.33973
 Alpha  occ. eigenvalues --   -0.33745  -0.33679  -0.33109  -0.32127  -0.31382
 Alpha  occ. eigenvalues --   -0.30902  -0.30253  -0.29269  -0.28902  -0.24226
 Alpha  occ. eigenvalues --   -0.21544
 Alpha virt. eigenvalues --   -0.08712  -0.02050   0.00166   0.02311   0.02422
 Alpha virt. eigenvalues --    0.03990   0.05072   0.05773   0.06034   0.06789
 Alpha virt. eigenvalues --    0.08017   0.08355   0.08446   0.08646   0.09063

 Mulliken charges:
               1
     1  Mg   0.834867
     2  C   -0.000151
     3  C   -0.060673
     4  C   -0.073973
     5  C   -0.093976
     6  N   -0.236056
     7  C   -0.040477
     8  C   -0.029991
     9  C   -0.047399
    10  C   -0.014339
    11  C    0.075347
    12  C    0.015817
    13  C    0.065955
    14  C    0.153338
    15  O   -0.225931
    16  O   -0.335323
    17  N   -0.415768
    18  C    0.177921
    19  C   -0.148652
    20  C   -0.019637
    21  C    0.172252
    22  C    0.131640
    23  C    0.017595
    24  O   -0.204780
    25  C    0.026603
    26  N   -0.366076
    27  C    0.034438
    28  C   -0.004912
    29  C   -0.035887
    30  C    0.061178
    31  C    0.057896
    32  C    0.033317
    33  C   -0.015054
    34  N   -0.354627
    35  C    0.130097
    36  C   -0.178760
    37  C   -0.066905
    38  C    0.148837
    39  C    0.130384
    40  C    0.078079
    41  O   -0.176359
    42  C   -0.011262
    43  C    0.200930
    44  O   -0.284702
    45  O   -0.305748
    46  C    0.184738
    47  C    0.276876
    48  C   -0.155630
    49  C   -0.169110
    50  C    0.118017
    51  C    0.039009
    52  C    0.037590
    53  C    0.040164
    54  C   -0.140112
    55  C    0.065840
    56  C    0.071075
    57  C   -0.037352
    58  C    0.081940
    59  C   -0.170913
    60  C    0.083509
    61  C    0.051815
    62  C    0.011096
    63  C    0.021334
    64  C   -0.182323
    65  C    0.051100
    66  C    0.067095
    67  H   -0.033050
    68  H   -0.004147
    69  H   -0.041145
    70  H    0.024407
    71  H    0.018756
    72  H    0.005077
    73  H    0.020944
    74  H    0.029267
    75  H    0.010597
    76  H    0.021063
    77  H    0.022230
    78  H    0.026810
    79  H    0.033089
    80  H    0.019015
    81  H    0.057813
    82  H    0.035636
    83  H    0.009512
    84  H    0.032473
    85  H    0.018017
    86  H    0.006231
    87  H    0.021626
    88  H    0.024572
    89  H    0.023013
    90  H    0.015264
    91  H    0.013204
    92  H    0.034922
    93  H    0.012048
    94  H    0.015088
    95  H    0.017337
    96  H    0.040733
    97  H    0.034455
    98  H    0.055060
    99  H    0.058383
   100  H    0.050604
   101  H    0.032620
   102  H    0.042213
   103  H    0.016478
   104  H   -0.000212
   105  H    0.001142
   106  H    0.007988
   107  H    0.022254
   108  H    0.018659
   109  H   -0.008140
   110  H    0.007039
   111  H    0.009780
   112  H   -0.007441
   113  H    0.000207
   114  H    0.000303
   115  H    0.011002
   116  H   -0.000951
   117  H   -0.002309
   118  H   -0.009909
   119  H   -0.008372
   120  H   -0.005615
   121  H    0.008069
   122  H   -0.026713
   123  H   -0.008356
   124  H   -0.005503
   125  H    0.021385
   126  H   -0.005070
   127  H    0.001578
   128  H   -0.003039
   129  H    0.000877
   130  H    0.003828
   131  H   -0.021223
   132  H   -0.002146
   133  H    0.001718
   134  H   -0.010702
   135  H   -0.004317
   136  H    0.010538
   137  H    0.003714
   138  H    0.008103
   139  H    0.007046
   140  H    0.019744
 Sum of Mulliken charges =  -0.00000

 Dipole moment (field-independent basis, Debye):
    X=             -2.5457    Y=              4.1839    Z=              0.0058  Tot=              4.8976
 Quadrupole moment (field-independent basis, Debye-Ang):
   XX=           -375.6641   YY=           -418.0923   ZZ=           -413.9842
   XY=             13.3368   XZ=             17.4056   YZ=            -10.7077

 Normal termination of Gaussian 16 at Thu Apr 28 08:27:47 2022.
