 Gaussian 16, Revision A.03,
 Gaussian 16:  ES64L-G16RevA.03 25-Dec-2016

 ---------------------------------
 #p PBE1PBE/Def2SVP td=(nstates=5)
 ---------------------------------

 -----------------------------------------------------
 step_151_chromophore_10 TDDFT with PBE1PBE functional
 -----------------------------------------------------
 Symbolic Z-matrix:
 Charge =  0 Multiplicity = 1

                         Standard orientation:
 ---------------------------------------------------------------------
 Center     Atomic      Atomic             Coordinates (Angstroms)
 Number     Number       Type             X           Y           Z
 ---------------------------------------------------------------------
      1         12           0        6.204942    0.504872    0.052005
      2          6           0        3.918538   -2.240433   -0.122939
      3          6           0        3.550482    2.543917   -1.086940
      4          6           0        8.226899    3.128526    0.062439
      5          6           0        8.725399   -1.732666    0.443279
      6          7           0        3.917515    0.058315   -0.684068
      7          6           0        3.256760   -1.107219   -0.497417
      8          6           0        1.783663   -0.842452   -0.859895
      9          6           0        1.692787    0.710456   -1.335196
     10          6           0        3.153111    1.153562   -1.018539
     11          6           0        1.142505    0.880906   -2.790595
     12          6           0        0.732033   -1.031412    0.305944
     13          6           0       -0.768950   -0.515042    0.199938
     14          6           0       -1.874375   -1.337742    0.895142
     15          8           0       -2.249648   -1.259028    2.064534
     16          8           0       -2.432694   -2.180550   -0.063418
     17          7           0        5.924283    2.508988   -0.272963
     18          6           0        4.773895    3.191602   -0.774032
     19          6           0        4.997684    4.643374   -0.755950
     20          6           0        6.308820    4.755276   -0.329418
     21          6           0        6.908945    3.445303   -0.183003
     22          6           0        3.994542    5.670331   -1.248027
     23          6           0        7.144669    6.010148   -0.137614
     24          8           0        8.352903    6.120795    0.092328
     25          6           0        6.430155    7.359154   -0.255366
     26          7           0        8.236988    0.636840   -0.029186
     27          6           0        8.875215    1.856900    0.133381
     28          6           0       10.401905    1.647905    0.444906
     29          6           0       10.498429    0.100928    0.584886
     30          6           0        9.099145   -0.423946    0.255179
     31          6           0       11.444220    2.236962   -0.632889
     32          6           0       11.111459   -0.309873    1.930537
     33          6           0       10.099094   -0.008306    3.065037
     34          7           0        6.330126   -1.529198    0.187484
     35          6           0        7.465332   -2.310262    0.378613
     36          6           0        7.123267   -3.694236    0.544572
     37          6           0        5.680359   -3.687633    0.351200
     38          6           0        5.284527   -2.350106    0.186484
     39          6           0        8.037325   -4.903560    0.775342
     40          6           0        4.487117   -4.582021    0.254723
     41          8           0        4.336509   -5.801117    0.295262
     42          6           0        3.289926   -3.584831    0.132067
     43          6           0        2.422054   -4.034896   -1.069044
     44          8           0        2.758657   -4.072033   -2.301349
     45          8           0        1.193553   -4.336282   -0.670664
     46          6           0        0.191640   -4.679714   -1.699746
     47          6           0       -3.351679   -3.160114    0.433295
     48          6           0       -4.827117   -2.583660    0.564941
     49          6           0       -5.979222   -3.253717    0.797750
     50          6           0       -6.064471   -4.708781    0.727544
     51          6           0       -7.286602   -2.414091    0.774517
     52          6           0       -7.731109   -1.818223   -0.652790
     53          6           0       -7.595434   -0.257047   -0.649282
     54          6           0       -9.009375    0.482485   -0.587857
     55          6           0       -9.362398    1.027157   -1.952605
     56          6           0       -8.977776    1.583314    0.454247
     57          6           0      -10.465788    2.229581    0.552877
     58          6           0      -11.060634    2.710851    1.854643
     59          6           0      -12.513203    3.104168    1.671540
     60          6           0      -13.009552    4.154255    2.727885
     61          6           0      -13.422364    1.808210    1.805437
     62          6           0      -14.479192    1.879973    0.682021
     63          6           0      -14.617557    0.553449   -0.090726
     64          6           0      -15.963255    0.359898   -0.819126
     65          6           0      -16.097974   -1.166489   -1.091539
     66          6           0      -16.205423    1.167807   -2.115017
     67          1           0        2.680695    3.136919   -1.376885
     68          1           0        8.917721    3.955066    0.243027
     69          1           0        9.501466   -2.424414    0.776165
     70          1           0        1.492432   -1.599372   -1.587551
     71          1           0        1.076041    1.254195   -0.619669
     72          1           0        1.827863    1.473371   -3.397336
     73          1           0        0.221966    1.462923   -2.831323
     74          1           0        1.138774   -0.059564   -3.340831
     75          1           0        1.073347   -0.684303    1.280396
     76          1           0        0.731103   -2.114419    0.436580
     77          1           0       -1.105236   -0.363138   -0.825059
     78          1           0       -0.925200    0.425371    0.728447
     79          1           0        3.907627    6.387307   -0.430736
     80          1           0        3.015641    5.231056   -1.437414
     81          1           0        4.405601    6.160151   -2.130048
     82          1           0        5.848191    7.494738    0.656132
     83          1           0        5.693947    7.460005   -1.052788
     84          1           0        7.172692    8.149282   -0.361282
     85          1           0       10.566443    2.033079    1.452014
     86          1           0       11.070530   -0.404342   -0.192760
     87          1           0       11.625357    3.294127   -0.438566
     88          1           0       11.065519    2.255181   -1.655296
     89          1           0       12.410594    1.732925   -0.601924
     90          1           0       11.980252    0.328943    2.094878
     91          1           0       11.362573   -1.369041    1.883683
     92          1           0        9.112876    0.274315    2.695085
     93          1           0       10.534137    0.794925    3.659417
     94          1           0        9.978963   -0.834663    3.764975
     95          1           0        8.928416   -4.609518    1.330400
     96          1           0        8.262636   -5.268031   -0.227881
     97          1           0        7.508298   -5.700046    1.297762
     98          1           0        2.787280   -3.676493    1.094962
     99          1           0        0.596858   -5.501187   -2.290712
    100          1           0       -0.090830   -3.742493   -2.180668
    101          1           0       -0.640761   -5.097558   -1.134660
    102          1           0       -3.067188   -3.688894    1.342456
    103          1           0       -3.465057   -3.876750   -0.380078
    104          1           0       -4.864173   -1.496090    0.628792
    105          1           0       -7.077294   -4.918700    0.383127
    106          1           0       -6.210210   -4.992979    1.769268
    107          1           0       -5.276667   -5.377924    0.380995
    108          1           0       -7.020309   -1.605856    1.454804
    109          1           0       -8.174853   -2.900763    1.179810
    110          1           0       -8.783306   -2.049913   -0.816776
    111          1           0       -7.052483   -2.213398   -1.408038
    112          1           0       -7.072913    0.035263   -1.559996
    113          1           0       -7.033048    0.087971    0.217469
    114          1           0       -9.704631   -0.282944   -0.240612
    115          1           0       -8.573948    1.100792   -2.701131
    116          1           0       -9.844045    2.004415   -1.921183
    117          1           0      -10.159275    0.424483   -2.386785
    118          1           0       -8.284756    2.382223    0.191127
    119          1           0       -8.583662    1.288542    1.426961
    120          1           0      -11.170128    1.482440    0.189352
    121          1           0      -10.521122    3.093283   -0.111124
    122          1           0      -10.417613    3.561398    2.081844
    123          1           0      -11.000445    2.095250    2.752120
    124          1           0      -12.626564    3.569390    0.693170
    125          1           0      -14.079725    4.022848    2.888407
    126          1           0      -12.750178    5.135960    2.331867
    127          1           0      -12.288292    4.099084    3.542510
    128          1           0      -13.935014    1.808366    2.766543
    129          1           0      -12.901468    0.854580    1.724799
    130          1           0      -14.491115    2.750873    0.027853
    131          1           0      -15.390164    1.896490    1.280421
    132          1           0      -14.487297   -0.149386    0.733116
    133          1           0      -13.838234    0.464192   -0.847830
    134          1           0      -16.790732    0.630455   -0.164592
    135          1           0      -16.433833   -1.339016   -2.114953
    136          1           0      -16.792318   -1.592832   -0.367995
    137          1           0      -15.134232   -1.665757   -0.992336
    138          1           0      -17.043271    1.752279   -1.735934
    139          1           0      -16.648616    0.581744   -2.919764
    140          1           0      -15.272290    1.668665   -2.373596
 ---------------------------------------------------------------------

 SCF Done:  E(RPBE1PBE) =  -3005.34951739     A.U. after   16 cycles

 Excitation energies and oscillator strengths:

 Excited State   1:      Singlet-A      1.8928 eV  655.03 nm  f=0.3445  <S**2>=0.000
     245 -> 248        0.18445
     246 -> 247        0.68877
 This state for optimization and/or second-order correction.
 Total Energy, E(TD-HF/TD-DFT) =  -3005.27995788
 Copying the excited state density for this state as the 1-particle RhoCI density.

 Excited State   2:      Singlet-A      2.2380 eV  554.00 nm  f=0.1136  <S**2>=0.000
     245 -> 247        0.65051
     246 -> 248       -0.26393

 Excited State   3:      Singlet-A      3.0095 eV  411.97 nm  f=0.0010  <S**2>=0.000
     241 -> 247        0.10828
     242 -> 247        0.57426
     243 -> 247        0.34957

 Excited State   4:      Singlet-A      3.0474 eV  406.85 nm  f=0.0001  <S**2>=0.000
     241 -> 247        0.64285
     241 -> 249        0.15332
     243 -> 247       -0.14367

 Excited State   5:      Singlet-A      3.0643 eV  404.61 nm  f=0.0137  <S**2>=0.000
     240 -> 247       -0.10732
     241 -> 247        0.11054
     242 -> 247       -0.33708
     243 -> 247        0.58450

 The electronic state is 1-A.
 Alpha  occ. eigenvalues --  -46.91784 -19.26458 -19.26288 -19.21047 -19.19695
 Alpha  occ. eigenvalues --  -19.19213 -19.19094 -14.41679 -14.41355 -14.39764
 Alpha  occ. eigenvalues --  -14.38823 -10.37234 -10.36718 -10.32810 -10.32256
 Alpha  occ. eigenvalues --  -10.29794 -10.29786 -10.29645 -10.29631 -10.29043
 Alpha  occ. eigenvalues --  -10.28414 -10.28344 -10.28004 -10.27409 -10.27008
 Alpha  occ. eigenvalues --  -10.26662 -10.26656 -10.26477 -10.26256 -10.26166
 Alpha  occ. eigenvalues --  -10.25943 -10.25840 -10.25838 -10.25717 -10.25578
 Alpha  occ. eigenvalues --  -10.25394 -10.25370 -10.24921 -10.24389 -10.24305
 Alpha  occ. eigenvalues --  -10.24021 -10.23970 -10.23915 -10.23825 -10.23776
 Alpha  occ. eigenvalues --  -10.23639 -10.23370 -10.23284 -10.23192 -10.23102
 Alpha  occ. eigenvalues --  -10.23078 -10.23014 -10.22929 -10.22855 -10.22817
 Alpha  occ. eigenvalues --  -10.22660 -10.22474 -10.22377 -10.22376 -10.22332
 Alpha  occ. eigenvalues --  -10.21912 -10.21792 -10.21761 -10.21709 -10.21545
 Alpha  occ. eigenvalues --  -10.21303  -3.14041  -1.86853  -1.86434  -1.86269
 Alpha  occ. eigenvalues --   -1.11718  -1.11241  -1.04662  -1.03953  -1.03183
 Alpha  occ. eigenvalues --   -0.99647  -0.98679  -0.97768  -0.97186  -0.96418
 Alpha  occ. eigenvalues --   -0.87179  -0.84263  -0.83858  -0.83781  -0.82947
 Alpha  occ. eigenvalues --   -0.82884  -0.82571  -0.81889  -0.81720  -0.81480
 Alpha  occ. eigenvalues --   -0.80321  -0.79139  -0.77947  -0.77661  -0.77287
 Alpha  occ. eigenvalues --   -0.76405  -0.76132  -0.75728  -0.74933  -0.74440
 Alpha  occ. eigenvalues --   -0.73843  -0.73499  -0.72374  -0.71941  -0.70782
 Alpha  occ. eigenvalues --   -0.69898  -0.69681  -0.69513  -0.69162  -0.68119
 Alpha  occ. eigenvalues --   -0.67693  -0.67086  -0.66716  -0.65051  -0.64429
 Alpha  occ. eigenvalues --   -0.63007  -0.62610  -0.61600  -0.60364  -0.59930
 Alpha  occ. eigenvalues --   -0.59683  -0.59097  -0.58976  -0.58860  -0.57881
 Alpha  occ. eigenvalues --   -0.57560  -0.57374  -0.56827  -0.56654  -0.55283
 Alpha  occ. eigenvalues --   -0.54088  -0.53932  -0.53787  -0.52822  -0.52409
 Alpha  occ. eigenvalues --   -0.51888  -0.51075  -0.50594  -0.50353  -0.50221
 Alpha  occ. eigenvalues --   -0.49745  -0.49406  -0.49206  -0.49124  -0.49027
 Alpha  occ. eigenvalues --   -0.48449  -0.47953  -0.47731  -0.47643  -0.47554
 Alpha  occ. eigenvalues --   -0.47147  -0.46949  -0.46617  -0.46563  -0.46435
 Alpha  occ. eigenvalues --   -0.45919  -0.45719  -0.45402  -0.45126  -0.44986
 Alpha  occ. eigenvalues --   -0.44588  -0.44509  -0.44399  -0.44238  -0.44165
 Alpha  occ. eigenvalues --   -0.44044  -0.43739  -0.43635  -0.43475  -0.43345
 Alpha  occ. eigenvalues --   -0.43122  -0.43031  -0.42997  -0.42587  -0.42417
 Alpha  occ. eigenvalues --   -0.42022  -0.41872  -0.41808  -0.41680  -0.41394
 Alpha  occ. eigenvalues --   -0.41243  -0.41100  -0.40977  -0.40789  -0.40738
 Alpha  occ. eigenvalues --   -0.40417  -0.40305  -0.40141  -0.39889  -0.39649
 Alpha  occ. eigenvalues --   -0.39345  -0.39156  -0.39100  -0.38980  -0.38665
 Alpha  occ. eigenvalues --   -0.38512  -0.38340  -0.38178  -0.38109  -0.37969
 Alpha  occ. eigenvalues --   -0.37889  -0.37677  -0.37417  -0.37077  -0.36747
 Alpha  occ. eigenvalues --   -0.36686  -0.36500  -0.36270  -0.36167  -0.35992
 Alpha  occ. eigenvalues --   -0.35857  -0.35764  -0.35270  -0.35179  -0.35059
 Alpha  occ. eigenvalues --   -0.34707  -0.34584  -0.33987  -0.33824  -0.33528
 Alpha  occ. eigenvalues --   -0.33450  -0.33005  -0.32919  -0.32502  -0.32477
 Alpha  occ. eigenvalues --   -0.32216  -0.32092  -0.31624  -0.31152  -0.31022
 Alpha  occ. eigenvalues --   -0.30916  -0.30900  -0.29750  -0.29352  -0.29265
 Alpha  occ. eigenvalues --   -0.29026  -0.28648  -0.28045  -0.27523  -0.26464
 Alpha  occ. eigenvalues --   -0.25864  -0.25481  -0.25199  -0.24201  -0.21133
 Alpha  occ. eigenvalues --   -0.19137
 Alpha virt. eigenvalues --   -0.11261  -0.05548  -0.04012  -0.02165  -0.00668
 Alpha virt. eigenvalues --   -0.00344   0.00289   0.01222   0.01545   0.03066
 Alpha virt. eigenvalues --    0.04423   0.04547   0.04947   0.05457   0.05668

 Mulliken charges:
               1
     1  Mg   0.984387
     2  C   -0.024429
     3  C   -0.059006
     4  C   -0.067100
     5  C   -0.085364
     6  N   -0.337894
     7  C    0.051441
     8  C   -0.107239
     9  C   -0.126470
    10  C    0.031865
    11  C    0.017921
    12  C   -0.032785
    13  C   -0.011021
    14  C    0.218458
    15  O   -0.257833
    16  O   -0.364608
    17  N   -0.525067
    18  C    0.190547
    19  C   -0.173000
    20  C   -0.070720
    21  C    0.197247
    22  C    0.067182
    23  C    0.071266
    24  O   -0.244992
    25  C   -0.047817
    26  N   -0.467758
    27  C    0.069468
    28  C   -0.084957
    29  C   -0.103623
    30  C    0.100362
    31  C   -0.000064
    32  C   -0.035186
    33  C   -0.088930
    34  N   -0.486045
    35  C    0.145366
    36  C   -0.187104
    37  C   -0.112696
    38  C    0.207123
    39  C    0.074486
    40  C    0.176379
    41  O   -0.220537
    42  C   -0.123302
    43  C    0.288183
    44  O   -0.316613
    45  O   -0.339116
    46  C    0.129382
    47  C    0.233406
    48  C   -0.157126
    49  C   -0.217640
    50  C    0.050359
    51  C   -0.021588
    52  C   -0.027659
    53  C   -0.009114
    54  C   -0.234488
    55  C    0.010739
    56  C    0.021084
    57  C   -0.102972
    58  C    0.025953
    59  C   -0.255692
    60  C    0.021641
    61  C   -0.000842
    62  C   -0.049175
    63  C   -0.041977
    64  C   -0.269315
    65  C   -0.009665
    66  C    0.007392
    67  H   -0.000754
    68  H    0.029040
    69  H   -0.006745
    70  H    0.065235
    71  H    0.056611
    72  H    0.033243
    73  H    0.046922
    74  H    0.054988
    75  H    0.043111
    76  H    0.059176
    77  H    0.055056
    78  H    0.058490
    79  H    0.060499
    80  H    0.045887
    81  H    0.083618
    82  H    0.062742
    83  H    0.036173
    84  H    0.058993
    85  H    0.055751
    86  H    0.044659
    87  H    0.049087
    88  H    0.051886
    89  H    0.049352
    90  H    0.050457
    91  H    0.044550
    92  H    0.067529
    93  H    0.040262
    94  H    0.043736
    95  H    0.044511
    96  H    0.070384
    97  H    0.063085
    98  H    0.090349
    99  H    0.079220
   100  H    0.072298
   101  H    0.054593
   102  H    0.068501
   103  H    0.043990
   104  H    0.030134
   105  H    0.030383
   106  H    0.038523
   107  H    0.047180
   108  H    0.050644
   109  H    0.023915
   110  H    0.038774
   111  H    0.042873
   112  H    0.024924
   113  H    0.031499
   114  H    0.037559
   115  H    0.037279
   116  H    0.026987
   117  H    0.025703
   118  H    0.023552
   119  H    0.023650
   120  H    0.031491
   121  H    0.039791
   122  H    0.008408
   123  H    0.023689
   124  H    0.030990
   125  H    0.048207
   126  H    0.024205
   127  H    0.029864
   128  H    0.029682
   129  H    0.031055
   130  H    0.034254
   131  H    0.013917
   132  H    0.031547
   133  H    0.035163
   134  H    0.026946
   135  H    0.023029
   136  H    0.038165
   137  H    0.031132
   138  H    0.035063
   139  H    0.033989
   140  H    0.046240
 Sum of Mulliken charges =  -0.00000

 Dipole moment (field-independent basis, Debye):
    X=             -2.3765    Y=              3.4723    Z=              0.1373  Tot=              4.2099
 Quadrupole moment (field-independent basis, Debye-Ang):
   XX=           -367.3393   YY=           -416.1131   ZZ=           -411.5593
   XY=              8.6304   XZ=             18.4610   YZ=            -10.6449

 Normal termination of Gaussian 16 at Thu Apr 28 08:45:50 2022.
