 Gaussian 16, Revision A.03,
 Gaussian 16:  ES64L-G16RevA.03 25-Dec-2016

 --------------------------------
 #p wB97XD/Def2SVP td=(nstates=5)
 --------------------------------

 ----------------------------------------------------
 step_151_chromophore_10 TDDFT with wB97XD functional
 ----------------------------------------------------
 Symbolic Z-matrix:
 Charge =  0 Multiplicity = 1

                         Standard orientation:
 ---------------------------------------------------------------------
 Center     Atomic      Atomic             Coordinates (Angstroms)
 Number     Number       Type             X           Y           Z
 ---------------------------------------------------------------------
      1         12           0        6.204942    0.504872    0.052005
      2          6           0        3.918538   -2.240433   -0.122939
      3          6           0        3.550482    2.543917   -1.086940
      4          6           0        8.226899    3.128526    0.062439
      5          6           0        8.725399   -1.732666    0.443279
      6          7           0        3.917515    0.058315   -0.684068
      7          6           0        3.256760   -1.107219   -0.497417
      8          6           0        1.783663   -0.842452   -0.859895
      9          6           0        1.692787    0.710456   -1.335196
     10          6           0        3.153111    1.153562   -1.018539
     11          6           0        1.142505    0.880906   -2.790595
     12          6           0        0.732033   -1.031412    0.305944
     13          6           0       -0.768950   -0.515042    0.199938
     14          6           0       -1.874375   -1.337742    0.895142
     15          8           0       -2.249648   -1.259028    2.064534
     16          8           0       -2.432694   -2.180550   -0.063418
     17          7           0        5.924283    2.508988   -0.272963
     18          6           0        4.773895    3.191602   -0.774032
     19          6           0        4.997684    4.643374   -0.755950
     20          6           0        6.308820    4.755276   -0.329418
     21          6           0        6.908945    3.445303   -0.183003
     22          6           0        3.994542    5.670331   -1.248027
     23          6           0        7.144669    6.010148   -0.137614
     24          8           0        8.352903    6.120795    0.092328
     25          6           0        6.430155    7.359154   -0.255366
     26          7           0        8.236988    0.636840   -0.029186
     27          6           0        8.875215    1.856900    0.133381
     28          6           0       10.401905    1.647905    0.444906
     29          6           0       10.498429    0.100928    0.584886
     30          6           0        9.099145   -0.423946    0.255179
     31          6           0       11.444220    2.236962   -0.632889
     32          6           0       11.111459   -0.309873    1.930537
     33          6           0       10.099094   -0.008306    3.065037
     34          7           0        6.330126   -1.529198    0.187484
     35          6           0        7.465332   -2.310262    0.378613
     36          6           0        7.123267   -3.694236    0.544572
     37          6           0        5.680359   -3.687633    0.351200
     38          6           0        5.284527   -2.350106    0.186484
     39          6           0        8.037325   -4.903560    0.775342
     40          6           0        4.487117   -4.582021    0.254723
     41          8           0        4.336509   -5.801117    0.295262
     42          6           0        3.289926   -3.584831    0.132067
     43          6           0        2.422054   -4.034896   -1.069044
     44          8           0        2.758657   -4.072033   -2.301349
     45          8           0        1.193553   -4.336282   -0.670664
     46          6           0        0.191640   -4.679714   -1.699746
     47          6           0       -3.351679   -3.160114    0.433295
     48          6           0       -4.827117   -2.583660    0.564941
     49          6           0       -5.979222   -3.253717    0.797750
     50          6           0       -6.064471   -4.708781    0.727544
     51          6           0       -7.286602   -2.414091    0.774517
     52          6           0       -7.731109   -1.818223   -0.652790
     53          6           0       -7.595434   -0.257047   -0.649282
     54          6           0       -9.009375    0.482485   -0.587857
     55          6           0       -9.362398    1.027157   -1.952605
     56          6           0       -8.977776    1.583314    0.454247
     57          6           0      -10.465788    2.229581    0.552877
     58          6           0      -11.060634    2.710851    1.854643
     59          6           0      -12.513203    3.104168    1.671540
     60          6           0      -13.009552    4.154255    2.727885
     61          6           0      -13.422364    1.808210    1.805437
     62          6           0      -14.479192    1.879973    0.682021
     63          6           0      -14.617557    0.553449   -0.090726
     64          6           0      -15.963255    0.359898   -0.819126
     65          6           0      -16.097974   -1.166489   -1.091539
     66          6           0      -16.205423    1.167807   -2.115017
     67          1           0        2.680695    3.136919   -1.376885
     68          1           0        8.917721    3.955066    0.243027
     69          1           0        9.501466   -2.424414    0.776165
     70          1           0        1.492432   -1.599372   -1.587551
     71          1           0        1.076041    1.254195   -0.619669
     72          1           0        1.827863    1.473371   -3.397336
     73          1           0        0.221966    1.462923   -2.831323
     74          1           0        1.138774   -0.059564   -3.340831
     75          1           0        1.073347   -0.684303    1.280396
     76          1           0        0.731103   -2.114419    0.436580
     77          1           0       -1.105236   -0.363138   -0.825059
     78          1           0       -0.925200    0.425371    0.728447
     79          1           0        3.907627    6.387307   -0.430736
     80          1           0        3.015641    5.231056   -1.437414
     81          1           0        4.405601    6.160151   -2.130048
     82          1           0        5.848191    7.494738    0.656132
     83          1           0        5.693947    7.460005   -1.052788
     84          1           0        7.172692    8.149282   -0.361282
     85          1           0       10.566443    2.033079    1.452014
     86          1           0       11.070530   -0.404342   -0.192760
     87          1           0       11.625357    3.294127   -0.438566
     88          1           0       11.065519    2.255181   -1.655296
     89          1           0       12.410594    1.732925   -0.601924
     90          1           0       11.980252    0.328943    2.094878
     91          1           0       11.362573   -1.369041    1.883683
     92          1           0        9.112876    0.274315    2.695085
     93          1           0       10.534137    0.794925    3.659417
     94          1           0        9.978963   -0.834663    3.764975
     95          1           0        8.928416   -4.609518    1.330400
     96          1           0        8.262636   -5.268031   -0.227881
     97          1           0        7.508298   -5.700046    1.297762
     98          1           0        2.787280   -3.676493    1.094962
     99          1           0        0.596858   -5.501187   -2.290712
    100          1           0       -0.090830   -3.742493   -2.180668
    101          1           0       -0.640761   -5.097558   -1.134660
    102          1           0       -3.067188   -3.688894    1.342456
    103          1           0       -3.465057   -3.876750   -0.380078
    104          1           0       -4.864173   -1.496090    0.628792
    105          1           0       -7.077294   -4.918700    0.383127
    106          1           0       -6.210210   -4.992979    1.769268
    107          1           0       -5.276667   -5.377924    0.380995
    108          1           0       -7.020309   -1.605856    1.454804
    109          1           0       -8.174853   -2.900763    1.179810
    110          1           0       -8.783306   -2.049913   -0.816776
    111          1           0       -7.052483   -2.213398   -1.408038
    112          1           0       -7.072913    0.035263   -1.559996
    113          1           0       -7.033048    0.087971    0.217469
    114          1           0       -9.704631   -0.282944   -0.240612
    115          1           0       -8.573948    1.100792   -2.701131
    116          1           0       -9.844045    2.004415   -1.921183
    117          1           0      -10.159275    0.424483   -2.386785
    118          1           0       -8.284756    2.382223    0.191127
    119          1           0       -8.583662    1.288542    1.426961
    120          1           0      -11.170128    1.482440    0.189352
    121          1           0      -10.521122    3.093283   -0.111124
    122          1           0      -10.417613    3.561398    2.081844
    123          1           0      -11.000445    2.095250    2.752120
    124          1           0      -12.626564    3.569390    0.693170
    125          1           0      -14.079725    4.022848    2.888407
    126          1           0      -12.750178    5.135960    2.331867
    127          1           0      -12.288292    4.099084    3.542510
    128          1           0      -13.935014    1.808366    2.766543
    129          1           0      -12.901468    0.854580    1.724799
    130          1           0      -14.491115    2.750873    0.027853
    131          1           0      -15.390164    1.896490    1.280421
    132          1           0      -14.487297   -0.149386    0.733116
    133          1           0      -13.838234    0.464192   -0.847830
    134          1           0      -16.790732    0.630455   -0.164592
    135          1           0      -16.433833   -1.339016   -2.114953
    136          1           0      -16.792318   -1.592832   -0.367995
    137          1           0      -15.134232   -1.665757   -0.992336
    138          1           0      -17.043271    1.752279   -1.735934
    139          1           0      -16.648616    0.581744   -2.919764
    140          1           0      -15.272290    1.668665   -2.373596
 ---------------------------------------------------------------------

 SCF Done:  E(RwB97XD) =  -3007.86170694     A.U. after   17 cycles

 Excitation energies and oscillator strengths:

 Excited State   1:      Singlet-A      1.7388 eV  713.05 nm  f=0.3577  <S**2>=0.000
     245 -> 248       -0.19140
     246 -> 247        0.68117
     245 <- 248       -0.11378
 This state for optimization and/or second-order correction.
 Total Energy, E(TD-HF/TD-DFT) =  -3007.79780757
 Copying the excited state density for this state as the 1-particle RhoCI density.

 Excited State   2:      Singlet-A      2.1954 eV  564.75 nm  f=0.1092  <S**2>=0.000
     245 -> 247        0.63573
     246 -> 248        0.29177

 Excited State   3:      Singlet-A      3.4724 eV  357.06 nm  f=0.1042  <S**2>=0.000
     239 -> 247       -0.10419
     240 -> 249        0.12782
     241 -> 247        0.38529
     241 -> 249        0.11102
     242 -> 247        0.21760
     243 -> 247        0.40229
     245 -> 247       -0.10321
     246 -> 248        0.24613

 Excited State   4:      Singlet-A      3.5058 eV  353.66 nm  f=0.1115  <S**2>=0.000
     240 -> 247       -0.20364
     240 -> 249       -0.14502
     241 -> 247       -0.17845
     243 -> 247        0.47606
     245 -> 247        0.10417
     246 -> 248       -0.34002

 Excited State   5:      Singlet-A      3.5759 eV  346.73 nm  f=0.3163  <S**2>=0.000
     239 -> 247        0.12950
     240 -> 247        0.40280
     240 -> 249        0.23610
     240 -> 250        0.12375
     241 -> 249        0.14126
     242 -> 247        0.10260
     245 -> 247        0.17748
     246 -> 248       -0.38664

 The electronic state is 1-A.
 Alpha  occ. eigenvalues --  -46.94690 -19.30957 -19.30831 -19.25730 -19.24798
 Alpha  occ. eigenvalues --  -19.23747 -19.23683 -14.46627 -14.46588 -14.44852
 Alpha  occ. eigenvalues --  -14.43549 -10.44019 -10.43438 -10.39947 -10.38857
 Alpha  occ. eigenvalues --  -10.36365 -10.36267 -10.36232 -10.36107 -10.35837
 Alpha  occ. eigenvalues --  -10.34776 -10.34506 -10.34394 -10.34274 -10.33017
 Alpha  occ. eigenvalues --  -10.32902 -10.32840 -10.32736 -10.32626 -10.32554
 Alpha  occ. eigenvalues --  -10.32459 -10.32280 -10.32204 -10.32175 -10.31898
 Alpha  occ. eigenvalues --  -10.31743 -10.31736 -10.30992 -10.30732 -10.30519
 Alpha  occ. eigenvalues --  -10.30495 -10.30337 -10.30159 -10.30093 -10.29999
 Alpha  occ. eigenvalues --  -10.29943 -10.29906 -10.29658 -10.29640 -10.29446
 Alpha  occ. eigenvalues --  -10.29365 -10.29229 -10.29194 -10.29130 -10.29096
 Alpha  occ. eigenvalues --  -10.29044 -10.28870 -10.28740 -10.28718 -10.28676
 Alpha  occ. eigenvalues --  -10.28342 -10.28203 -10.28123 -10.28094 -10.27993
 Alpha  occ. eigenvalues --  -10.27710  -3.20809  -1.94370  -1.93951  -1.93784
 Alpha  occ. eigenvalues --   -1.19029  -1.18617  -1.12442  -1.11184  -1.10528
 Alpha  occ. eigenvalues --   -1.06947  -1.05877  -1.05342  -1.04597  -1.03787
 Alpha  occ. eigenvalues --   -0.94637  -0.91940  -0.91532  -0.91527  -0.90656
 Alpha  occ. eigenvalues --   -0.90558  -0.90252  -0.89679  -0.89379  -0.89028
 Alpha  occ. eigenvalues --   -0.87743  -0.86759  -0.85583  -0.85271  -0.84924
 Alpha  occ. eigenvalues --   -0.84063  -0.83727  -0.83495  -0.82737  -0.82153
 Alpha  occ. eigenvalues --   -0.81536  -0.81389  -0.79975  -0.79460  -0.78261
 Alpha  occ. eigenvalues --   -0.77543  -0.77291  -0.77201  -0.76853  -0.75785
 Alpha  occ. eigenvalues --   -0.75211  -0.74654  -0.74293  -0.72725  -0.71948
 Alpha  occ. eigenvalues --   -0.70553  -0.70234  -0.69219  -0.67989  -0.67541
 Alpha  occ. eigenvalues --   -0.67141  -0.66609  -0.66477  -0.66229  -0.65563
 Alpha  occ. eigenvalues --   -0.65181  -0.64916  -0.64300  -0.64127  -0.62967
 Alpha  occ. eigenvalues --   -0.61535  -0.61404  -0.61091  -0.60224  -0.59838
 Alpha  occ. eigenvalues --   -0.59343  -0.58558  -0.58008  -0.57797  -0.57579
 Alpha  occ. eigenvalues --   -0.57076  -0.56769  -0.56664  -0.56519  -0.56367
 Alpha  occ. eigenvalues --   -0.55892  -0.55443  -0.55366  -0.55130  -0.54745
 Alpha  occ. eigenvalues --   -0.54591  -0.54365  -0.54046  -0.53909  -0.53829
 Alpha  occ. eigenvalues --   -0.53111  -0.53049  -0.52748  -0.52419  -0.52330
 Alpha  occ. eigenvalues --   -0.52193  -0.51951  -0.51814  -0.51723  -0.51487
 Alpha  occ. eigenvalues --   -0.51399  -0.51159  -0.50899  -0.50806  -0.50655
 Alpha  occ. eigenvalues --   -0.50403  -0.50326  -0.50305  -0.49946  -0.49724
 Alpha  occ. eigenvalues --   -0.49337  -0.49228  -0.49071  -0.48831  -0.48588
 Alpha  occ. eigenvalues --   -0.48487  -0.48240  -0.48130  -0.48012  -0.47829
 Alpha  occ. eigenvalues --   -0.47569  -0.47482  -0.47237  -0.47066  -0.46730
 Alpha  occ. eigenvalues --   -0.46503  -0.46348  -0.46236  -0.46128  -0.45801
 Alpha  occ. eigenvalues --   -0.45721  -0.45611  -0.45231  -0.45156  -0.45064
 Alpha  occ. eigenvalues --   -0.45008  -0.44604  -0.44506  -0.44225  -0.44015
 Alpha  occ. eigenvalues --   -0.43861  -0.43603  -0.43382  -0.43247  -0.43058
 Alpha  occ. eigenvalues --   -0.42949  -0.42734  -0.42369  -0.42227  -0.42151
 Alpha  occ. eigenvalues --   -0.41672  -0.41628  -0.40912  -0.40886  -0.40574
 Alpha  occ. eigenvalues --   -0.40338  -0.40021  -0.40004  -0.39552  -0.39534
 Alpha  occ. eigenvalues --   -0.39283  -0.39140  -0.38636  -0.38053  -0.37965
 Alpha  occ. eigenvalues --   -0.37901  -0.37805  -0.36722  -0.36164  -0.35949
 Alpha  occ. eigenvalues --   -0.35936  -0.35506  -0.35079  -0.34331  -0.33413
 Alpha  occ. eigenvalues --   -0.33029  -0.32270  -0.31386  -0.30937  -0.26172
 Alpha  occ. eigenvalues --   -0.23372
 Alpha virt. eigenvalues --   -0.07052  -0.00143   0.02197   0.04425   0.05490
 Alpha virt. eigenvalues --    0.06185   0.07219   0.08032   0.08252   0.09554
 Alpha virt. eigenvalues --    0.10821   0.11370   0.11711   0.12162   0.12391

 Mulliken charges:
               1
     1  Mg   0.973401
     2  C   -0.016080
     3  C   -0.073712
     4  C   -0.087959
     5  C   -0.099626
     6  N   -0.298991
     7  C    0.004025
     8  C   -0.073525
     9  C   -0.098274
    10  C    0.014951
    11  C    0.026996
    12  C   -0.017075
    13  C    0.005263
    14  C    0.207881
    15  O   -0.255084
    16  O   -0.364514
    17  N   -0.499360
    18  C    0.190948
    19  C   -0.162765
    20  C   -0.064799
    21  C    0.196199
    22  C    0.082840
    23  C    0.066620
    24  O   -0.236414
    25  C   -0.035167
    26  N   -0.438615
    27  C    0.060325
    28  C   -0.061594
    29  C   -0.077325
    30  C    0.084410
    31  C    0.010929
    32  C   -0.017462
    33  C   -0.070964
    34  N   -0.447288
    35  C    0.137758
    36  C   -0.190123
    37  C   -0.109907
    38  C    0.183560
    39  C    0.087545
    40  C    0.155741
    41  O   -0.213416
    42  C   -0.084659
    43  C    0.263585
    44  O   -0.311213
    45  O   -0.336517
    46  C    0.143886
    47  C    0.251009
    48  C   -0.171058
    49  C   -0.198715
    50  C    0.061064
    51  C   -0.003027
    52  C   -0.010314
    53  C    0.005719
    54  C   -0.198716
    55  C    0.018796
    56  C    0.032096
    57  C   -0.076128
    58  C    0.039394
    59  C   -0.223670
    60  C    0.034039
    61  C    0.011088
    62  C   -0.032957
    63  C   -0.022012
    64  C   -0.242371
    65  C    0.004062
    66  C    0.017574
    67  H   -0.007805
    68  H    0.024107
    69  H   -0.016707
    70  H    0.048199
    71  H    0.043987
    72  H    0.026719
    73  H    0.042573
    74  H    0.051469
    75  H    0.036640
    76  H    0.042724
    77  H    0.048112
    78  H    0.052328
    79  H    0.054886
    80  H    0.043739
    81  H    0.079831
    82  H    0.058258
    83  H    0.030338
    84  H    0.058950
    85  H    0.044246
    86  H    0.034362
    87  H    0.043328
    88  H    0.046519
    89  H    0.044579
    90  H    0.040390
    91  H    0.037720
    92  H    0.054410
    93  H    0.034078
    94  H    0.039224
    95  H    0.037720
    96  H    0.063564
    97  H    0.057843
    98  H    0.085332
    99  H    0.075806
   100  H    0.068607
   101  H    0.051551
   102  H    0.064522
   103  H    0.037382
   104  H    0.024064
   105  H    0.024239
   106  H    0.031479
   107  H    0.044318
   108  H    0.039712
   109  H    0.018154
   110  H    0.030290
   111  H    0.034472
   112  H    0.016740
   113  H    0.018914
   114  H    0.023583
   115  H    0.032151
   116  H    0.019383
   117  H    0.020193
   118  H    0.014993
   119  H    0.015817
   120  H    0.012076
   121  H    0.029168
   122  H   -0.000761
   123  H    0.015457
   124  H    0.016844
   125  H    0.042546
   126  H    0.018268
   127  H    0.023278
   128  H    0.021916
   129  H    0.021235
   130  H    0.025939
   131  H    0.003118
   132  H    0.020601
   133  H    0.024712
   134  H    0.015494
   135  H    0.016409
   136  H    0.032831
   137  H    0.024263
   138  H    0.029305
   139  H    0.028286
   140  H    0.040675
 Sum of Mulliken charges =  -0.00000

 Dipole moment (field-independent basis, Debye):
    X=             -2.6066    Y=              4.4299    Z=             -0.0052  Tot=              5.1399
 Quadrupole moment (field-independent basis, Debye-Ang):
   XX=           -371.1016   YY=           -413.2822   ZZ=           -411.2780
   XY=             14.6381   XZ=             17.9198   YZ=            -10.9501

 Normal termination of Gaussian 16 at Thu Apr 28 09:12:48 2022.
