 Gaussian 16, Revision A.03,
 Gaussian 16:  ES64L-G16RevA.03 25-Dec-2016

 --------------------
 #p ZINDO=(nstates=5)
 --------------------

 -----------------------------
 step_151_chromophore_10 ZINDO
 -----------------------------
 Symbolic Z-matrix:
 Charge =  0 Multiplicity = 1

                         Standard orientation:
 ---------------------------------------------------------------------
 Center     Atomic      Atomic             Coordinates (Angstroms)
 Number     Number       Type             X           Y           Z
 ---------------------------------------------------------------------
      1         12           0        6.204942    0.504872    0.052005
      2          6           0        3.918538   -2.240433   -0.122939
      3          6           0        3.550482    2.543917   -1.086940
      4          6           0        8.226899    3.128526    0.062439
      5          6           0        8.725399   -1.732666    0.443279
      6          7           0        3.917515    0.058315   -0.684068
      7          6           0        3.256760   -1.107219   -0.497417
      8          6           0        1.783663   -0.842452   -0.859895
      9          6           0        1.692787    0.710456   -1.335196
     10          6           0        3.153111    1.153562   -1.018539
     11          6           0        1.142505    0.880906   -2.790595
     12          6           0        0.732033   -1.031412    0.305944
     13          6           0       -0.768950   -0.515042    0.199938
     14          6           0       -1.874375   -1.337742    0.895142
     15          8           0       -2.249648   -1.259028    2.064534
     16          8           0       -2.432694   -2.180550   -0.063418
     17          7           0        5.924283    2.508988   -0.272963
     18          6           0        4.773895    3.191602   -0.774032
     19          6           0        4.997684    4.643374   -0.755950
     20          6           0        6.308820    4.755276   -0.329418
     21          6           0        6.908945    3.445303   -0.183003
     22          6           0        3.994542    5.670331   -1.248027
     23          6           0        7.144669    6.010148   -0.137614
     24          8           0        8.352903    6.120795    0.092328
     25          6           0        6.430155    7.359154   -0.255366
     26          7           0        8.236988    0.636840   -0.029186
     27          6           0        8.875215    1.856900    0.133381
     28          6           0       10.401905    1.647905    0.444906
     29          6           0       10.498429    0.100928    0.584886
     30          6           0        9.099145   -0.423946    0.255179
     31          6           0       11.444220    2.236962   -0.632889
     32          6           0       11.111459   -0.309873    1.930537
     33          6           0       10.099094   -0.008306    3.065037
     34          7           0        6.330126   -1.529198    0.187484
     35          6           0        7.465332   -2.310262    0.378613
     36          6           0        7.123267   -3.694236    0.544572
     37          6           0        5.680359   -3.687633    0.351200
     38          6           0        5.284527   -2.350106    0.186484
     39          6           0        8.037325   -4.903560    0.775342
     40          6           0        4.487117   -4.582021    0.254723
     41          8           0        4.336509   -5.801117    0.295262
     42          6           0        3.289926   -3.584831    0.132067
     43          6           0        2.422054   -4.034896   -1.069044
     44          8           0        2.758657   -4.072033   -2.301349
     45          8           0        1.193553   -4.336282   -0.670664
     46          6           0        0.191640   -4.679714   -1.699746
     47          6           0       -3.351679   -3.160114    0.433295
     48          6           0       -4.827117   -2.583660    0.564941
     49          6           0       -5.979222   -3.253717    0.797750
     50          6           0       -6.064471   -4.708781    0.727544
     51          6           0       -7.286602   -2.414091    0.774517
     52          6           0       -7.731109   -1.818223   -0.652790
     53          6           0       -7.595434   -0.257047   -0.649282
     54          6           0       -9.009375    0.482485   -0.587857
     55          6           0       -9.362398    1.027157   -1.952605
     56          6           0       -8.977776    1.583314    0.454247
     57          6           0      -10.465788    2.229581    0.552877
     58          6           0      -11.060634    2.710851    1.854643
     59          6           0      -12.513203    3.104168    1.671540
     60          6           0      -13.009552    4.154255    2.727885
     61          6           0      -13.422364    1.808210    1.805437
     62          6           0      -14.479192    1.879973    0.682021
     63          6           0      -14.617557    0.553449   -0.090726
     64          6           0      -15.963255    0.359898   -0.819126
     65          6           0      -16.097974   -1.166489   -1.091539
     66          6           0      -16.205423    1.167807   -2.115017
     67          1           0        2.680695    3.136919   -1.376885
     68          1           0        8.917721    3.955066    0.243027
     69          1           0        9.501466   -2.424414    0.776165
     70          1           0        1.492432   -1.599372   -1.587551
     71          1           0        1.076041    1.254195   -0.619669
     72          1           0        1.827863    1.473371   -3.397336
     73          1           0        0.221966    1.462923   -2.831323
     74          1           0        1.138774   -0.059564   -3.340831
     75          1           0        1.073347   -0.684303    1.280396
     76          1           0        0.731103   -2.114419    0.436580
     77          1           0       -1.105236   -0.363138   -0.825059
     78          1           0       -0.925200    0.425371    0.728447
     79          1           0        3.907627    6.387307   -0.430736
     80          1           0        3.015641    5.231056   -1.437414
     81          1           0        4.405601    6.160151   -2.130048
     82          1           0        5.848191    7.494738    0.656132
     83          1           0        5.693947    7.460005   -1.052788
     84          1           0        7.172692    8.149282   -0.361282
     85          1           0       10.566443    2.033079    1.452014
     86          1           0       11.070530   -0.404342   -0.192760
     87          1           0       11.625357    3.294127   -0.438566
     88          1           0       11.065519    2.255181   -1.655296
     89          1           0       12.410594    1.732925   -0.601924
     90          1           0       11.980252    0.328943    2.094878
     91          1           0       11.362573   -1.369041    1.883683
     92          1           0        9.112876    0.274315    2.695085
     93          1           0       10.534137    0.794925    3.659417
     94          1           0        9.978963   -0.834663    3.764975
     95          1           0        8.928416   -4.609518    1.330400
     96          1           0        8.262636   -5.268031   -0.227881
     97          1           0        7.508298   -5.700046    1.297762
     98          1           0        2.787280   -3.676493    1.094962
     99          1           0        0.596858   -5.501187   -2.290712
    100          1           0       -0.090830   -3.742493   -2.180668
    101          1           0       -0.640761   -5.097558   -1.134660
    102          1           0       -3.067188   -3.688894    1.342456
    103          1           0       -3.465057   -3.876750   -0.380078
    104          1           0       -4.864173   -1.496090    0.628792
    105          1           0       -7.077294   -4.918700    0.383127
    106          1           0       -6.210210   -4.992979    1.769268
    107          1           0       -5.276667   -5.377924    0.380995
    108          1           0       -7.020309   -1.605856    1.454804
    109          1           0       -8.174853   -2.900763    1.179810
    110          1           0       -8.783306   -2.049913   -0.816776
    111          1           0       -7.052483   -2.213398   -1.408038
    112          1           0       -7.072913    0.035263   -1.559996
    113          1           0       -7.033048    0.087971    0.217469
    114          1           0       -9.704631   -0.282944   -0.240612
    115          1           0       -8.573948    1.100792   -2.701131
    116          1           0       -9.844045    2.004415   -1.921183
    117          1           0      -10.159275    0.424483   -2.386785
    118          1           0       -8.284756    2.382223    0.191127
    119          1           0       -8.583662    1.288542    1.426961
    120          1           0      -11.170128    1.482440    0.189352
    121          1           0      -10.521122    3.093283   -0.111124
    122          1           0      -10.417613    3.561398    2.081844
    123          1           0      -11.000445    2.095250    2.752120
    124          1           0      -12.626564    3.569390    0.693170
    125          1           0      -14.079725    4.022848    2.888407
    126          1           0      -12.750178    5.135960    2.331867
    127          1           0      -12.288292    4.099084    3.542510
    128          1           0      -13.935014    1.808366    2.766543
    129          1           0      -12.901468    0.854580    1.724799
    130          1           0      -14.491115    2.750873    0.027853
    131          1           0      -15.390164    1.896490    1.280421
    132          1           0      -14.487297   -0.149386    0.733116
    133          1           0      -13.838234    0.464192   -0.847830
    134          1           0      -16.790732    0.630455   -0.164592
    135          1           0      -16.433833   -1.339016   -2.114953
    136          1           0      -16.792318   -1.592832   -0.367995
    137          1           0      -15.134232   -1.665757   -0.992336
    138          1           0      -17.043271    1.752279   -1.735934
    139          1           0      -16.648616    0.581744   -2.919764
    140          1           0      -15.272290    1.668665   -2.373596
 ---------------------------------------------------------------------

 SCF Done:  E(RZINDO/S) =  -473.937958439     A.U. after   19 cycles

 Excitation energies and oscillator strengths:

 Excited State   1:      Singlet-A      1.3456 eV  921.42 nm  f=0.5379  <S**2>=0.000
     175 ->178         0.17394
     176 ->177         0.66912
 This state for optimization and/or second-order correction.
 Total Energy, E(CIS/TDA) =  -473.888509498
 Copying the excited state density for this state as the 1-particle RhoCI density.

 Excited State   2:      Singlet-A      1.9352 eV  640.67 nm  f=0.0392  <S**2>=0.000
     175 ->177         0.54232
     176 ->178        -0.42059

 Excited State   3:      Singlet-A      2.8669 eV  432.47 nm  f=0.0224  <S**2>=0.000
     168 ->177         0.29695
     168 ->179        -0.43000
     168 ->180        -0.16131
     168 ->181         0.10795
     168 ->185        -0.22610
     170 ->177        -0.15088
     170 ->179         0.16047

 Excited State   4:      Singlet-A      2.9985 eV  413.49 nm  f=1.1086  <S**2>=0.000
     175 ->177         0.38895
     176 ->178         0.52602

 Excited State   5:      Singlet-A      3.1113 eV  398.49 nm  f=0.0501  <S**2>=0.000
     171 ->177         0.24434
     171 ->178        -0.11128
     171 ->179         0.21336
     171 ->180        -0.29381
     171 ->181         0.24010
     171 ->183        -0.12811
     171 ->185         0.17077
     171 ->188         0.16538
     171 ->202        -0.11877
     176 ->179         0.19951

 The electronic state is 1-A.
 Alpha  occ. eigenvalues --   -1.83328  -1.81032  -1.77995  -1.72454  -1.71845
 Alpha  occ. eigenvalues --   -1.69604  -1.65585  -1.60794  -1.59127  -1.58157
 Alpha  occ. eigenvalues --   -1.55601  -1.51328  -1.47784  -1.47002  -1.46578
 Alpha  occ. eigenvalues --   -1.43092  -1.41419  -1.40173  -1.38574  -1.37375
 Alpha  occ. eigenvalues --   -1.35008  -1.33562  -1.31991  -1.30892  -1.27627
 Alpha  occ. eigenvalues --   -1.26311  -1.24339  -1.22019  -1.20506  -1.18064
 Alpha  occ. eigenvalues --   -1.17057  -1.15522  -1.15042  -1.14045  -1.13280
 Alpha  occ. eigenvalues --   -1.12886  -1.12377  -1.10391  -1.05629  -1.03601
 Alpha  occ. eigenvalues --   -1.03013  -1.01530  -0.99938  -0.98862  -0.97367
 Alpha  occ. eigenvalues --   -0.95913  -0.94162  -0.93247  -0.92330  -0.92139
 Alpha  occ. eigenvalues --   -0.90114  -0.89672  -0.88420  -0.87838  -0.86958
 Alpha  occ. eigenvalues --   -0.85461  -0.83199  -0.82578  -0.81782  -0.80491
 Alpha  occ. eigenvalues --   -0.79879  -0.78278  -0.77909  -0.76337  -0.76044
 Alpha  occ. eigenvalues --   -0.75847  -0.75064  -0.74664  -0.74290  -0.73779
 Alpha  occ. eigenvalues --   -0.72753  -0.72503  -0.71563  -0.71017  -0.70118
 Alpha  occ. eigenvalues --   -0.70014  -0.68748  -0.68351  -0.68180  -0.67683
 Alpha  occ. eigenvalues --   -0.67579  -0.67454  -0.67155  -0.66563  -0.66119
 Alpha  occ. eigenvalues --   -0.65329  -0.64918  -0.64260  -0.63750  -0.63428
 Alpha  occ. eigenvalues --   -0.62891  -0.62316  -0.62064  -0.62036  -0.61715
 Alpha  occ. eigenvalues --   -0.61374  -0.61169  -0.61021  -0.60602  -0.60461
 Alpha  occ. eigenvalues --   -0.60231  -0.59625  -0.59165  -0.58710  -0.58394
 Alpha  occ. eigenvalues --   -0.57542  -0.57310  -0.57033  -0.56695  -0.56644
 Alpha  occ. eigenvalues --   -0.56248  -0.55833  -0.55794  -0.55311  -0.54923
 Alpha  occ. eigenvalues --   -0.54800  -0.54344  -0.54012  -0.53335  -0.52946
 Alpha  occ. eigenvalues --   -0.52762  -0.52634  -0.52122  -0.51824  -0.51413
 Alpha  occ. eigenvalues --   -0.51080  -0.50782  -0.50687  -0.50037  -0.49904
 Alpha  occ. eigenvalues --   -0.49528  -0.49441  -0.49151  -0.49058  -0.49019
 Alpha  occ. eigenvalues --   -0.48655  -0.48375  -0.48249  -0.48090  -0.48005
 Alpha  occ. eigenvalues --   -0.47679  -0.47320  -0.47267  -0.46921  -0.46555
 Alpha  occ. eigenvalues --   -0.46190  -0.46028  -0.45741  -0.45449  -0.45330
 Alpha  occ. eigenvalues --   -0.45142  -0.45043  -0.44742  -0.44459  -0.44324
 Alpha  occ. eigenvalues --   -0.44116  -0.43833  -0.42641  -0.42464  -0.42120
 Alpha  occ. eigenvalues --   -0.41722  -0.41008  -0.40314  -0.39488  -0.39278
 Alpha  occ. eigenvalues --   -0.37787  -0.37218  -0.36212  -0.35146  -0.34927
 Alpha  occ. eigenvalues --   -0.34304  -0.32830  -0.31524  -0.31415  -0.26957
 Alpha  occ. eigenvalues --   -0.22201
 Alpha virt. eigenvalues --   -0.08500  -0.02450  -0.00867   0.01253   0.01484
 Alpha virt. eigenvalues --    0.02284   0.02591   0.02769   0.04213   0.04833
 Alpha virt. eigenvalues --    0.05941   0.06326   0.07021   0.07153   0.07458

 Mulliken charges:
               1
     1  Mg   0.428690
     2  C   -0.006902
     3  C   -0.077410
     4  C   -0.080780
     5  C   -0.052937
     6  N   -0.286445
     7  C    0.099069
     8  C    0.003190
     9  C   -0.000330
    10  C    0.152880
    11  C   -0.050536
    12  C   -0.027174
    13  C    0.002470
    14  C    0.467088
    15  O   -0.506655
    16  O   -0.269701
    17  N   -0.347112
    18  C    0.120689
    19  C    0.040399
    20  C   -0.023218
    21  C    0.173818
    22  C   -0.034915
    23  C    0.321367
    24  O   -0.513777
    25  C   -0.038330
    26  N   -0.280642
    27  C    0.170284
    28  C    0.006028
    29  C   -0.000260
    30  C    0.089184
    31  C   -0.050252
    32  C   -0.026508
    33  C   -0.057897
    34  N   -0.314538
    35  C    0.075128
    36  C   -0.005657
    37  C   -0.076461
    38  C    0.108175
    39  C   -0.036293
    40  C    0.329108
    41  O   -0.522693
    42  C    0.056359
    43  C    0.484716
    44  O   -0.557823
    45  O   -0.259253
    46  C    0.077487
    47  C    0.102764
    48  C   -0.097293
    49  C    0.001679
    50  C   -0.046900
    51  C   -0.029584
    52  C   -0.037328
    53  C   -0.048439
    54  C   -0.002426
    55  C   -0.053108
    56  C   -0.034300
    57  C   -0.044063
    58  C   -0.028294
    59  C   -0.018067
    60  C   -0.069612
    61  C   -0.036751
    62  C   -0.050159
    63  C   -0.031541
    64  C   -0.019192
    65  C   -0.063816
    66  C   -0.065916
    67  H    0.025594
    68  H    0.043709
    69  H    0.020817
    70  H    0.043626
    71  H    0.031772
    72  H    0.014400
    73  H    0.026057
    74  H    0.035348
    75  H    0.026714
    76  H    0.017860
    77  H    0.036237
    78  H    0.035899
    79  H    0.033452
    80  H    0.031219
    81  H    0.042196
    82  H    0.035690
    83  H    0.028832
    84  H    0.039434
    85  H    0.040111
    86  H    0.021781
    87  H    0.018740
    88  H    0.028147
    89  H    0.026258
    90  H    0.019991
    91  H    0.024545
    92  H    0.030854
    93  H    0.013189
    94  H    0.017357
    95  H    0.024828
    96  H    0.036392
    97  H    0.033511
    98  H    0.062931
    99  H    0.060312
   100  H    0.049336
   101  H    0.027083
   102  H    0.059908
   103  H    0.027398
   104  H    0.030823
   105  H    0.022915
   106  H    0.022166
   107  H    0.039646
   108  H    0.025293
   109  H    0.019162
   110  H    0.026837
   111  H    0.026157
   112  H    0.017450
   113  H    0.023961
   114  H    0.025830
   115  H    0.023701
   116  H    0.014837
   117  H    0.008704
   118  H    0.014775
   119  H    0.019080
   120  H    0.013612
   121  H    0.020041
   122  H    0.002492
   123  H    0.021763
   124  H    0.023487
   125  H    0.035108
   126  H    0.009540
   127  H    0.026473
   128  H    0.020679
   129  H    0.022608
   130  H    0.029216
   131  H    0.006264
   132  H    0.021229
   133  H    0.020664
   134  H    0.016640
   135  H    0.016805
   136  H    0.017680
   137  H    0.016165
   138  H    0.021520
   139  H    0.024321
   140  H    0.031539
 Sum of Mulliken charges =   0.00000

 Dipole moment (field-independent basis, Debye):
    X=             -4.2726    Y=              8.8369    Z=              0.1195  Tot=              9.8163
 N-N= 4.231889942680D+03 E-N= 0.000000000000D+00  KE=-9.137763048832D+03
 Leave Link  601 at Thu Apr 28 09:24:38 2022, MaxMem=  6710886400 cpu:               0.8 elap:               0.0
 (Enter /sw/apps/gaussian-16.0/g16/l9999.exe)
 1\1\GINC-BP1-COMPUTE165\SP\RZINDO CIS\STO-3G\C55H74Mg1N4O6\OF15641\28-
 Apr-2022\0\\#p ZINDO=(nstates=5)\\step_151_chromophore_10 ZINDO\\0,1\M
 g,0,41.52,8.296,28.888\C,0,43.471,9.572,31.601\C,0,39.298,7.029,31.329
 \C,0,39.66,6.965,26.492\C,0,44.117,8.979,26.814\N,0,41.543,8.227,31.33
 1\C,0,42.374,8.947,32.119\C,0,41.85,8.804,33.56\C,0,40.553,7.825,33.48
 9\C,0,40.441,7.672,31.942\C,0,40.697,6.542,34.374\C,0,41.384,10.138,34
 .27\C,0,40.544,10.143,35.621\C,0,40.787,11.288,36.627\O,0,40.256,12.39

 Normal termination of Gaussian 16 at Thu Apr 28 09:24:38 2022.
