 Gaussian 16, Revision A.03,
 Gaussian 16:  ES64L-G16RevA.03 25-Dec-2016

 ------------------------------
 #p blyp/Def2SVP td=(nstates=5)
 ------------------------------

 --------------------------------------------------
 step_351_chromophore_24 TDDFT with blyp functional
 --------------------------------------------------
 Symbolic Z-matrix:
 Charge =  0 Multiplicity = 1

                         Standard orientation:
 ---------------------------------------------------------------------
 Center     Atomic      Atomic             Coordinates (Angstroms)
 Number     Number       Type             X           Y           Z
 ---------------------------------------------------------------------
      1         12           0        5.356645    0.999388    0.380497
      2          6           0        4.321816   -2.445119    0.599024
      3          6           0        2.112109    1.802490   -0.085047
      4          6           0        6.504930    4.000753   -0.461628
      5          6           0        8.712737   -0.164662    0.500121
      6          7           0        3.383592   -0.290964    0.024139
      7          6           0        3.224835   -1.559229    0.354681
      8          6           0        1.746615   -1.968226    0.354275
      9          6           0        1.085255   -0.630712   -0.101725
     10          6           0        2.222992    0.411269   -0.036990
     11          6           0        0.235705   -0.704468   -1.375725
     12          6           0        1.186542   -2.444317    1.730309
     13          6           0       -0.021610   -3.439390    1.707553
     14          6           0       -0.793227   -3.596292    0.352226
     15          8           0       -0.274193   -4.071080   -0.613124
     16          8           0       -2.036203   -2.949909    0.284099
     17          7           0        4.475592    2.715669   -0.090228
     18          6           0        3.089253    2.852461   -0.209717
     19          6           0        2.808415    4.344247   -0.447056
     20          6           0        4.145542    4.934738   -0.626853
     21          6           0        5.121149    3.888476   -0.404208
     22          6           0        1.428723    4.961768   -0.622502
     23          6           0        4.525306    6.303583   -1.104174
     24          8           0        5.648626    6.756917   -0.968732
     25          6           0        3.456649    7.250412   -1.563556
     26          7           0        7.264379    1.824235    0.182396
     27          6           0        7.434044    3.076818   -0.238435
     28          6           0        8.945196    3.405462   -0.319497
     29          6           0        9.674330    2.151658    0.235237
     30          6           0        8.458302    1.236306    0.334134
     31          6           0        9.504191    3.879812   -1.719548
     32          6           0       10.298714    2.324631    1.644844
     33          6           0        9.298042    2.686228    2.775696
     34          7           0        6.342090   -0.837985    0.594333
     35          6           0        7.726077   -1.190325    0.604678
     36          6           0        7.936061   -2.577374    0.609348
     37          6           0        6.602330   -3.100109    0.643806
     38          6           0        5.655096   -1.986153    0.664557
     39          6           0        9.265401   -3.346938    0.516478
     40          6           0        5.839498   -4.393266    0.563097
     41          8           0        6.252074   -5.516543    0.305603
     42          6           0        4.313125   -4.004613    0.667387
     43          6           0        3.716406   -4.610718   -0.573625
     44          8           0        4.112898   -4.344715   -1.684474
     45          8           0        2.755085   -5.525681   -0.263545
     46          6           0        2.206286   -6.256381   -1.438218
     47          6           0       -2.805044   -3.334626   -0.890165
     48          6           0       -4.260050   -2.861719   -0.717071
     49          6           0       -5.386425   -3.603084   -0.876053
     50          6           0       -5.352010   -4.985407   -1.387775
     51          6           0       -6.829873   -2.913443   -0.940738
     52          6           0       -7.316122   -1.878003    0.196066
     53          6           0       -7.494310   -0.475134   -0.288632
     54          6           0       -8.937858    0.136568    0.105601
     55          6           0       -9.133757    0.448202    1.598409
     56          6           0       -9.090063    1.424163   -0.665244
     57          6           0       -9.930771    1.219062   -1.953063
     58          6           0      -11.310908    2.017315   -1.986489
     59          6           0      -12.558629    1.147657   -1.845763
     60          6           0      -13.196622    0.857554   -3.247103
     61          6           0      -13.587871    1.732622   -0.772455
     62          6           0      -13.343711    0.974255    0.513101
     63          6           0      -13.916237    1.687951    1.788764
     64          6           0      -12.915004    1.993973    2.906679
     65          6           0      -13.456287    1.879302    4.341115
     66          6           0      -12.337103    3.459747    2.615388
     67          1           0        1.072038    2.133936   -0.068873
     68          1           0        7.042062    4.933797   -0.645069
     69          1           0        9.736584   -0.539030    0.570062
     70          1           0        1.571382   -2.682289   -0.449673
     71          1           0        0.302278   -0.468940    0.639039
     72          1           0       -0.839066   -0.695527   -1.193263
     73          1           0        0.441062   -1.657227   -1.862125
     74          1           0        0.571944    0.125310   -1.998601
     75          1           0        0.841217   -1.634312    2.372318
     76          1           0        1.996196   -2.854384    2.334493
     77          1           0       -0.699938   -3.393164    2.559755
     78          1           0        0.371210   -4.436209    1.906619
     79          1           0        1.279462    5.363896   -1.624847
     80          1           0        1.278119    5.677373    0.185581
     81          1           0        0.632052    4.221311   -0.553299
     82          1           0        2.961021    6.978881   -2.495671
     83          1           0        3.796539    8.253705   -1.821395
     84          1           0        2.825295    7.337198   -0.679884
     85          1           0        9.104926    4.316117    0.257257
     86          1           0       10.405334    1.741960   -0.462077
     87          1           0       10.311053    4.574266   -1.485085
     88          1           0        8.865395    4.445749   -2.397612
     89          1           0        9.809122    3.028312   -2.326967
     90          1           0       10.827321    3.277216    1.682754
     91          1           0       10.841272    1.408299    1.874914
     92          1           0        8.968010    1.774308    3.272298
     93          1           0        8.443606    3.285912    2.462731
     94          1           0        9.677877    3.278834    3.608957
     95          1           0        9.703433   -3.389941    1.512945
     96          1           0        9.912088   -2.890484   -0.233333
     97          1           0        8.946717   -4.311479    0.121431
     98          1           0        3.998255   -4.548298    1.557700
     99          1           0        2.951415   -6.836659   -1.981403
    100          1           0        1.800324   -5.525470   -2.137682
    101          1           0        1.473138   -7.006195   -1.140806
    102          1           0       -2.605736   -4.380864   -1.121152
    103          1           0       -2.520440   -2.658905   -1.695881
    104          1           0       -4.249397   -1.786431   -0.538828
    105          1           0       -4.544049   -5.077907   -2.112820
    106          1           0       -6.235998   -5.409256   -1.863774
    107          1           0       -5.008023   -5.691962   -0.631293
    108          1           0       -7.549840   -3.728408   -1.020344
    109          1           0       -6.863155   -2.417253   -1.910674
    110          1           0       -6.556704   -1.913255    0.977405
    111          1           0       -8.241154   -2.357096    0.519021
    112          1           0       -7.469888   -0.408680   -1.376117
    113          1           0       -6.643328    0.025221    0.173934
    114          1           0       -9.653769   -0.604794   -0.249665
    115          1           0       -8.190929    0.679005    2.093672
    116          1           0       -9.661081   -0.330455    2.150787
    117          1           0       -9.729771    1.343514    1.778850
    118          1           0       -8.094224    1.731719   -0.986687
    119          1           0       -9.479490    2.287419   -0.126294
    120          1           0      -10.030660    0.169849   -2.232829
    121          1           0       -9.233255    1.607292   -2.695672
    122          1           0      -11.384895    2.510759   -2.955650
    123          1           0      -11.340544    2.834668   -1.266944
    124          1           0      -12.304808    0.150548   -1.487715
    125          1           0      -12.774160    1.393228   -4.096776
    126          1           0      -14.252666    1.111290   -3.332255
    127          1           0      -13.101285   -0.198098   -3.502473
    128          1           0      -14.609153    1.450759   -1.027412
    129          1           0      -13.436650    2.776305   -0.496214
    130          1           0      -12.282724    0.746397    0.611479
    131          1           0      -13.835542    0.007369    0.411622
    132          1           0      -14.654693    1.003614    2.205707
    133          1           0      -14.423650    2.628849    1.572951
    134          1           0      -12.063066    1.320312    2.820235
    135          1           0      -13.719304    2.892425    4.646644
    136          1           0      -12.810131    1.559592    5.159351
    137          1           0      -14.342552    1.245196    4.333097
    138          1           0      -12.734767    3.965207    1.736279
    139          1           0      -11.268432    3.244892    2.625415
    140          1           0      -12.493503    4.211288    3.389649
 ---------------------------------------------------------------------

 SCF Done:  E(RB-LYP) =  -3007.35917426     A.U. after   20 cycles

 Excitation energies and oscillator strengths:

 Excited State   1:      Singlet-A      1.8115 eV  684.44 nm  f=0.2282  <S**2>=0.000
     244 -> 247        0.28160
     245 -> 248       -0.17802
     246 -> 247        0.62137
     246 <- 247       -0.12954
 This state for optimization and/or second-order correction.
 Total Energy, E(TD-HF/TD-DFT) =  -3007.29260353
 Copying the excited state density for this state as the 1-particle RhoCI density.

 Excited State   2:      Singlet-A      1.8751 eV  661.23 nm  f=0.0571  <S**2>=0.000
     244 -> 247        0.64617
     246 -> 247       -0.27264

 Excited State   3:      Singlet-A      1.9592 eV  632.84 nm  f=0.0560  <S**2>=0.000
     243 -> 247        0.49643
     245 -> 247        0.46392
     246 -> 247       -0.12176
     246 -> 248        0.13850

 Excited State   4:      Singlet-A      2.0944 eV  591.99 nm  f=0.0491  <S**2>=0.000
     243 -> 247        0.48787
     245 -> 247       -0.45036
     246 -> 248       -0.21722

 Excited State   5:      Singlet-A      2.4797 eV  500.00 nm  f=0.0001  <S**2>=0.000
     240 -> 247        0.68879
     241 -> 247        0.12062
     242 -> 247       -0.10428

 The electronic state is 1-A.
 Alpha  occ. eigenvalues --  -46.26739 -18.82382 -18.81669 -18.78328 -18.75746
 Alpha  occ. eigenvalues --  -18.75618 -18.74960 -14.02797 -14.02579 -14.01302
 Alpha  occ. eigenvalues --  -14.00677 -10.05073 -10.02923  -9.99559  -9.99295
 Alpha  occ. eigenvalues --   -9.98211  -9.96712  -9.96695  -9.96469  -9.96398
 Alpha  occ. eigenvalues --   -9.96267  -9.95508  -9.95113  -9.94846  -9.94792
 Alpha  occ. eigenvalues --   -9.94639  -9.94353  -9.94083  -9.94006  -9.93934
 Alpha  occ. eigenvalues --   -9.93899  -9.93492  -9.93456  -9.93424  -9.93308
 Alpha  occ. eigenvalues --   -9.93306  -9.93297  -9.93045  -9.92951  -9.92763
 Alpha  occ. eigenvalues --   -9.92617  -9.92526  -9.92474  -9.92458  -9.92359
 Alpha  occ. eigenvalues --   -9.92246  -9.92161  -9.92149  -9.91893  -9.91786
 Alpha  occ. eigenvalues --   -9.91694  -9.91581  -9.91436  -9.91435  -9.91394
 Alpha  occ. eigenvalues --   -9.91393  -9.91362  -9.91138  -9.90999  -9.90948
 Alpha  occ. eigenvalues --   -9.90918  -9.90895  -9.90748  -9.90705  -9.90647
 Alpha  occ. eigenvalues --   -9.90590  -2.91487  -1.71901  -1.71398  -1.71182
 Alpha  occ. eigenvalues --   -0.98948  -0.97031  -0.91487  -0.91418  -0.91047
 Alpha  occ. eigenvalues --   -0.89226  -0.87069  -0.86601  -0.84512  -0.83933
 Alpha  occ. eigenvalues --   -0.74068  -0.73422  -0.72824  -0.72459  -0.72381
 Alpha  occ. eigenvalues --   -0.72113  -0.71411  -0.70626  -0.70208  -0.69692
 Alpha  occ. eigenvalues --   -0.69357  -0.68695  -0.68102  -0.66873  -0.66675
 Alpha  occ. eigenvalues --   -0.66371  -0.65637  -0.65231  -0.64518  -0.64078
 Alpha  occ. eigenvalues --   -0.63897  -0.62412  -0.62002  -0.61477  -0.60509
 Alpha  occ. eigenvalues --   -0.60366  -0.59969  -0.59692  -0.59503  -0.59130
 Alpha  occ. eigenvalues --   -0.58132  -0.57538  -0.56376  -0.55781  -0.54999
 Alpha  occ. eigenvalues --   -0.54216  -0.52943  -0.52118  -0.51983  -0.51150
 Alpha  occ. eigenvalues --   -0.51086  -0.50951  -0.50368  -0.50207  -0.49874
 Alpha  occ. eigenvalues --   -0.49805  -0.49656  -0.48737  -0.47736  -0.47519
 Alpha  occ. eigenvalues --   -0.46412  -0.45862  -0.45558  -0.44841  -0.43933
 Alpha  occ. eigenvalues --   -0.43602  -0.43215  -0.43073  -0.42379  -0.41875
 Alpha  occ. eigenvalues --   -0.41806  -0.41603  -0.41384  -0.41178  -0.41008
 Alpha  occ. eigenvalues --   -0.40898  -0.40760  -0.40519  -0.40411  -0.40006
 Alpha  occ. eigenvalues --   -0.39969  -0.39483  -0.39341  -0.39156  -0.39063
 Alpha  occ. eigenvalues --   -0.38778  -0.38440  -0.38273  -0.38190  -0.38177
 Alpha  occ. eigenvalues --   -0.37968  -0.37744  -0.37494  -0.37079  -0.36922
 Alpha  occ. eigenvalues --   -0.36817  -0.36567  -0.36513  -0.36367  -0.36284
 Alpha  occ. eigenvalues --   -0.36151  -0.35986  -0.35759  -0.35659  -0.35360
 Alpha  occ. eigenvalues --   -0.35122  -0.35103  -0.34911  -0.34841  -0.34415
 Alpha  occ. eigenvalues --   -0.34387  -0.34265  -0.34130  -0.33981  -0.33795
 Alpha  occ. eigenvalues --   -0.33622  -0.33520  -0.33428  -0.32996  -0.32926
 Alpha  occ. eigenvalues --   -0.32836  -0.32548  -0.32422  -0.32197  -0.32053
 Alpha  occ. eigenvalues --   -0.31981  -0.31893  -0.31549  -0.31423  -0.31323
 Alpha  occ. eigenvalues --   -0.31260  -0.31060  -0.30917  -0.30682  -0.30635
 Alpha  occ. eigenvalues --   -0.30383  -0.30253  -0.30217  -0.29946  -0.29850
 Alpha  occ. eigenvalues --   -0.29792  -0.29347  -0.29291  -0.29069  -0.28963
 Alpha  occ. eigenvalues --   -0.28562  -0.28479  -0.27978  -0.27862  -0.27635
 Alpha  occ. eigenvalues --   -0.27432  -0.27391  -0.27137  -0.26623  -0.26325
 Alpha  occ. eigenvalues --   -0.26071  -0.25882  -0.25520  -0.25410  -0.25068
 Alpha  occ. eigenvalues --   -0.24931  -0.24491  -0.24327  -0.23829  -0.23679
 Alpha  occ. eigenvalues --   -0.23111  -0.22997  -0.21851  -0.21134  -0.20389
 Alpha  occ. eigenvalues --   -0.20358  -0.20167  -0.18539  -0.18044  -0.17008
 Alpha  occ. eigenvalues --   -0.15634
 Alpha virt. eigenvalues --   -0.11273  -0.06435  -0.05836  -0.04214  -0.04155
 Alpha virt. eigenvalues --   -0.03169  -0.02070  -0.01336  -0.01109   0.00612
 Alpha virt. eigenvalues --    0.01667   0.01896   0.02181   0.02527   0.02643

 Mulliken charges:
               1
     1  Mg   0.702836
     2  C   -0.032266
     3  C   -0.039792
     4  C   -0.068830
     5  C   -0.089829
     6  N   -0.148360
     7  C   -0.098536
     8  C    0.007228
     9  C   -0.021951
    10  C    0.015661
    11  C    0.136522
    12  C    0.122038
    13  C    0.154887
    14  C    0.068478
    15  O   -0.173689
    16  O   -0.283539
    17  N   -0.353473
    18  C    0.145154
    19  C   -0.149365
    20  C    0.034891
    21  C    0.162031
    22  C    0.164231
    23  C   -0.080628
    24  O   -0.165253
    25  C    0.132080
    26  N   -0.189420
    27  C    0.036131
    28  C    0.005503
    29  C    0.055301
    30  C    0.024592
    31  C    0.095845
    32  C    0.119289
    33  C    0.027439
    34  N   -0.274893
    35  C    0.110183
    36  C   -0.179275
    37  C    0.005785
    38  C    0.145898
    39  C    0.181097
    40  C   -0.044774
    41  O   -0.135231
    42  C    0.112226
    43  C    0.087667
    44  O   -0.175784
    45  O   -0.265459
    46  C    0.232586
    47  C    0.293320
    48  C   -0.102887
    49  C   -0.108213
    50  C    0.126344
    51  C    0.074194
    52  C    0.100414
    53  C    0.083751
    54  C   -0.087837
    55  C    0.110202
    56  C    0.117244
    57  C    0.055120
    58  C    0.145487
    59  C   -0.074022
    60  C    0.090632
    61  C    0.119125
    62  C    0.014760
    63  C    0.116692
    64  C   -0.097761
    65  C    0.107008
    66  C    0.065442
    67  H   -0.065331
    68  H   -0.047340
    69  H   -0.063940
    70  H    0.024266
    71  H   -0.037333
    72  H   -0.010453
    73  H   -0.007087
    74  H   -0.011854
    75  H   -0.017471
    76  H   -0.022834
    77  H   -0.020447
    78  H   -0.005217
    79  H    0.011280
    80  H    0.013829
    81  H   -0.027160
    82  H    0.005007
    83  H   -0.022717
    84  H    0.009441
    85  H   -0.025034
    86  H   -0.027546
    87  H   -0.007300
    88  H   -0.005498
    89  H   -0.009837
    90  H   -0.018600
    91  H   -0.011990
    92  H   -0.010485
    93  H    0.002480
    94  H   -0.016220
    95  H    0.013069
    96  H   -0.000772
    97  H    0.016379
    98  H   -0.007403
    99  H    0.009331
   100  H    0.019873
   101  H    0.006602
   102  H   -0.002817
   103  H   -0.004253
   104  H   -0.030629
   105  H   -0.004435
   106  H   -0.005012
   107  H   -0.001780
   108  H   -0.036961
   109  H   -0.009464
   110  H   -0.019404
   111  H   -0.025344
   112  H   -0.026317
   113  H   -0.022502
   114  H   -0.027660
   115  H   -0.025061
   116  H   -0.014021
   117  H   -0.012163
   118  H   -0.042859
   119  H   -0.038133
   120  H   -0.028972
   121  H   -0.045032
   122  H   -0.038609
   123  H   -0.034868
   124  H   -0.029301
   125  H   -0.025399
   126  H   -0.024044
   127  H   -0.020244
   128  H   -0.033585
   129  H   -0.019361
   130  H   -0.018574
   131  H   -0.031663
   132  H   -0.049204
   133  H   -0.029161
   134  H   -0.027425
   135  H   -0.024575
   136  H   -0.013948
   137  H   -0.019280
   138  H   -0.005329
   139  H   -0.004152
   140  H   -0.024390
 Sum of Mulliken charges =  -0.00000

 Dipole moment (field-independent basis, Debye):
    X=             -4.9250    Y=              1.1457    Z=              1.8417  Tot=              5.3815
 Quadrupole moment (field-independent basis, Debye-Ang):
   XX=           -393.3431   YY=           -426.4014   ZZ=           -403.2890
   XY=             22.8428   XZ=             17.6586   YZ=             -1.4392

 Normal termination of Gaussian 16 at Fri Apr 29 15:49:02 2022.
