 Gaussian 16, Revision A.03,
 Gaussian 16:  ES64L-G16RevA.03 25-Dec-2016

 -----------------------------------
 #p cam-b3lyp/Def2SVP td=(nstates=5)
 -----------------------------------

 -------------------------------------------------------
 step_351_chromophore_24 TDDFT with cam-b3lyp functional
 -------------------------------------------------------
 Symbolic Z-matrix:
 Charge =  0 Multiplicity = 1

                         Standard orientation:
 ---------------------------------------------------------------------
 Center     Atomic      Atomic             Coordinates (Angstroms)
 Number     Number       Type             X           Y           Z
 ---------------------------------------------------------------------
      1         12           0        5.356645    0.999388    0.380497
      2          6           0        4.321816   -2.445119    0.599024
      3          6           0        2.112109    1.802490   -0.085047
      4          6           0        6.504930    4.000753   -0.461628
      5          6           0        8.712737   -0.164662    0.500121
      6          7           0        3.383592   -0.290964    0.024139
      7          6           0        3.224835   -1.559229    0.354681
      8          6           0        1.746615   -1.968226    0.354275
      9          6           0        1.085255   -0.630712   -0.101725
     10          6           0        2.222992    0.411269   -0.036990
     11          6           0        0.235705   -0.704468   -1.375725
     12          6           0        1.186542   -2.444317    1.730309
     13          6           0       -0.021610   -3.439390    1.707553
     14          6           0       -0.793227   -3.596292    0.352226
     15          8           0       -0.274193   -4.071080   -0.613124
     16          8           0       -2.036203   -2.949909    0.284099
     17          7           0        4.475592    2.715669   -0.090228
     18          6           0        3.089253    2.852461   -0.209717
     19          6           0        2.808415    4.344247   -0.447056
     20          6           0        4.145542    4.934738   -0.626853
     21          6           0        5.121149    3.888476   -0.404208
     22          6           0        1.428723    4.961768   -0.622502
     23          6           0        4.525306    6.303583   -1.104174
     24          8           0        5.648626    6.756917   -0.968732
     25          6           0        3.456649    7.250412   -1.563556
     26          7           0        7.264379    1.824235    0.182396
     27          6           0        7.434044    3.076818   -0.238435
     28          6           0        8.945196    3.405462   -0.319497
     29          6           0        9.674330    2.151658    0.235237
     30          6           0        8.458302    1.236306    0.334134
     31          6           0        9.504191    3.879812   -1.719548
     32          6           0       10.298714    2.324631    1.644844
     33          6           0        9.298042    2.686228    2.775696
     34          7           0        6.342090   -0.837985    0.594333
     35          6           0        7.726077   -1.190325    0.604678
     36          6           0        7.936061   -2.577374    0.609348
     37          6           0        6.602330   -3.100109    0.643806
     38          6           0        5.655096   -1.986153    0.664557
     39          6           0        9.265401   -3.346938    0.516478
     40          6           0        5.839498   -4.393266    0.563097
     41          8           0        6.252074   -5.516543    0.305603
     42          6           0        4.313125   -4.004613    0.667387
     43          6           0        3.716406   -4.610718   -0.573625
     44          8           0        4.112898   -4.344715   -1.684474
     45          8           0        2.755085   -5.525681   -0.263545
     46          6           0        2.206286   -6.256381   -1.438218
     47          6           0       -2.805044   -3.334626   -0.890165
     48          6           0       -4.260050   -2.861719   -0.717071
     49          6           0       -5.386425   -3.603084   -0.876053
     50          6           0       -5.352010   -4.985407   -1.387775
     51          6           0       -6.829873   -2.913443   -0.940738
     52          6           0       -7.316122   -1.878003    0.196066
     53          6           0       -7.494310   -0.475134   -0.288632
     54          6           0       -8.937858    0.136568    0.105601
     55          6           0       -9.133757    0.448202    1.598409
     56          6           0       -9.090063    1.424163   -0.665244
     57          6           0       -9.930771    1.219062   -1.953063
     58          6           0      -11.310908    2.017315   -1.986489
     59          6           0      -12.558629    1.147657   -1.845763
     60          6           0      -13.196622    0.857554   -3.247103
     61          6           0      -13.587871    1.732622   -0.772455
     62          6           0      -13.343711    0.974255    0.513101
     63          6           0      -13.916237    1.687951    1.788764
     64          6           0      -12.915004    1.993973    2.906679
     65          6           0      -13.456287    1.879302    4.341115
     66          6           0      -12.337103    3.459747    2.615388
     67          1           0        1.072038    2.133936   -0.068873
     68          1           0        7.042062    4.933797   -0.645069
     69          1           0        9.736584   -0.539030    0.570062
     70          1           0        1.571382   -2.682289   -0.449673
     71          1           0        0.302278   -0.468940    0.639039
     72          1           0       -0.839066   -0.695527   -1.193263
     73          1           0        0.441062   -1.657227   -1.862125
     74          1           0        0.571944    0.125310   -1.998601
     75          1           0        0.841217   -1.634312    2.372318
     76          1           0        1.996196   -2.854384    2.334493
     77          1           0       -0.699938   -3.393164    2.559755
     78          1           0        0.371210   -4.436209    1.906619
     79          1           0        1.279462    5.363896   -1.624847
     80          1           0        1.278119    5.677373    0.185581
     81          1           0        0.632052    4.221311   -0.553299
     82          1           0        2.961021    6.978881   -2.495671
     83          1           0        3.796539    8.253705   -1.821395
     84          1           0        2.825295    7.337198   -0.679884
     85          1           0        9.104926    4.316117    0.257257
     86          1           0       10.405334    1.741960   -0.462077
     87          1           0       10.311053    4.574266   -1.485085
     88          1           0        8.865395    4.445749   -2.397612
     89          1           0        9.809122    3.028312   -2.326967
     90          1           0       10.827321    3.277216    1.682754
     91          1           0       10.841272    1.408299    1.874914
     92          1           0        8.968010    1.774308    3.272298
     93          1           0        8.443606    3.285912    2.462731
     94          1           0        9.677877    3.278834    3.608957
     95          1           0        9.703433   -3.389941    1.512945
     96          1           0        9.912088   -2.890484   -0.233333
     97          1           0        8.946717   -4.311479    0.121431
     98          1           0        3.998255   -4.548298    1.557700
     99          1           0        2.951415   -6.836659   -1.981403
    100          1           0        1.800324   -5.525470   -2.137682
    101          1           0        1.473138   -7.006195   -1.140806
    102          1           0       -2.605736   -4.380864   -1.121152
    103          1           0       -2.520440   -2.658905   -1.695881
    104          1           0       -4.249397   -1.786431   -0.538828
    105          1           0       -4.544049   -5.077907   -2.112820
    106          1           0       -6.235998   -5.409256   -1.863774
    107          1           0       -5.008023   -5.691962   -0.631293
    108          1           0       -7.549840   -3.728408   -1.020344
    109          1           0       -6.863155   -2.417253   -1.910674
    110          1           0       -6.556704   -1.913255    0.977405
    111          1           0       -8.241154   -2.357096    0.519021
    112          1           0       -7.469888   -0.408680   -1.376117
    113          1           0       -6.643328    0.025221    0.173934
    114          1           0       -9.653769   -0.604794   -0.249665
    115          1           0       -8.190929    0.679005    2.093672
    116          1           0       -9.661081   -0.330455    2.150787
    117          1           0       -9.729771    1.343514    1.778850
    118          1           0       -8.094224    1.731719   -0.986687
    119          1           0       -9.479490    2.287419   -0.126294
    120          1           0      -10.030660    0.169849   -2.232829
    121          1           0       -9.233255    1.607292   -2.695672
    122          1           0      -11.384895    2.510759   -2.955650
    123          1           0      -11.340544    2.834668   -1.266944
    124          1           0      -12.304808    0.150548   -1.487715
    125          1           0      -12.774160    1.393228   -4.096776
    126          1           0      -14.252666    1.111290   -3.332255
    127          1           0      -13.101285   -0.198098   -3.502473
    128          1           0      -14.609153    1.450759   -1.027412
    129          1           0      -13.436650    2.776305   -0.496214
    130          1           0      -12.282724    0.746397    0.611479
    131          1           0      -13.835542    0.007369    0.411622
    132          1           0      -14.654693    1.003614    2.205707
    133          1           0      -14.423650    2.628849    1.572951
    134          1           0      -12.063066    1.320312    2.820235
    135          1           0      -13.719304    2.892425    4.646644
    136          1           0      -12.810131    1.559592    5.159351
    137          1           0      -14.342552    1.245196    4.333097
    138          1           0      -12.734767    3.965207    1.736279
    139          1           0      -11.268432    3.244892    2.625415
    140          1           0      -12.493503    4.211288    3.389649
 ---------------------------------------------------------------------

 SCF Done:  E(RCAM-B3LYP) =  -3007.14935649     A.U. after   18 cycles

 Excitation energies and oscillator strengths:

 Excited State   1:      Singlet-A      1.7247 eV  718.87 nm  f=0.3691  <S**2>=0.000
     245 -> 248       -0.18804
     246 -> 247        0.68394
     245 <- 248       -0.11075
 This state for optimization and/or second-order correction.
 Total Energy, E(TD-HF/TD-DFT) =  -3007.08597473
 Copying the excited state density for this state as the 1-particle RhoCI density.

 Excited State   2:      Singlet-A      2.2510 eV  550.79 nm  f=0.1262  <S**2>=0.000
     245 -> 247        0.63984
     246 -> 248        0.29021

 Excited State   3:      Singlet-A      3.3510 eV  369.99 nm  f=0.0171  <S**2>=0.000
     240 -> 247        0.19772
     243 -> 247        0.56691
     244 -> 247       -0.23562
     246 -> 248       -0.19151

 Excited State   4:      Singlet-A      3.4353 eV  360.91 nm  f=0.0088  <S**2>=0.000
     239 -> 247        0.18975
     240 -> 247        0.52932
     240 -> 249        0.20087
     240 -> 251        0.10815
     243 -> 247       -0.21854
     244 -> 247        0.19822

 Excited State   5:      Singlet-A      3.5457 eV  349.68 nm  f=0.1747  <S**2>=0.000
     240 -> 247       -0.13457
     243 -> 247        0.14805
     244 -> 247        0.51739
     245 -> 247        0.13900
     246 -> 248       -0.38027

 The electronic state is 1-A.
 Alpha  occ. eigenvalues --  -46.88246 -19.25223 -19.24681 -19.21396 -19.19263
 Alpha  occ. eigenvalues --  -19.18801 -19.17914 -14.41623 -14.41341 -14.39629
 Alpha  occ. eigenvalues --  -14.39187 -10.40440 -10.38414 -10.35205 -10.34190
 Alpha  occ. eigenvalues --  -10.32262 -10.31156 -10.30899 -10.30778 -10.30772
 Alpha  occ. eigenvalues --  -10.30607 -10.29737 -10.29557 -10.29299 -10.29175
 Alpha  occ. eigenvalues --  -10.28940 -10.28534 -10.28418 -10.28413 -10.28093
 Alpha  occ. eigenvalues --  -10.28067 -10.28066 -10.27530 -10.27493 -10.27404
 Alpha  occ. eigenvalues --  -10.27142 -10.26993 -10.26914 -10.26794 -10.26651
 Alpha  occ. eigenvalues --  -10.26592 -10.26550 -10.26437 -10.26343 -10.26074
 Alpha  occ. eigenvalues --  -10.25986 -10.25985 -10.25903 -10.25902 -10.25483
 Alpha  occ. eigenvalues --  -10.25474 -10.25382 -10.25307 -10.25176 -10.25065
 Alpha  occ. eigenvalues --  -10.25029 -10.25015 -10.24801 -10.24654 -10.24590
 Alpha  occ. eigenvalues --  -10.24555 -10.24537 -10.24461 -10.24349 -10.24246
 Alpha  occ. eigenvalues --  -10.24223  -3.16903  -1.91790  -1.91371  -1.91200
 Alpha  occ. eigenvalues --   -1.17480  -1.15678  -1.09720  -1.09592  -1.09342
 Alpha  occ. eigenvalues --   -1.07259  -1.04770  -1.04337  -1.02235  -1.01154
 Alpha  occ. eigenvalues --   -0.91303  -0.90258  -0.89610  -0.89221  -0.89062
 Alpha  occ. eigenvalues --   -0.88814  -0.87930  -0.87189  -0.86720  -0.86366
 Alpha  occ. eigenvalues --   -0.85782  -0.84989  -0.84347  -0.83016  -0.82809
 Alpha  occ. eigenvalues --   -0.82418  -0.81526  -0.81153  -0.80370  -0.79914
 Alpha  occ. eigenvalues --   -0.79688  -0.78012  -0.77709  -0.76946  -0.75919
 Alpha  occ. eigenvalues --   -0.75816  -0.75318  -0.74945  -0.74785  -0.74383
 Alpha  occ. eigenvalues --   -0.73146  -0.72585  -0.71208  -0.70594  -0.69594
 Alpha  occ. eigenvalues --   -0.68814  -0.67573  -0.66436  -0.66324  -0.65211
 Alpha  occ. eigenvalues --   -0.65139  -0.65048  -0.64440  -0.64244  -0.63810
 Alpha  occ. eigenvalues --   -0.63772  -0.63527  -0.62621  -0.61510  -0.61109
 Alpha  occ. eigenvalues --   -0.59838  -0.59336  -0.59147  -0.58287  -0.57525
 Alpha  occ. eigenvalues --   -0.57060  -0.56721  -0.56205  -0.55457  -0.55017
 Alpha  occ. eigenvalues --   -0.54762  -0.54560  -0.54357  -0.54232  -0.54090
 Alpha  occ. eigenvalues --   -0.53904  -0.53460  -0.53377  -0.53251  -0.52590
 Alpha  occ. eigenvalues --   -0.52562  -0.52257  -0.51900  -0.51792  -0.51679
 Alpha  occ. eigenvalues --   -0.51438  -0.50931  -0.50862  -0.50568  -0.50468
 Alpha  occ. eigenvalues --   -0.50367  -0.50205  -0.49763  -0.49517  -0.49214
 Alpha  occ. eigenvalues --   -0.49171  -0.48982  -0.48766  -0.48492  -0.48445
 Alpha  occ. eigenvalues --   -0.48304  -0.48190  -0.48004  -0.47885  -0.47657
 Alpha  occ. eigenvalues --   -0.47390  -0.47055  -0.47025  -0.46882  -0.46528
 Alpha  occ. eigenvalues --   -0.46126  -0.46085  -0.46056  -0.45847  -0.45732
 Alpha  occ. eigenvalues --   -0.45300  -0.45165  -0.45078  -0.44761  -0.44618
 Alpha  occ. eigenvalues --   -0.44494  -0.44402  -0.44243  -0.43914  -0.43649
 Alpha  occ. eigenvalues --   -0.43520  -0.43403  -0.43204  -0.42951  -0.42831
 Alpha  occ. eigenvalues --   -0.42783  -0.42651  -0.42117  -0.42031  -0.41935
 Alpha  occ. eigenvalues --   -0.41929  -0.41813  -0.41533  -0.41469  -0.41328
 Alpha  occ. eigenvalues --   -0.40995  -0.40970  -0.40475  -0.40292  -0.40082
 Alpha  occ. eigenvalues --   -0.39570  -0.39461  -0.38942  -0.38784  -0.38526
 Alpha  occ. eigenvalues --   -0.38412  -0.38276  -0.38095  -0.37439  -0.37173
 Alpha  occ. eigenvalues --   -0.37137  -0.36701  -0.36469  -0.36103  -0.36085
 Alpha  occ. eigenvalues --   -0.35854  -0.35708  -0.35129  -0.34736  -0.34227
 Alpha  occ. eigenvalues --   -0.33957  -0.33721  -0.32971  -0.31062  -0.30550
 Alpha  occ. eigenvalues --   -0.30163  -0.30026  -0.29690  -0.29350  -0.23726
 Alpha  occ. eigenvalues --   -0.20919
 Alpha virt. eigenvalues --   -0.08366  -0.01328   0.00805   0.02734   0.03006
 Alpha virt. eigenvalues --    0.03731   0.04232   0.06207   0.06398   0.07114
 Alpha virt. eigenvalues --    0.08157   0.08312   0.08648   0.08823   0.09238

 Mulliken charges:
               1
     1  Mg   0.836487
     2  C   -0.060816
     3  C   -0.054170
     4  C   -0.082298
     5  C   -0.095613
     6  N   -0.216300
     7  C   -0.046267
     8  C   -0.054996
     9  C   -0.061853
    10  C    0.024821
    11  C    0.077378
    12  C    0.070859
    13  C    0.094340
    14  C    0.137961
    15  O   -0.212413
    16  O   -0.345827
    17  N   -0.442108
    18  C    0.149316
    19  C   -0.153463
    20  C   -0.032444
    21  C    0.180102
    22  C    0.107695
    23  C   -0.005335
    24  O   -0.207245
    25  C    0.051432
    26  N   -0.263797
    27  C    0.050663
    28  C   -0.052864
    29  C   -0.002887
    30  C    0.041729
    31  C    0.043711
    32  C    0.065508
    33  C   -0.034614
    34  N   -0.365052
    35  C    0.116832
    36  C   -0.174234
    37  C   -0.071796
    38  C    0.184444
    39  C    0.132385
    40  C    0.056714
    41  O   -0.171033
    42  C    0.038202
    43  C    0.175540
    44  O   -0.211354
    45  O   -0.329211
    46  C    0.190937
    47  C    0.256634
    48  C   -0.115350
    49  C   -0.130377
    50  C    0.051186
    51  C    0.030483
    52  C    0.038627
    53  C    0.036360
    54  C   -0.140573
    55  C    0.056010
    56  C    0.060493
    57  C    0.000574
    58  C    0.091119
    59  C   -0.133410
    60  C    0.034946
    61  C    0.067884
    62  C   -0.026592
    63  C    0.057422
    64  C   -0.153785
    65  C    0.050368
    66  C    0.011045
    67  H   -0.030703
    68  H   -0.006751
    69  H   -0.027669
    70  H    0.056302
    71  H   -0.001733
    72  H    0.012144
    73  H    0.016955
    74  H    0.015274
    75  H    0.013588
    76  H    0.007796
    77  H    0.015277
    78  H    0.026281
    79  H    0.035272
    80  H    0.038152
    81  H    0.000049
    82  H    0.032839
    83  H    0.012818
    84  H    0.033829
    85  H    0.009177
    86  H    0.009740
    87  H    0.015813
    88  H    0.020447
    89  H    0.012551
    90  H    0.010774
    91  H    0.015287
    92  H    0.012653
    93  H    0.024983
    94  H    0.010168
    95  H    0.039508
    96  H    0.024954
    97  H    0.044051
    98  H    0.035309
    99  H    0.033353
   100  H    0.043558
   101  H    0.031028
   102  H    0.025750
   103  H    0.021102
   104  H    0.001383
   105  H    0.019317
   106  H    0.021965
   107  H    0.024521
   108  H   -0.007422
   109  H    0.017796
   110  H    0.010304
   111  H    0.003639
   112  H    0.000050
   113  H    0.004163
   114  H    0.000763
   115  H    0.000352
   116  H    0.009521
   117  H    0.004073
   118  H   -0.011595
   119  H   -0.008854
   120  H   -0.002890
   121  H   -0.013783
   122  H   -0.008314
   123  H   -0.007767
   124  H    0.001701
   125  H   -0.001023
   126  H    0.000599
   127  H    0.003428
   128  H   -0.003956
   129  H    0.004729
   130  H    0.001380
   131  H   -0.003178
   132  H   -0.018199
   133  H   -0.001073
   134  H    0.000799
   135  H   -0.001693
   136  H    0.011311
   137  H    0.004591
   138  H    0.015098
   139  H    0.015408
   140  H    0.000804
 Sum of Mulliken charges =  -0.00000

 Dipole moment (field-independent basis, Debye):
    X=             -5.0184    Y=              0.7668    Z=              1.9987  Tot=              5.4559
 Quadrupole moment (field-independent basis, Debye-Ang):
   XX=           -390.4355   YY=           -423.0417   ZZ=           -402.5673
   XY=             20.6513   XZ=             18.6270   YZ=             -2.6166

 Normal termination of Gaussian 16 at Fri Apr 29 14:49:37 2022.
