 Gaussian 16, Revision A.03,
 Gaussian 16:  ES64L-G16RevA.03 25-Dec-2016

 ---------------------------------
 #p PBE1PBE/Def2SVP td=(nstates=5)
 ---------------------------------

 -----------------------------------------------------
 step_351_chromophore_24 TDDFT with PBE1PBE functional
 -----------------------------------------------------
 Symbolic Z-matrix:
 Charge =  0 Multiplicity = 1

                         Standard orientation:
 ---------------------------------------------------------------------
 Center     Atomic      Atomic             Coordinates (Angstroms)
 Number     Number       Type             X           Y           Z
 ---------------------------------------------------------------------
      1         12           0        5.356645    0.999388    0.380497
      2          6           0        4.321816   -2.445119    0.599024
      3          6           0        2.112109    1.802490   -0.085047
      4          6           0        6.504930    4.000753   -0.461628
      5          6           0        8.712737   -0.164662    0.500121
      6          7           0        3.383592   -0.290964    0.024139
      7          6           0        3.224835   -1.559229    0.354681
      8          6           0        1.746615   -1.968226    0.354275
      9          6           0        1.085255   -0.630712   -0.101725
     10          6           0        2.222992    0.411269   -0.036990
     11          6           0        0.235705   -0.704468   -1.375725
     12          6           0        1.186542   -2.444317    1.730309
     13          6           0       -0.021610   -3.439390    1.707553
     14          6           0       -0.793227   -3.596292    0.352226
     15          8           0       -0.274193   -4.071080   -0.613124
     16          8           0       -2.036203   -2.949909    0.284099
     17          7           0        4.475592    2.715669   -0.090228
     18          6           0        3.089253    2.852461   -0.209717
     19          6           0        2.808415    4.344247   -0.447056
     20          6           0        4.145542    4.934738   -0.626853
     21          6           0        5.121149    3.888476   -0.404208
     22          6           0        1.428723    4.961768   -0.622502
     23          6           0        4.525306    6.303583   -1.104174
     24          8           0        5.648626    6.756917   -0.968732
     25          6           0        3.456649    7.250412   -1.563556
     26          7           0        7.264379    1.824235    0.182396
     27          6           0        7.434044    3.076818   -0.238435
     28          6           0        8.945196    3.405462   -0.319497
     29          6           0        9.674330    2.151658    0.235237
     30          6           0        8.458302    1.236306    0.334134
     31          6           0        9.504191    3.879812   -1.719548
     32          6           0       10.298714    2.324631    1.644844
     33          6           0        9.298042    2.686228    2.775696
     34          7           0        6.342090   -0.837985    0.594333
     35          6           0        7.726077   -1.190325    0.604678
     36          6           0        7.936061   -2.577374    0.609348
     37          6           0        6.602330   -3.100109    0.643806
     38          6           0        5.655096   -1.986153    0.664557
     39          6           0        9.265401   -3.346938    0.516478
     40          6           0        5.839498   -4.393266    0.563097
     41          8           0        6.252074   -5.516543    0.305603
     42          6           0        4.313125   -4.004613    0.667387
     43          6           0        3.716406   -4.610718   -0.573625
     44          8           0        4.112898   -4.344715   -1.684474
     45          8           0        2.755085   -5.525681   -0.263545
     46          6           0        2.206286   -6.256381   -1.438218
     47          6           0       -2.805044   -3.334626   -0.890165
     48          6           0       -4.260050   -2.861719   -0.717071
     49          6           0       -5.386425   -3.603084   -0.876053
     50          6           0       -5.352010   -4.985407   -1.387775
     51          6           0       -6.829873   -2.913443   -0.940738
     52          6           0       -7.316122   -1.878003    0.196066
     53          6           0       -7.494310   -0.475134   -0.288632
     54          6           0       -8.937858    0.136568    0.105601
     55          6           0       -9.133757    0.448202    1.598409
     56          6           0       -9.090063    1.424163   -0.665244
     57          6           0       -9.930771    1.219062   -1.953063
     58          6           0      -11.310908    2.017315   -1.986489
     59          6           0      -12.558629    1.147657   -1.845763
     60          6           0      -13.196622    0.857554   -3.247103
     61          6           0      -13.587871    1.732622   -0.772455
     62          6           0      -13.343711    0.974255    0.513101
     63          6           0      -13.916237    1.687951    1.788764
     64          6           0      -12.915004    1.993973    2.906679
     65          6           0      -13.456287    1.879302    4.341115
     66          6           0      -12.337103    3.459747    2.615388
     67          1           0        1.072038    2.133936   -0.068873
     68          1           0        7.042062    4.933797   -0.645069
     69          1           0        9.736584   -0.539030    0.570062
     70          1           0        1.571382   -2.682289   -0.449673
     71          1           0        0.302278   -0.468940    0.639039
     72          1           0       -0.839066   -0.695527   -1.193263
     73          1           0        0.441062   -1.657227   -1.862125
     74          1           0        0.571944    0.125310   -1.998601
     75          1           0        0.841217   -1.634312    2.372318
     76          1           0        1.996196   -2.854384    2.334493
     77          1           0       -0.699938   -3.393164    2.559755
     78          1           0        0.371210   -4.436209    1.906619
     79          1           0        1.279462    5.363896   -1.624847
     80          1           0        1.278119    5.677373    0.185581
     81          1           0        0.632052    4.221311   -0.553299
     82          1           0        2.961021    6.978881   -2.495671
     83          1           0        3.796539    8.253705   -1.821395
     84          1           0        2.825295    7.337198   -0.679884
     85          1           0        9.104926    4.316117    0.257257
     86          1           0       10.405334    1.741960   -0.462077
     87          1           0       10.311053    4.574266   -1.485085
     88          1           0        8.865395    4.445749   -2.397612
     89          1           0        9.809122    3.028312   -2.326967
     90          1           0       10.827321    3.277216    1.682754
     91          1           0       10.841272    1.408299    1.874914
     92          1           0        8.968010    1.774308    3.272298
     93          1           0        8.443606    3.285912    2.462731
     94          1           0        9.677877    3.278834    3.608957
     95          1           0        9.703433   -3.389941    1.512945
     96          1           0        9.912088   -2.890484   -0.233333
     97          1           0        8.946717   -4.311479    0.121431
     98          1           0        3.998255   -4.548298    1.557700
     99          1           0        2.951415   -6.836659   -1.981403
    100          1           0        1.800324   -5.525470   -2.137682
    101          1           0        1.473138   -7.006195   -1.140806
    102          1           0       -2.605736   -4.380864   -1.121152
    103          1           0       -2.520440   -2.658905   -1.695881
    104          1           0       -4.249397   -1.786431   -0.538828
    105          1           0       -4.544049   -5.077907   -2.112820
    106          1           0       -6.235998   -5.409256   -1.863774
    107          1           0       -5.008023   -5.691962   -0.631293
    108          1           0       -7.549840   -3.728408   -1.020344
    109          1           0       -6.863155   -2.417253   -1.910674
    110          1           0       -6.556704   -1.913255    0.977405
    111          1           0       -8.241154   -2.357096    0.519021
    112          1           0       -7.469888   -0.408680   -1.376117
    113          1           0       -6.643328    0.025221    0.173934
    114          1           0       -9.653769   -0.604794   -0.249665
    115          1           0       -8.190929    0.679005    2.093672
    116          1           0       -9.661081   -0.330455    2.150787
    117          1           0       -9.729771    1.343514    1.778850
    118          1           0       -8.094224    1.731719   -0.986687
    119          1           0       -9.479490    2.287419   -0.126294
    120          1           0      -10.030660    0.169849   -2.232829
    121          1           0       -9.233255    1.607292   -2.695672
    122          1           0      -11.384895    2.510759   -2.955650
    123          1           0      -11.340544    2.834668   -1.266944
    124          1           0      -12.304808    0.150548   -1.487715
    125          1           0      -12.774160    1.393228   -4.096776
    126          1           0      -14.252666    1.111290   -3.332255
    127          1           0      -13.101285   -0.198098   -3.502473
    128          1           0      -14.609153    1.450759   -1.027412
    129          1           0      -13.436650    2.776305   -0.496214
    130          1           0      -12.282724    0.746397    0.611479
    131          1           0      -13.835542    0.007369    0.411622
    132          1           0      -14.654693    1.003614    2.205707
    133          1           0      -14.423650    2.628849    1.572951
    134          1           0      -12.063066    1.320312    2.820235
    135          1           0      -13.719304    2.892425    4.646644
    136          1           0      -12.810131    1.559592    5.159351
    137          1           0      -14.342552    1.245196    4.333097
    138          1           0      -12.734767    3.965207    1.736279
    139          1           0      -11.268432    3.244892    2.625415
    140          1           0      -12.493503    4.211288    3.389649
 ---------------------------------------------------------------------

 SCF Done:  E(RPBE1PBE) =  -3005.33621795     A.U. after   16 cycles

 Excitation energies and oscillator strengths:

 Excited State   1:      Singlet-A      1.8749 eV  661.30 nm  f=0.3584  <S**2>=0.000
     245 -> 248       -0.18256
     246 -> 247        0.69085
     246 <- 247       -0.10321
 This state for optimization and/or second-order correction.
 Total Energy, E(TD-HF/TD-DFT) =  -3005.26731835
 Copying the excited state density for this state as the 1-particle RhoCI density.

 Excited State   2:      Singlet-A      2.2563 eV  549.51 nm  f=0.1206  <S**2>=0.000
     245 -> 247        0.65031
     246 -> 248        0.26516

 Excited State   3:      Singlet-A      2.9545 eV  419.65 nm  f=0.0007  <S**2>=0.000
     240 -> 247        0.41717
     242 -> 247        0.18318
     243 -> 247        0.47201
     244 -> 247       -0.16841

 Excited State   4:      Singlet-A      3.0301 eV  409.17 nm  f=0.0001  <S**2>=0.000
     240 -> 247        0.12212
     242 -> 247       -0.12965
     243 -> 247        0.15965
     244 -> 247        0.63554
     244 -> 249       -0.13496

 Excited State   5:      Singlet-A      3.1046 eV  399.35 nm  f=0.0005  <S**2>=0.000
     240 -> 247       -0.39218
     241 -> 247        0.10789
     242 -> 247       -0.32330
     243 -> 247        0.44571
     244 -> 247       -0.11841

 The electronic state is 1-A.
 Alpha  occ. eigenvalues --  -46.91654 -19.25891 -19.25252 -19.21599 -19.19282
 Alpha  occ. eigenvalues --  -19.18931 -19.18294 -14.41086 -14.40849 -14.39407
 Alpha  occ. eigenvalues --  -14.38787 -10.37464 -10.35344 -10.32217 -10.31468
 Alpha  occ. eigenvalues --  -10.29675 -10.28803 -10.28733 -10.28501 -10.28471
 Alpha  occ. eigenvalues --  -10.27948 -10.27440 -10.27210 -10.27163 -10.26784
 Alpha  occ. eigenvalues --  -10.26760 -10.26195 -10.26047 -10.25873 -10.25771
 Alpha  occ. eigenvalues --  -10.25656 -10.25531 -10.25320 -10.25209 -10.25186
 Alpha  occ. eigenvalues --  -10.25034 -10.24748 -10.24564 -10.24510 -10.24403
 Alpha  occ. eigenvalues --  -10.24276 -10.24198 -10.23910 -10.23724 -10.23708
 Alpha  occ. eigenvalues --  -10.23631 -10.23593 -10.23531 -10.23462 -10.23031
 Alpha  occ. eigenvalues --  -10.23026 -10.22968 -10.22687 -10.22673 -10.22645
 Alpha  occ. eigenvalues --  -10.22609 -10.22434 -10.22368 -10.22197 -10.22176
 Alpha  occ. eigenvalues --  -10.22165 -10.21980 -10.21947 -10.21801 -10.21741
 Alpha  occ. eigenvalues --  -10.21657  -3.13888  -1.86716  -1.86275  -1.86110
 Alpha  occ. eigenvalues --   -1.12244  -1.10356  -1.04478  -1.04283  -1.04198
 Alpha  occ. eigenvalues --   -1.02002  -0.99392  -0.98947  -0.96766  -0.95980
 Alpha  occ. eigenvalues --   -0.85513  -0.84361  -0.83731  -0.83398  -0.83354
 Alpha  occ. eigenvalues --   -0.82951  -0.82326  -0.81300  -0.81056  -0.80593
 Alpha  occ. eigenvalues --   -0.80160  -0.79210  -0.78522  -0.77314  -0.77036
 Alpha  occ. eigenvalues --   -0.76582  -0.75797  -0.75410  -0.74621  -0.74251
 Alpha  occ. eigenvalues --   -0.73825  -0.72384  -0.71909  -0.71228  -0.70154
 Alpha  occ. eigenvalues --   -0.69993  -0.69422  -0.69300  -0.68928  -0.68558
 Alpha  occ. eigenvalues --   -0.67477  -0.66986  -0.65680  -0.64891  -0.63941
 Alpha  occ. eigenvalues --   -0.63055  -0.62016  -0.60974  -0.60566  -0.59644
 Alpha  occ. eigenvalues --   -0.59564  -0.59367  -0.59007  -0.58364  -0.58300
 Alpha  occ. eigenvalues --   -0.58091  -0.57881  -0.56848  -0.56026  -0.55475
 Alpha  occ. eigenvalues --   -0.54500  -0.53870  -0.53665  -0.52873  -0.51943
 Alpha  occ. eigenvalues --   -0.51617  -0.51231  -0.50587  -0.50086  -0.49493
 Alpha  occ. eigenvalues --   -0.49269  -0.49035  -0.48818  -0.48670  -0.48612
 Alpha  occ. eigenvalues --   -0.48423  -0.47952  -0.47839  -0.47771  -0.47132
 Alpha  occ. eigenvalues --   -0.47054  -0.46823  -0.46419  -0.46322  -0.46242
 Alpha  occ. eigenvalues --   -0.45981  -0.45546  -0.45280  -0.45130  -0.45066
 Alpha  occ. eigenvalues --   -0.44922  -0.44821  -0.44395  -0.43950  -0.43841
 Alpha  occ. eigenvalues --   -0.43723  -0.43557  -0.43440  -0.43162  -0.43093
 Alpha  occ. eigenvalues --   -0.42888  -0.42810  -0.42572  -0.42535  -0.42310
 Alpha  occ. eigenvalues --   -0.42030  -0.41747  -0.41626  -0.41554  -0.41144
 Alpha  occ. eigenvalues --   -0.40816  -0.40792  -0.40734  -0.40533  -0.40418
 Alpha  occ. eigenvalues --   -0.40154  -0.39901  -0.39800  -0.39418  -0.39283
 Alpha  occ. eigenvalues --   -0.39175  -0.39123  -0.38900  -0.38621  -0.38468
 Alpha  occ. eigenvalues --   -0.38298  -0.38186  -0.38007  -0.37800  -0.37582
 Alpha  occ. eigenvalues --   -0.37537  -0.37462  -0.36967  -0.36851  -0.36741
 Alpha  occ. eigenvalues --   -0.36694  -0.36657  -0.36312  -0.36221  -0.36195
 Alpha  occ. eigenvalues --   -0.35889  -0.35755  -0.35251  -0.35144  -0.34845
 Alpha  occ. eigenvalues --   -0.34509  -0.34302  -0.33840  -0.33550  -0.33323
 Alpha  occ. eigenvalues --   -0.33296  -0.33045  -0.32997  -0.32200  -0.32197
 Alpha  occ. eigenvalues --   -0.32083  -0.31708  -0.31467  -0.31039  -0.30989
 Alpha  occ. eigenvalues --   -0.30859  -0.30558  -0.29938  -0.29686  -0.29187
 Alpha  occ. eigenvalues --   -0.29154  -0.28763  -0.28173  -0.26688  -0.25439
 Alpha  occ. eigenvalues --   -0.25321  -0.25290  -0.25100  -0.24899  -0.20680
 Alpha  occ. eigenvalues --   -0.18550
 Alpha virt. eigenvalues --   -0.10839  -0.04811  -0.03462  -0.01591  -0.00897
 Alpha virt. eigenvalues --   -0.00206   0.00186   0.01737   0.01785   0.03628
 Alpha virt. eigenvalues --    0.04387   0.04778   0.05046   0.05457   0.05638

 Mulliken charges:
               1
     1  Mg   0.984380
     2  C   -0.057273
     3  C   -0.058459
     4  C   -0.070103
     5  C   -0.073747
     6  N   -0.318919
     7  C    0.030750
     8  C   -0.138282
     9  C   -0.123922
    10  C    0.058057
    11  C    0.015217
    12  C    0.023473
    13  C    0.026525
    14  C    0.194214
    15  O   -0.242848
    16  O   -0.375023
    17  N   -0.560013
    18  C    0.175543
    19  C   -0.174070
    20  C   -0.078479
    21  C    0.211550
    22  C    0.046062
    23  C    0.044050
    24  O   -0.242302
    25  C   -0.020568
    26  N   -0.375882
    27  C    0.081630
    28  C   -0.126718
    29  C   -0.079735
    30  C    0.072673
    31  C   -0.011008
    32  C    0.004742
    33  C   -0.106581
    34  N   -0.488990
    35  C    0.124206
    36  C   -0.180871
    37  C   -0.125155
    38  C    0.234724
    39  C    0.073479
    40  C    0.150467
    41  O   -0.215739
    42  C   -0.078737
    43  C    0.270135
    44  O   -0.244100
    45  O   -0.362802
    46  C    0.134570
    47  C    0.212536
    48  C   -0.127138
    49  C   -0.172680
    50  C   -0.015165
    51  C   -0.021499
    52  C   -0.026651
    53  C   -0.018870
    54  C   -0.226818
    55  C   -0.007347
    56  C    0.006169
    57  C   -0.061022
    58  C    0.039129
    59  C   -0.221874
    60  C   -0.019819
    61  C    0.009274
    62  C   -0.090263
    63  C   -0.000242
    64  C   -0.249898
    65  C   -0.007616
    66  C   -0.048609
    67  H    0.003169
    68  H    0.025070
    69  H    0.003249
    70  H    0.098053
    71  H    0.037247
    72  H    0.040984
    73  H    0.044926
    74  H    0.044062
    75  H    0.044378
    76  H    0.041452
    77  H    0.045596
    78  H    0.058870
    79  H    0.062915
    80  H    0.066200
    81  H    0.029141
    82  H    0.058888
    83  H    0.041486
    84  H    0.061076
    85  H    0.045211
    86  H    0.044758
    87  H    0.043879
    88  H    0.047071
    89  H    0.040541
    90  H    0.044599
    91  H    0.047458
    92  H    0.041988
    93  H    0.053902
    94  H    0.038568
    95  H    0.066551
    96  H    0.050788
    97  H    0.071799
    98  H    0.070049
    99  H    0.055518
   100  H    0.064844
   101  H    0.052575
   102  H    0.050259
   103  H    0.049572
   104  H    0.031275
   105  H    0.047203
   106  H    0.047795
   107  H    0.053104
   108  H    0.024261
   109  H    0.050345
   110  H    0.043142
   111  H    0.035960
   112  H    0.033453
   113  H    0.035445
   114  H    0.037526
   115  H    0.028263
   116  H    0.036427
   117  H    0.035671
   118  H    0.021977
   119  H    0.022280
   120  H    0.027757
   121  H    0.019511
   122  H    0.024406
   123  H    0.023389
   124  H    0.039770
   125  H    0.025223
   126  H    0.027315
   127  H    0.030436
   128  H    0.029655
   129  H    0.037586
   130  H    0.039769
   131  H    0.030098
   132  H    0.015381
   133  H    0.030922
   134  H    0.042057
   135  H    0.025734
   136  H    0.038333
   137  H    0.031546
   138  H    0.040585
   139  H    0.044307
   140  H    0.027683
 Sum of Mulliken charges =  -0.00000

 Dipole moment (field-independent basis, Debye):
    X=             -5.1141    Y=              1.2032    Z=              1.9043  Tot=              5.5882
 Quadrupole moment (field-independent basis, Debye-Ang):
   XX=           -386.2484   YY=           -419.6424   ZZ=           -400.0852
   XY=             23.3018   XZ=             18.4287   YZ=             -2.3171

 Normal termination of Gaussian 16 at Fri Apr 29 15:08:14 2022.
