 Gaussian 16, Revision A.03,
 Gaussian 16:  ES64L-G16RevA.03 25-Dec-2016

 --------------------------------
 #p wB97XD/Def2SVP td=(nstates=5)
 --------------------------------

 ----------------------------------------------------
 step_351_chromophore_24 TDDFT with wB97XD functional
 ----------------------------------------------------
 Symbolic Z-matrix:
 Charge =  0 Multiplicity = 1

                         Standard orientation:
 ---------------------------------------------------------------------
 Center     Atomic      Atomic             Coordinates (Angstroms)
 Number     Number       Type             X           Y           Z
 ---------------------------------------------------------------------
      1         12           0        5.356645    0.999388    0.380497
      2          6           0        4.321816   -2.445119    0.599024
      3          6           0        2.112109    1.802490   -0.085047
      4          6           0        6.504930    4.000753   -0.461628
      5          6           0        8.712737   -0.164662    0.500121
      6          7           0        3.383592   -0.290964    0.024139
      7          6           0        3.224835   -1.559229    0.354681
      8          6           0        1.746615   -1.968226    0.354275
      9          6           0        1.085255   -0.630712   -0.101725
     10          6           0        2.222992    0.411269   -0.036990
     11          6           0        0.235705   -0.704468   -1.375725
     12          6           0        1.186542   -2.444317    1.730309
     13          6           0       -0.021610   -3.439390    1.707553
     14          6           0       -0.793227   -3.596292    0.352226
     15          8           0       -0.274193   -4.071080   -0.613124
     16          8           0       -2.036203   -2.949909    0.284099
     17          7           0        4.475592    2.715669   -0.090228
     18          6           0        3.089253    2.852461   -0.209717
     19          6           0        2.808415    4.344247   -0.447056
     20          6           0        4.145542    4.934738   -0.626853
     21          6           0        5.121149    3.888476   -0.404208
     22          6           0        1.428723    4.961768   -0.622502
     23          6           0        4.525306    6.303583   -1.104174
     24          8           0        5.648626    6.756917   -0.968732
     25          6           0        3.456649    7.250412   -1.563556
     26          7           0        7.264379    1.824235    0.182396
     27          6           0        7.434044    3.076818   -0.238435
     28          6           0        8.945196    3.405462   -0.319497
     29          6           0        9.674330    2.151658    0.235237
     30          6           0        8.458302    1.236306    0.334134
     31          6           0        9.504191    3.879812   -1.719548
     32          6           0       10.298714    2.324631    1.644844
     33          6           0        9.298042    2.686228    2.775696
     34          7           0        6.342090   -0.837985    0.594333
     35          6           0        7.726077   -1.190325    0.604678
     36          6           0        7.936061   -2.577374    0.609348
     37          6           0        6.602330   -3.100109    0.643806
     38          6           0        5.655096   -1.986153    0.664557
     39          6           0        9.265401   -3.346938    0.516478
     40          6           0        5.839498   -4.393266    0.563097
     41          8           0        6.252074   -5.516543    0.305603
     42          6           0        4.313125   -4.004613    0.667387
     43          6           0        3.716406   -4.610718   -0.573625
     44          8           0        4.112898   -4.344715   -1.684474
     45          8           0        2.755085   -5.525681   -0.263545
     46          6           0        2.206286   -6.256381   -1.438218
     47          6           0       -2.805044   -3.334626   -0.890165
     48          6           0       -4.260050   -2.861719   -0.717071
     49          6           0       -5.386425   -3.603084   -0.876053
     50          6           0       -5.352010   -4.985407   -1.387775
     51          6           0       -6.829873   -2.913443   -0.940738
     52          6           0       -7.316122   -1.878003    0.196066
     53          6           0       -7.494310   -0.475134   -0.288632
     54          6           0       -8.937858    0.136568    0.105601
     55          6           0       -9.133757    0.448202    1.598409
     56          6           0       -9.090063    1.424163   -0.665244
     57          6           0       -9.930771    1.219062   -1.953063
     58          6           0      -11.310908    2.017315   -1.986489
     59          6           0      -12.558629    1.147657   -1.845763
     60          6           0      -13.196622    0.857554   -3.247103
     61          6           0      -13.587871    1.732622   -0.772455
     62          6           0      -13.343711    0.974255    0.513101
     63          6           0      -13.916237    1.687951    1.788764
     64          6           0      -12.915004    1.993973    2.906679
     65          6           0      -13.456287    1.879302    4.341115
     66          6           0      -12.337103    3.459747    2.615388
     67          1           0        1.072038    2.133936   -0.068873
     68          1           0        7.042062    4.933797   -0.645069
     69          1           0        9.736584   -0.539030    0.570062
     70          1           0        1.571382   -2.682289   -0.449673
     71          1           0        0.302278   -0.468940    0.639039
     72          1           0       -0.839066   -0.695527   -1.193263
     73          1           0        0.441062   -1.657227   -1.862125
     74          1           0        0.571944    0.125310   -1.998601
     75          1           0        0.841217   -1.634312    2.372318
     76          1           0        1.996196   -2.854384    2.334493
     77          1           0       -0.699938   -3.393164    2.559755
     78          1           0        0.371210   -4.436209    1.906619
     79          1           0        1.279462    5.363896   -1.624847
     80          1           0        1.278119    5.677373    0.185581
     81          1           0        0.632052    4.221311   -0.553299
     82          1           0        2.961021    6.978881   -2.495671
     83          1           0        3.796539    8.253705   -1.821395
     84          1           0        2.825295    7.337198   -0.679884
     85          1           0        9.104926    4.316117    0.257257
     86          1           0       10.405334    1.741960   -0.462077
     87          1           0       10.311053    4.574266   -1.485085
     88          1           0        8.865395    4.445749   -2.397612
     89          1           0        9.809122    3.028312   -2.326967
     90          1           0       10.827321    3.277216    1.682754
     91          1           0       10.841272    1.408299    1.874914
     92          1           0        8.968010    1.774308    3.272298
     93          1           0        8.443606    3.285912    2.462731
     94          1           0        9.677877    3.278834    3.608957
     95          1           0        9.703433   -3.389941    1.512945
     96          1           0        9.912088   -2.890484   -0.233333
     97          1           0        8.946717   -4.311479    0.121431
     98          1           0        3.998255   -4.548298    1.557700
     99          1           0        2.951415   -6.836659   -1.981403
    100          1           0        1.800324   -5.525470   -2.137682
    101          1           0        1.473138   -7.006195   -1.140806
    102          1           0       -2.605736   -4.380864   -1.121152
    103          1           0       -2.520440   -2.658905   -1.695881
    104          1           0       -4.249397   -1.786431   -0.538828
    105          1           0       -4.544049   -5.077907   -2.112820
    106          1           0       -6.235998   -5.409256   -1.863774
    107          1           0       -5.008023   -5.691962   -0.631293
    108          1           0       -7.549840   -3.728408   -1.020344
    109          1           0       -6.863155   -2.417253   -1.910674
    110          1           0       -6.556704   -1.913255    0.977405
    111          1           0       -8.241154   -2.357096    0.519021
    112          1           0       -7.469888   -0.408680   -1.376117
    113          1           0       -6.643328    0.025221    0.173934
    114          1           0       -9.653769   -0.604794   -0.249665
    115          1           0       -8.190929    0.679005    2.093672
    116          1           0       -9.661081   -0.330455    2.150787
    117          1           0       -9.729771    1.343514    1.778850
    118          1           0       -8.094224    1.731719   -0.986687
    119          1           0       -9.479490    2.287419   -0.126294
    120          1           0      -10.030660    0.169849   -2.232829
    121          1           0       -9.233255    1.607292   -2.695672
    122          1           0      -11.384895    2.510759   -2.955650
    123          1           0      -11.340544    2.834668   -1.266944
    124          1           0      -12.304808    0.150548   -1.487715
    125          1           0      -12.774160    1.393228   -4.096776
    126          1           0      -14.252666    1.111290   -3.332255
    127          1           0      -13.101285   -0.198098   -3.502473
    128          1           0      -14.609153    1.450759   -1.027412
    129          1           0      -13.436650    2.776305   -0.496214
    130          1           0      -12.282724    0.746397    0.611479
    131          1           0      -13.835542    0.007369    0.411622
    132          1           0      -14.654693    1.003614    2.205707
    133          1           0      -14.423650    2.628849    1.572951
    134          1           0      -12.063066    1.320312    2.820235
    135          1           0      -13.719304    2.892425    4.646644
    136          1           0      -12.810131    1.559592    5.159351
    137          1           0      -14.342552    1.245196    4.333097
    138          1           0      -12.734767    3.965207    1.736279
    139          1           0      -11.268432    3.244892    2.625415
    140          1           0      -12.493503    4.211288    3.389649
 ---------------------------------------------------------------------

 SCF Done:  E(RwB97XD) =  -3007.84962255     A.U. after   19 cycles

 Excitation energies and oscillator strengths:

 Excited State   1:      Singlet-A      1.6723 eV  741.39 nm  f=0.3675  <S**2>=0.000
     245 -> 248       -0.19293
     246 -> 247        0.68180
     245 <- 248       -0.11963
 This state for optimization and/or second-order correction.
 Total Energy, E(TD-HF/TD-DFT) =  -3007.78816584
 Copying the excited state density for this state as the 1-particle RhoCI density.

 Excited State   2:      Singlet-A      2.1949 eV  564.87 nm  f=0.1232  <S**2>=0.000
     245 -> 247        0.63774
     246 -> 248        0.29206

 Excited State   3:      Singlet-A      3.3489 eV  370.23 nm  f=0.0217  <S**2>=0.000
     240 -> 247        0.12929
     243 -> 247        0.59638
     244 -> 247       -0.19147
     246 -> 248       -0.21042

 Excited State   4:      Singlet-A      3.4423 eV  360.17 nm  f=0.0080  <S**2>=0.000
     239 -> 247        0.13407
     240 -> 247        0.56730
     240 -> 249        0.23249
     240 -> 250       -0.15019
     243 -> 247       -0.16881
     244 -> 247        0.13949

 Excited State   5:      Singlet-A      3.5752 eV  346.79 nm  f=0.3318  <S**2>=0.000
     240 -> 247       -0.11387
     244 -> 247        0.46531
     244 -> 249       -0.10726
     245 -> 247        0.18626
     246 -> 248       -0.45665

 The electronic state is 1-A.
 Alpha  occ. eigenvalues --  -46.94575 -19.30441 -19.29920 -19.26270 -19.24376
 Alpha  occ. eigenvalues --  -19.23760 -19.22873 -14.46191 -14.45921 -14.44201
 Alpha  occ. eigenvalues --  -14.43831 -10.44244 -10.42288 -10.39302 -10.38082
 Alpha  occ. eigenvalues --  -10.36161 -10.35203 -10.34967 -10.34769 -10.34588
 Alpha  occ. eigenvalues --  -10.34546 -10.33855 -10.33509 -10.33378 -10.33286
 Alpha  occ. eigenvalues --  -10.32888 -10.32634 -10.32601 -10.32317 -10.32265
 Alpha  occ. eigenvalues --  -10.32114 -10.32051 -10.31606 -10.31533 -10.31462
 Alpha  occ. eigenvalues --  -10.31184 -10.30932 -10.30877 -10.30866 -10.30604
 Alpha  occ. eigenvalues --  -10.30574 -10.30557 -10.30380 -10.30299 -10.30149
 Alpha  occ. eigenvalues --  -10.29978 -10.29909 -10.29901 -10.29861 -10.29409
 Alpha  occ. eigenvalues --  -10.29327 -10.29325 -10.29116 -10.29015 -10.28992
 Alpha  occ. eigenvalues --  -10.28966 -10.28857 -10.28729 -10.28556 -10.28519
 Alpha  occ. eigenvalues --  -10.28431 -10.28387 -10.28375 -10.28165 -10.28142
 Alpha  occ. eigenvalues --  -10.28074  -3.20668  -1.94247  -1.93807  -1.93633
 Alpha  occ. eigenvalues --   -1.19607  -1.17867  -1.12020  -1.11739  -1.11531
 Alpha  occ. eigenvalues --   -1.09484  -1.06765  -1.06334  -1.04322  -1.03132
 Alpha  occ. eigenvalues --   -0.93305  -0.92034  -0.91404  -0.91042  -0.90942
 Alpha  occ. eigenvalues --   -0.90609  -0.89832  -0.88961  -0.88652  -0.88352
 Alpha  occ. eigenvalues --   -0.87659  -0.86845  -0.86173  -0.84976  -0.84677
 Alpha  occ. eigenvalues --   -0.84237  -0.83409  -0.83032  -0.82319  -0.81851
 Alpha  occ. eigenvalues --   -0.81496  -0.79939  -0.79631  -0.78851  -0.77877
 Alpha  occ. eigenvalues --   -0.77673  -0.77113  -0.76872  -0.76602  -0.76218
 Alpha  occ. eigenvalues --   -0.75073  -0.74574  -0.73177  -0.72513  -0.71506
 Alpha  occ. eigenvalues --   -0.70684  -0.69592  -0.68406  -0.68196  -0.67123
 Alpha  occ. eigenvalues --   -0.67004  -0.66992  -0.66445  -0.66042  -0.65796
 Alpha  occ. eigenvalues --   -0.65643  -0.65467  -0.64464  -0.63534  -0.63003
 Alpha  occ. eigenvalues --   -0.61786  -0.61307  -0.61140  -0.60315  -0.59502
 Alpha  occ. eigenvalues --   -0.59061  -0.58653  -0.58060  -0.57432  -0.56935
 Alpha  occ. eigenvalues --   -0.56711  -0.56498  -0.56237  -0.56116  -0.56017
 Alpha  occ. eigenvalues --   -0.55868  -0.55339  -0.55242  -0.55159  -0.54489
 Alpha  occ. eigenvalues --   -0.54434  -0.54203  -0.53799  -0.53670  -0.53597
 Alpha  occ. eigenvalues --   -0.53319  -0.52906  -0.52780  -0.52463  -0.52356
 Alpha  occ. eigenvalues --   -0.52344  -0.52094  -0.51650  -0.51447  -0.51147
 Alpha  occ. eigenvalues --   -0.51036  -0.50865  -0.50669  -0.50403  -0.50366
 Alpha  occ. eigenvalues --   -0.50170  -0.50080  -0.49923  -0.49780  -0.49562
 Alpha  occ. eigenvalues --   -0.49304  -0.49010  -0.48883  -0.48779  -0.48509
 Alpha  occ. eigenvalues --   -0.47999  -0.47965  -0.47956  -0.47757  -0.47655
 Alpha  occ. eigenvalues --   -0.47220  -0.47021  -0.46984  -0.46697  -0.46561
 Alpha  occ. eigenvalues --   -0.46395  -0.46281  -0.46170  -0.45782  -0.45566
 Alpha  occ. eigenvalues --   -0.45417  -0.45341  -0.45119  -0.44871  -0.44708
 Alpha  occ. eigenvalues --   -0.44688  -0.44583  -0.44038  -0.43970  -0.43860
 Alpha  occ. eigenvalues --   -0.43793  -0.43728  -0.43513  -0.43328  -0.43268
 Alpha  occ. eigenvalues --   -0.42921  -0.42857  -0.42341  -0.42158  -0.41926
 Alpha  occ. eigenvalues --   -0.41473  -0.41333  -0.40839  -0.40628  -0.40390
 Alpha  occ. eigenvalues --   -0.40293  -0.40108  -0.40008  -0.39270  -0.39113
 Alpha  occ. eigenvalues --   -0.39053  -0.38728  -0.38421  -0.38107  -0.37944
 Alpha  occ. eigenvalues --   -0.37808  -0.37550  -0.37031  -0.36585  -0.36068
 Alpha  occ. eigenvalues --   -0.35965  -0.35714  -0.35185  -0.33266  -0.32618
 Alpha  occ. eigenvalues --   -0.32073  -0.32045  -0.31901  -0.31459  -0.25645
 Alpha  occ. eigenvalues --   -0.22726
 Alpha virt. eigenvalues --   -0.06719   0.00584   0.02881   0.04931   0.05860
 Alpha virt. eigenvalues --    0.06179   0.06495   0.08460   0.08526   0.10033
 Alpha virt. eigenvalues --    0.10757   0.11601   0.11621   0.12071   0.12495

 Mulliken charges:
               1
     1  Mg   0.974420
     2  C   -0.069731
     3  C   -0.067812
     4  C   -0.087379
     5  C   -0.099391
     6  N   -0.281738
     7  C    0.001002
     8  C   -0.102313
     9  C   -0.102152
    10  C    0.041685
    11  C    0.029022
    12  C    0.032208
    13  C    0.039665
    14  C    0.182873
    15  O   -0.239436
    16  O   -0.373105
    17  N   -0.527994
    18  C    0.163366
    19  C   -0.168911
    20  C   -0.073993
    21  C    0.200130
    22  C    0.059476
    23  C    0.040532
    24  O   -0.238861
    25  C   -0.009465
    26  N   -0.339207
    27  C    0.069513
    28  C   -0.104453
    29  C   -0.052914
    30  C    0.064681
    31  C   -0.001342
    32  C    0.016120
    33  C   -0.087386
    34  N   -0.454174
    35  C    0.126553
    36  C   -0.181435
    37  C   -0.118325
    38  C    0.219663
    39  C    0.087020
    40  C    0.133087
    41  O   -0.204804
    42  C   -0.037300
    43  C    0.245296
    44  O   -0.239528
    45  O   -0.360072
    46  C    0.148336
    47  C    0.227450
    48  C   -0.134671
    49  C   -0.159807
    50  C   -0.003431
    51  C   -0.004998
    52  C   -0.011451
    53  C   -0.002311
    54  C   -0.196173
    55  C    0.012065
    56  C    0.023750
    57  C   -0.046442
    58  C    0.053915
    59  C   -0.189746
    60  C   -0.008873
    61  C    0.026090
    62  C   -0.063605
    63  C    0.015831
    64  C   -0.215756
    65  C    0.005307
    66  C   -0.035556
    67  H   -0.004373
    68  H    0.019322
    69  H   -0.001401
    70  H    0.076532
    71  H    0.024413
    72  H    0.034052
    73  H    0.037999
    74  H    0.038217
    75  H    0.037743
    76  H    0.032193
    77  H    0.042286
    78  H    0.053038
    79  H    0.056487
    80  H    0.060558
    81  H    0.023408
    82  H    0.054503
    83  H    0.039389
    84  H    0.053652
    85  H    0.034531
    86  H    0.037403
    87  H    0.037648
    88  H    0.042352
    89  H    0.033447
    90  H    0.036479
    91  H    0.040831
    92  H    0.033890
    93  H    0.043901
    94  H    0.034015
    95  H    0.063174
    96  H    0.046712
    97  H    0.068022
    98  H    0.065926
    99  H    0.051684
   100  H    0.061906
   101  H    0.050293
   102  H    0.044742
   103  H    0.043304
   104  H    0.028356
   105  H    0.040007
   106  H    0.044442
   107  H    0.047548
   108  H    0.016825
   109  H    0.040666
   110  H    0.034910
   111  H    0.028035
   112  H    0.021065
   113  H    0.027658
   114  H    0.022892
   115  H    0.022852
   116  H    0.031296
   117  H    0.019111
   118  H    0.012496
   119  H    0.012432
   120  H    0.018233
   121  H    0.012722
   122  H    0.015757
   123  H    0.013238
   124  H    0.023937
   125  H    0.018936
   126  H    0.021416
   127  H    0.025183
   128  H    0.021507
   129  H    0.024999
   130  H    0.017364
   131  H    0.022212
   132  H    0.006686
   133  H    0.020865
   134  H    0.025680
   135  H    0.017699
   136  H    0.033858
   137  H    0.025055
   138  H    0.033705
   139  H    0.036982
   140  H    0.022081
 Sum of Mulliken charges =  -0.00000

 Dipole moment (field-independent basis, Debye):
    X=             -4.9952    Y=              0.6687    Z=              2.0272  Tot=              5.4322
 Quadrupole moment (field-independent basis, Debye-Ang):
   XX=           -384.5830   YY=           -418.8755   ZZ=           -399.5167
   XY=             20.2003   XZ=             19.0585   YZ=             -2.6150

 Normal termination of Gaussian 16 at Fri Apr 29 15:36:50 2022.
