 Gaussian 16, Revision A.03,
 Gaussian 16:  ES64L-G16RevA.03 25-Dec-2016

 --------------------
 #p ZINDO=(nstates=5)
 --------------------

 -----------------------------
 step_351_chromophore_24 ZINDO
 -----------------------------
 Symbolic Z-matrix:
 Charge =  0 Multiplicity = 1

                         Standard orientation:
 ---------------------------------------------------------------------
 Center     Atomic      Atomic             Coordinates (Angstroms)
 Number     Number       Type             X           Y           Z
 ---------------------------------------------------------------------
      1         12           0        5.356645    0.999388    0.380497
      2          6           0        4.321816   -2.445119    0.599024
      3          6           0        2.112109    1.802490   -0.085047
      4          6           0        6.504930    4.000753   -0.461628
      5          6           0        8.712737   -0.164662    0.500121
      6          7           0        3.383592   -0.290964    0.024139
      7          6           0        3.224835   -1.559229    0.354681
      8          6           0        1.746615   -1.968226    0.354275
      9          6           0        1.085255   -0.630712   -0.101725
     10          6           0        2.222992    0.411269   -0.036990
     11          6           0        0.235705   -0.704468   -1.375725
     12          6           0        1.186542   -2.444317    1.730309
     13          6           0       -0.021610   -3.439390    1.707553
     14          6           0       -0.793227   -3.596292    0.352226
     15          8           0       -0.274193   -4.071080   -0.613124
     16          8           0       -2.036203   -2.949909    0.284099
     17          7           0        4.475592    2.715669   -0.090228
     18          6           0        3.089253    2.852461   -0.209717
     19          6           0        2.808415    4.344247   -0.447056
     20          6           0        4.145542    4.934738   -0.626853
     21          6           0        5.121149    3.888476   -0.404208
     22          6           0        1.428723    4.961768   -0.622502
     23          6           0        4.525306    6.303583   -1.104174
     24          8           0        5.648626    6.756917   -0.968732
     25          6           0        3.456649    7.250412   -1.563556
     26          7           0        7.264379    1.824235    0.182396
     27          6           0        7.434044    3.076818   -0.238435
     28          6           0        8.945196    3.405462   -0.319497
     29          6           0        9.674330    2.151658    0.235237
     30          6           0        8.458302    1.236306    0.334134
     31          6           0        9.504191    3.879812   -1.719548
     32          6           0       10.298714    2.324631    1.644844
     33          6           0        9.298042    2.686228    2.775696
     34          7           0        6.342090   -0.837985    0.594333
     35          6           0        7.726077   -1.190325    0.604678
     36          6           0        7.936061   -2.577374    0.609348
     37          6           0        6.602330   -3.100109    0.643806
     38          6           0        5.655096   -1.986153    0.664557
     39          6           0        9.265401   -3.346938    0.516478
     40          6           0        5.839498   -4.393266    0.563097
     41          8           0        6.252074   -5.516543    0.305603
     42          6           0        4.313125   -4.004613    0.667387
     43          6           0        3.716406   -4.610718   -0.573625
     44          8           0        4.112898   -4.344715   -1.684474
     45          8           0        2.755085   -5.525681   -0.263545
     46          6           0        2.206286   -6.256381   -1.438218
     47          6           0       -2.805044   -3.334626   -0.890165
     48          6           0       -4.260050   -2.861719   -0.717071
     49          6           0       -5.386425   -3.603084   -0.876053
     50          6           0       -5.352010   -4.985407   -1.387775
     51          6           0       -6.829873   -2.913443   -0.940738
     52          6           0       -7.316122   -1.878003    0.196066
     53          6           0       -7.494310   -0.475134   -0.288632
     54          6           0       -8.937858    0.136568    0.105601
     55          6           0       -9.133757    0.448202    1.598409
     56          6           0       -9.090063    1.424163   -0.665244
     57          6           0       -9.930771    1.219062   -1.953063
     58          6           0      -11.310908    2.017315   -1.986489
     59          6           0      -12.558629    1.147657   -1.845763
     60          6           0      -13.196622    0.857554   -3.247103
     61          6           0      -13.587871    1.732622   -0.772455
     62          6           0      -13.343711    0.974255    0.513101
     63          6           0      -13.916237    1.687951    1.788764
     64          6           0      -12.915004    1.993973    2.906679
     65          6           0      -13.456287    1.879302    4.341115
     66          6           0      -12.337103    3.459747    2.615388
     67          1           0        1.072038    2.133936   -0.068873
     68          1           0        7.042062    4.933797   -0.645069
     69          1           0        9.736584   -0.539030    0.570062
     70          1           0        1.571382   -2.682289   -0.449673
     71          1           0        0.302278   -0.468940    0.639039
     72          1           0       -0.839066   -0.695527   -1.193263
     73          1           0        0.441062   -1.657227   -1.862125
     74          1           0        0.571944    0.125310   -1.998601
     75          1           0        0.841217   -1.634312    2.372318
     76          1           0        1.996196   -2.854384    2.334493
     77          1           0       -0.699938   -3.393164    2.559755
     78          1           0        0.371210   -4.436209    1.906619
     79          1           0        1.279462    5.363896   -1.624847
     80          1           0        1.278119    5.677373    0.185581
     81          1           0        0.632052    4.221311   -0.553299
     82          1           0        2.961021    6.978881   -2.495671
     83          1           0        3.796539    8.253705   -1.821395
     84          1           0        2.825295    7.337198   -0.679884
     85          1           0        9.104926    4.316117    0.257257
     86          1           0       10.405334    1.741960   -0.462077
     87          1           0       10.311053    4.574266   -1.485085
     88          1           0        8.865395    4.445749   -2.397612
     89          1           0        9.809122    3.028312   -2.326967
     90          1           0       10.827321    3.277216    1.682754
     91          1           0       10.841272    1.408299    1.874914
     92          1           0        8.968010    1.774308    3.272298
     93          1           0        8.443606    3.285912    2.462731
     94          1           0        9.677877    3.278834    3.608957
     95          1           0        9.703433   -3.389941    1.512945
     96          1           0        9.912088   -2.890484   -0.233333
     97          1           0        8.946717   -4.311479    0.121431
     98          1           0        3.998255   -4.548298    1.557700
     99          1           0        2.951415   -6.836659   -1.981403
    100          1           0        1.800324   -5.525470   -2.137682
    101          1           0        1.473138   -7.006195   -1.140806
    102          1           0       -2.605736   -4.380864   -1.121152
    103          1           0       -2.520440   -2.658905   -1.695881
    104          1           0       -4.249397   -1.786431   -0.538828
    105          1           0       -4.544049   -5.077907   -2.112820
    106          1           0       -6.235998   -5.409256   -1.863774
    107          1           0       -5.008023   -5.691962   -0.631293
    108          1           0       -7.549840   -3.728408   -1.020344
    109          1           0       -6.863155   -2.417253   -1.910674
    110          1           0       -6.556704   -1.913255    0.977405
    111          1           0       -8.241154   -2.357096    0.519021
    112          1           0       -7.469888   -0.408680   -1.376117
    113          1           0       -6.643328    0.025221    0.173934
    114          1           0       -9.653769   -0.604794   -0.249665
    115          1           0       -8.190929    0.679005    2.093672
    116          1           0       -9.661081   -0.330455    2.150787
    117          1           0       -9.729771    1.343514    1.778850
    118          1           0       -8.094224    1.731719   -0.986687
    119          1           0       -9.479490    2.287419   -0.126294
    120          1           0      -10.030660    0.169849   -2.232829
    121          1           0       -9.233255    1.607292   -2.695672
    122          1           0      -11.384895    2.510759   -2.955650
    123          1           0      -11.340544    2.834668   -1.266944
    124          1           0      -12.304808    0.150548   -1.487715
    125          1           0      -12.774160    1.393228   -4.096776
    126          1           0      -14.252666    1.111290   -3.332255
    127          1           0      -13.101285   -0.198098   -3.502473
    128          1           0      -14.609153    1.450759   -1.027412
    129          1           0      -13.436650    2.776305   -0.496214
    130          1           0      -12.282724    0.746397    0.611479
    131          1           0      -13.835542    0.007369    0.411622
    132          1           0      -14.654693    1.003614    2.205707
    133          1           0      -14.423650    2.628849    1.572951
    134          1           0      -12.063066    1.320312    2.820235
    135          1           0      -13.719304    2.892425    4.646644
    136          1           0      -12.810131    1.559592    5.159351
    137          1           0      -14.342552    1.245196    4.333097
    138          1           0      -12.734767    3.965207    1.736279
    139          1           0      -11.268432    3.244892    2.625415
    140          1           0      -12.493503    4.211288    3.389649
 ---------------------------------------------------------------------

 SCF Done:  E(RZINDO/S) =  -474.063858150     A.U. after   20 cycles

 Excitation energies and oscillator strengths:

 Excited State   1:      Singlet-A      1.2875 eV  962.99 nm  f=0.5638  <S**2>=0.000
     175 ->178         0.19066
     176 ->177         0.66464
 This state for optimization and/or second-order correction.
 Total Energy, E(CIS/TDA) =  -474.016543655
 Copying the excited state density for this state as the 1-particle RhoCI density.

 Excited State   2:      Singlet-A      1.9267 eV  643.52 nm  f=0.0572  <S**2>=0.000
     175 ->177         0.55311
     176 ->178        -0.41278

 Excited State   3:      Singlet-A      2.9389 eV  421.88 nm  f=0.1048  <S**2>=0.000
     168 ->177         0.34354
     168 ->179        -0.31601
     168 ->181         0.22049
     168 ->186        -0.16807
     169 ->177        -0.16290
     169 ->179         0.14690
     169 ->181        -0.10452
     175 ->177         0.10754
     176 ->178         0.16610

 Excited State   4:      Singlet-A      2.9892 eV  414.77 nm  f=0.0044  <S**2>=0.000
     170 ->177         0.24448
     170 ->179         0.33258
     170 ->181         0.40523
     170 ->184         0.12393
     170 ->186         0.16469
     170 ->188        -0.20036

 Excited State   5:      Singlet-A      3.0127 eV  411.54 nm  f=1.0550  <S**2>=0.000
     168 ->177        -0.10278
     168 ->179         0.11465
     171 ->177         0.14597
     175 ->177         0.33985
     176 ->178         0.49282
     176 ->179         0.17429

 The electronic state is 1-A.
 Alpha  occ. eigenvalues --   -1.83894  -1.81908  -1.78086  -1.73535  -1.72215
 Alpha  occ. eigenvalues --   -1.69397  -1.65185  -1.60009  -1.58530  -1.57642
 Alpha  occ. eigenvalues --   -1.53762  -1.52208  -1.48236  -1.47173  -1.46588
 Alpha  occ. eigenvalues --   -1.43311  -1.42279  -1.39199  -1.38808  -1.36420
 Alpha  occ. eigenvalues --   -1.34821  -1.33736  -1.33454  -1.31095  -1.28969
 Alpha  occ. eigenvalues --   -1.26975  -1.24501  -1.20907  -1.20117  -1.17573
 Alpha  occ. eigenvalues --   -1.17203  -1.15413  -1.14515  -1.14228  -1.13107
 Alpha  occ. eigenvalues --   -1.12675  -1.11087  -1.10810  -1.05343  -1.03513
 Alpha  occ. eigenvalues --   -1.02055  -1.01332  -0.98641  -0.97375  -0.96522
 Alpha  occ. eigenvalues --   -0.95785  -0.95355  -0.93331  -0.92587  -0.92233
 Alpha  occ. eigenvalues --   -0.91145  -0.89944  -0.89528  -0.88065  -0.86766
 Alpha  occ. eigenvalues --   -0.85437  -0.83575  -0.83232  -0.81736  -0.80423
 Alpha  occ. eigenvalues --   -0.79358  -0.78899  -0.77004  -0.76454  -0.75867
 Alpha  occ. eigenvalues --   -0.75417  -0.75239  -0.74880  -0.74563  -0.73712
 Alpha  occ. eigenvalues --   -0.73242  -0.72628  -0.72256  -0.71345  -0.70500
 Alpha  occ. eigenvalues --   -0.70427  -0.69322  -0.68538  -0.68296  -0.67414
 Alpha  occ. eigenvalues --   -0.67072  -0.66474  -0.66064  -0.65789  -0.65544
 Alpha  occ. eigenvalues --   -0.65003  -0.64633  -0.64376  -0.63818  -0.63657
 Alpha  occ. eigenvalues --   -0.63346  -0.62562  -0.62272  -0.61868  -0.61418
 Alpha  occ. eigenvalues --   -0.61384  -0.61208  -0.60649  -0.60386  -0.59890
 Alpha  occ. eigenvalues --   -0.59570  -0.59390  -0.58709  -0.58225  -0.58115
 Alpha  occ. eigenvalues --   -0.57919  -0.57373  -0.56553  -0.56019  -0.55872
 Alpha  occ. eigenvalues --   -0.55685  -0.55187  -0.54845  -0.54594  -0.54259
 Alpha  occ. eigenvalues --   -0.54060  -0.53509  -0.53483  -0.53084  -0.52590
 Alpha  occ. eigenvalues --   -0.52514  -0.52278  -0.51949  -0.51765  -0.51490
 Alpha  occ. eigenvalues --   -0.51285  -0.50996  -0.50918  -0.50489  -0.49940
 Alpha  occ. eigenvalues --   -0.49746  -0.49509  -0.49232  -0.49149  -0.49075
 Alpha  occ. eigenvalues --   -0.48943  -0.48717  -0.48263  -0.47928  -0.47703
 Alpha  occ. eigenvalues --   -0.47603  -0.47292  -0.46950  -0.46619  -0.46545
 Alpha  occ. eigenvalues --   -0.46519  -0.45845  -0.45667  -0.45496  -0.45162
 Alpha  occ. eigenvalues --   -0.45070  -0.44764  -0.44554  -0.44404  -0.43666
 Alpha  occ. eigenvalues --   -0.43434  -0.42758  -0.42636  -0.42390  -0.42079
 Alpha  occ. eigenvalues --   -0.41702  -0.41675  -0.41225  -0.39415  -0.38575
 Alpha  occ. eigenvalues --   -0.37777  -0.36773  -0.35233  -0.34771  -0.33861
 Alpha  occ. eigenvalues --   -0.33048  -0.32508  -0.32415  -0.31364  -0.26227
 Alpha  occ. eigenvalues --   -0.21561
 Alpha virt. eigenvalues --   -0.08128  -0.01689   0.00100   0.01343   0.01817
 Alpha virt. eigenvalues --    0.02610   0.03109   0.03433   0.03898   0.04931
 Alpha virt. eigenvalues --    0.06674   0.07084   0.07718   0.07944   0.08061

 Mulliken charges:
               1
     1  Mg   0.430487
     2  C   -0.060943
     3  C   -0.060743
     4  C   -0.050448
     5  C   -0.090747
     6  N   -0.270358
     7  C    0.163360
     8  C    0.001342
     9  C   -0.001020
    10  C    0.100697
    11  C   -0.051326
    12  C   -0.010343
    13  C    0.000244
    14  C    0.463779
    15  O   -0.498056
    16  O   -0.279287
    17  N   -0.313615
    18  C    0.068239
    19  C   -0.029822
    20  C   -0.064031
    21  C    0.130787
    22  C   -0.037333
    23  C    0.331717
    24  O   -0.534459
    25  C   -0.032226
    26  N   -0.258138
    27  C    0.116737
    28  C   -0.004144
    29  C    0.004524
    30  C    0.167871
    31  C   -0.058079
    32  C   -0.026977
    33  C   -0.059621
    34  N   -0.341611
    35  C    0.117983
    36  C    0.039142
    37  C   -0.052923
    38  C    0.139899
    39  C   -0.037121
    40  C    0.332332
    41  O   -0.506264
    42  C    0.051109
    43  C    0.497230
    44  O   -0.516145
    45  O   -0.267679
    46  C    0.075346
    47  C    0.099912
    48  C   -0.081618
    49  C   -0.010083
    50  C   -0.038933
    51  C   -0.042621
    52  C   -0.033857
    53  C   -0.033293
    54  C   -0.008410
    55  C   -0.056794
    56  C   -0.033059
    57  C   -0.045482
    58  C   -0.030295
    59  C   -0.010666
    60  C   -0.063881
    61  C   -0.039807
    62  C   -0.038063
    63  C   -0.035387
    64  C   -0.009225
    65  C   -0.059084
    66  C   -0.070970
    67  H    0.021428
    68  H    0.045379
    69  H    0.029528
    70  H    0.059469
    71  H    0.014607
    72  H    0.023604
    73  H    0.027521
    74  H    0.024022
    75  H    0.023805
    76  H    0.018588
    77  H    0.034621
    78  H    0.031574
    79  H    0.030593
    80  H    0.033381
    81  H    0.017095
    82  H    0.034577
    83  H    0.027634
    84  H    0.039627
    85  H    0.029166
    86  H    0.034578
    87  H    0.017839
    88  H    0.027103
    89  H    0.018133
    90  H    0.026538
    91  H    0.030713
    92  H    0.012779
    93  H    0.027910
    94  H    0.013785
    95  H    0.041043
    96  H    0.032343
    97  H    0.040029
    98  H    0.059093
    99  H    0.042525
   100  H    0.049781
   101  H    0.032995
   102  H    0.059397
   103  H    0.045011
   104  H    0.034800
   105  H    0.018418
   106  H    0.026680
   107  H    0.025973
   108  H    0.015392
   109  H    0.024884
   110  H    0.023073
   111  H    0.021429
   112  H    0.023877
   113  H    0.026205
   114  H    0.026615
   115  H    0.018113
   116  H    0.014786
   117  H    0.015825
   118  H    0.011196
   119  H    0.021959
   120  H    0.025959
   121  H    0.008476
   122  H    0.015635
   123  H    0.021639
   124  H    0.022195
   125  H    0.016918
   126  H    0.015307
   127  H    0.014153
   128  H    0.024973
   129  H    0.032212
   130  H    0.020100
   131  H    0.013054
   132  H    0.008638
   133  H    0.023125
   134  H    0.018917
   135  H    0.014244
   136  H    0.022605
   137  H    0.017531
   138  H    0.026609
   139  H    0.016859
   140  H    0.016063
 Sum of Mulliken charges =  -0.00000

 Dipole moment (field-independent basis, Debye):
    X=             -5.2967    Y=             -0.2902    Z=              4.0419  Tot=              6.6690
 N-N= 4.317928646117D+03 E-N= 0.000000000000D+00  KE=-9.310489362725D+03
 Leave Link  601 at Fri Apr 29 15:49:08 2022, MaxMem=  6710886400 cpu:               0.8 elap:               0.0
 (Enter /sw/apps/gaussian-16.0/g16/l9999.exe)
 1\1\GINC-BP1-COMPUTE102\SP\RZINDO CIS\STO-3G\C55H74Mg1N4O6\OF15641\29-
 Apr-2022\0\\#p ZINDO=(nstates=5)\\step_351_chromophore_24 ZINDO\\0,1\M
 g,0,-0.224,44.195,24.771\C,0,1.928,43.967,27.652\C,0,-2.794,43.366,26.
 795\C,0,-1.946,43.784,21.96\C,0,2.706,44.666,22.815\N,0,-0.356,43.462,
 27.036\C,0,0.566,43.655,27.961\C,0,0.016,43.418,29.373\C,0,-1.448,42.9
 96,29.037\C,0,-1.61,43.306,27.533\C,0,-1.881,41.617,29.548\C,0,0.052,4
 4.658,30.319\C,0,0.134,44.384,31.858\C,0,-0.185,42.928,32.343\O,0,0.51

 Normal termination of Gaussian 16 at Fri Apr 29 15:49:08 2022.
