 Gaussian 16, Revision A.03,
 Gaussian 16:  ES64L-G16RevA.03 25-Dec-2016

 ------------------------------
 #p blyp/Def2SVP td=(nstates=5)
 ------------------------------

 --------------------------------------------------
 step_1051_chromophore_4 TDDFT with blyp functional
 --------------------------------------------------
 Symbolic Z-matrix:
 Charge =  0 Multiplicity = 1

                         Standard orientation:
 ---------------------------------------------------------------------
 Center     Atomic      Atomic             Coordinates (Angstroms)
 Number     Number       Type             X           Y           Z
 ---------------------------------------------------------------------
      1         12           0        5.789773    0.637518    0.410953
      2          6           0        3.706383   -2.164712    0.241284
      3          6           0        3.241911    2.599962   -0.547058
      4          6           0        8.043970    3.143630   -0.074675
      5          6           0        8.443559   -1.629185    0.622361
      6          7           0        3.690147    0.260032   -0.212938
      7          6           0        3.066687   -0.967188   -0.039989
      8          6           0        1.495924   -0.741351   -0.184890
      9          6           0        1.419428    0.701959   -0.741699
     10          6           0        2.831897    1.303226   -0.400308
     11          6           0        1.196835    0.811053   -2.271881
     12          6           0        0.582055   -1.005789    1.090349
     13          6           0       -0.663478   -1.996285    0.895021
     14          6           0       -1.618017   -1.793499   -0.239218
     15          8           0       -1.266944   -1.189650   -1.237952
     16          8           0       -2.864198   -2.373159    0.028347
     17          7           0        5.607169    2.620796   -0.053284
     18          6           0        4.457566    3.250410   -0.403544
     19          6           0        4.697053    4.636281   -0.631092
     20          6           0        6.080712    4.826812   -0.421715
     21          6           0        6.663845    3.475741   -0.170023
     22          6           0        3.643121    5.662403   -0.959948
     23          6           0        6.936603    6.116853   -0.569073
     24          8           0        8.118164    6.100216   -0.241309
     25          6           0        6.221906    7.309085   -0.968974
     26          7           0        7.899553    0.711390    0.291347
     27          6           0        8.599012    1.875340    0.118168
     28          6           0       10.111593    1.603737    0.092596
     29          6           0       10.144341    0.136197    0.536662
     30          6           0        8.747888   -0.302859    0.514395
     31          6           0       10.826401    1.806435   -1.257409
     32          6           0       10.912141   -0.052963    1.984211
     33          6           0       11.904371   -1.198871    2.145692
     34          7           0        6.073886   -1.394513    0.623451
     35          6           0        7.194414   -2.195895    0.664795
     36          6           0        6.844783   -3.591824    0.754865
     37          6           0        5.467933   -3.665098    0.570420
     38          6           0        5.112238   -2.295635    0.464549
     39          6           0        7.830273   -4.731677    0.950035
     40          6           0        4.271914   -4.481649    0.521152
     41          8           0        4.196762   -5.728069    0.527326
     42          6           0        3.048193   -3.513510    0.391467
     43          6           0        2.303545   -3.839793   -0.796623
     44          8           0        2.654996   -3.466847   -1.887034
     45          8           0        1.230921   -4.686835   -0.553471
     46          6           0        0.322624   -4.951458   -1.656079
     47          6           0       -3.837926   -2.225884   -1.024090
     48          6           0       -5.173664   -1.903829   -0.411068
     49          6           0       -6.155962   -2.660334    0.069037
     50          6           0       -6.083238   -4.175886    0.151115
     51          6           0       -7.543583   -2.062647    0.140646
     52          6           0       -7.945598   -1.581340   -1.271241
     53          6           0       -8.049968   -0.026730   -1.427965
     54          6           0       -9.525361    0.472773   -1.215214
     55          6           0      -10.077464    0.962470   -2.615296
     56          6           0       -9.549916    1.596538   -0.085228
     57          6           0      -10.033041    1.015790    1.272921
     58          6           0      -10.301707    2.185320    2.360392
     59          6           0      -11.720714    2.188319    2.808983
     60          6           0      -11.872002    3.064671    4.118432
     61          6           0      -12.616123    2.717265    1.647517
     62          6           0      -13.929096    1.953337    1.411307
     63          6           0      -13.690648    0.806486    0.348445
     64          6           0      -14.742135    0.804013   -0.734698
     65          6           0      -15.732017   -0.366063   -0.571470
     66          6           0      -14.119568    0.639549   -2.058274
     67          1           0        2.340600    3.081343   -0.933834
     68          1           0        8.826940    3.884144   -0.250034
     69          1           0        9.291134   -2.300825    0.471975
     70          1           0        1.117956   -1.410796   -0.958153
     71          1           0        0.697312    1.322654   -0.212046
     72          1           0        1.034675   -0.152926   -2.756034
     73          1           0        2.081147    1.235957   -2.745268
     74          1           0        0.284712    1.388048   -2.419845
     75          1           0        0.143074   -0.060977    1.411261
     76          1           0        1.246144   -1.345877    1.885654
     77          1           0       -1.201146   -2.100025    1.837431
     78          1           0       -0.171489   -2.908122    0.557771
     79          1           0        3.817695    5.832176   -2.023137
     80          1           0        3.730684    6.618216   -0.443567
     81          1           0        2.579583    5.492642   -0.790838
     82          1           0        5.551637    7.681208   -0.193766
     83          1           0        5.666380    7.042558   -1.867714
     84          1           0        6.884788    8.142592   -1.201575
     85          1           0       10.650206    2.205209    0.824605
     86          1           0       10.727686   -0.543774   -0.084338
     87          1           0       10.225975    1.633764   -2.150594
     88          1           0       11.660080    1.104999   -1.276630
     89          1           0       11.171612    2.838704   -1.317706
     90          1           0       10.154178   -0.118267    2.765160
     91          1           0       11.527973    0.806934    2.246055
     92          1           0       11.770624   -1.846900    1.279498
     93          1           0       11.758237   -1.793342    3.047878
     94          1           0       12.950688   -0.926245    2.281586
     95          1           0        8.545038   -4.432048    1.716468
     96          1           0        8.404869   -5.046093    0.077964
     97          1           0        7.253155   -5.587470    1.300477
     98          1           0        2.341717   -3.542715    1.220249
     99          1           0       -0.145016   -3.985158   -1.838816
    100          1           0       -0.497460   -5.668050   -1.629730
    101          1           0        0.891506   -5.318511   -2.510186
    102          1           0       -3.972841   -3.173758   -1.545018
    103          1           0       -3.573410   -1.432373   -1.722802
    104          1           0       -5.384701   -0.847241   -0.576240
    105          1           0       -6.592254   -4.603394   -0.713159
    106          1           0       -6.507375   -4.521288    1.094097
    107          1           0       -5.042195   -4.464172    0.012361
    108          1           0       -7.607654   -1.191841    0.793474
    109          1           0       -8.290646   -2.676914    0.643850
    110          1           0       -8.793680   -2.166671   -1.626696
    111          1           0       -7.221726   -1.903256   -2.019340
    112          1           0       -7.525726    0.218913   -2.351189
    113          1           0       -7.384666    0.392407   -0.671889
    114          1           0      -10.177369   -0.315059   -0.835806
    115          1           0      -10.001473    2.050082   -2.632122
    116          1           0      -11.134158    0.702973   -2.669483
    117          1           0       -9.535946    0.518856   -3.450491
    118          1           0      -10.174187    2.419638   -0.431540
    119          1           0       -8.611509    2.130370    0.060884
    120          1           0       -9.168025    0.422770    1.568310
    121          1           0      -10.872541    0.330000    1.162685
    122          1           0       -9.900294    3.160293    2.083898
    123          1           0       -9.755783    1.948097    3.274456
    124          1           0      -11.997192    1.192035    3.152057
    125          1           0      -12.714754    3.751154    4.039352
    126          1           0      -11.052040    3.715056    4.425936
    127          1           0      -12.035317    2.352711    4.928021
    128          1           0      -12.163572    2.758717    0.657628
    129          1           0      -12.812604    3.773486    1.833037
    130          1           0      -14.660667    2.701721    1.106529
    131          1           0      -14.322348    1.498896    2.320609
    132          1           0      -13.755270   -0.138993    0.884885
    133          1           0      -12.657346    0.845476    0.005091
    134          1           0      -15.345576    1.710800   -0.766550
    135          1           0      -15.664438   -0.881775    0.386862
    136          1           0      -15.585543   -1.085666   -1.376845
    137          1           0      -16.742280    0.040525   -0.544944
    138          1           0      -13.466161    1.498145   -2.210633
    139          1           0      -14.848293    0.778853   -2.856695
    140          1           0      -13.530883   -0.274182   -2.139974
 ---------------------------------------------------------------------

 SCF Done:  E(RB-LYP) =  -3007.36814081     A.U. after   22 cycles

 Excitation energies and oscillator strengths:

 Excited State   1:      Singlet-A      1.8169 eV  682.38 nm  f=0.3118  <S**2>=0.000
     245 -> 248        0.14837
     245 -> 249       -0.11968
     246 -> 247        0.69204
     246 <- 247       -0.15154
 This state for optimization and/or second-order correction.
 Total Energy, E(TD-HF/TD-DFT) =  -3007.30136926
 Copying the excited state density for this state as the 1-particle RhoCI density.

 Excited State   2:      Singlet-A      2.0422 eV  607.11 nm  f=0.0752  <S**2>=0.000
     243 -> 247        0.13178
     244 -> 247        0.13922
     245 -> 247        0.62843
     246 -> 248       -0.19516
     246 -> 249        0.12742

 Excited State   3:      Singlet-A      2.0906 eV  593.05 nm  f=0.0034  <S**2>=0.000
     244 -> 247        0.69241
     245 -> 247       -0.12207

 Excited State   4:      Singlet-A      2.2086 eV  561.38 nm  f=0.0025  <S**2>=0.000
     243 -> 247        0.69202
     245 -> 247       -0.11143

 Excited State   5:      Singlet-A      2.5841 eV  479.80 nm  f=0.0001  <S**2>=0.000
     241 -> 247        0.70312

 The electronic state is 1-A.
 Alpha  occ. eigenvalues --  -46.26201 -18.82766 -18.81971 -18.77937 -18.76387
 Alpha  occ. eigenvalues --  -18.75758 -18.75399 -14.02412 -14.02270 -14.00765
 Alpha  occ. eigenvalues --  -14.00664 -10.04852 -10.03438 -10.00146  -9.99591
 Alpha  occ. eigenvalues --   -9.97841  -9.97621  -9.95976  -9.95616  -9.95578
 Alpha  occ. eigenvalues --   -9.95328  -9.95084  -9.94993  -9.94603  -9.94365
 Alpha  occ. eigenvalues --   -9.93875  -9.93808  -9.93759  -9.93292  -9.93263
 Alpha  occ. eigenvalues --   -9.93258  -9.93116  -9.93109  -9.92996  -9.92938
 Alpha  occ. eigenvalues --   -9.92921  -9.92882  -9.92685  -9.92560  -9.92534
 Alpha  occ. eigenvalues --   -9.92179  -9.92070  -9.92051  -9.91909  -9.91889
 Alpha  occ. eigenvalues --   -9.91862  -9.91848  -9.91809  -9.91735  -9.91670
 Alpha  occ. eigenvalues --   -9.91607  -9.91565  -9.91392  -9.91325  -9.91302
 Alpha  occ. eigenvalues --   -9.91300  -9.91147  -9.91124  -9.91115  -9.91067
 Alpha  occ. eigenvalues --   -9.90915  -9.90824  -9.90789  -9.90725  -9.90528
 Alpha  occ. eigenvalues --   -9.90487  -2.90971  -1.71385  -1.70834  -1.70707
 Alpha  occ. eigenvalues --   -0.98101  -0.97708  -0.91426  -0.91189  -0.90478
 Alpha  occ. eigenvalues --   -0.89958  -0.87089  -0.86044  -0.85424  -0.83863
 Alpha  occ. eigenvalues --   -0.75713  -0.74155  -0.73415  -0.72256  -0.71990
 Alpha  occ. eigenvalues --   -0.71442  -0.71391  -0.70935  -0.70675  -0.70509
 Alpha  occ. eigenvalues --   -0.69830  -0.68871  -0.67850  -0.67473  -0.67036
 Alpha  occ. eigenvalues --   -0.66455  -0.66375  -0.65588  -0.65156  -0.64436
 Alpha  occ. eigenvalues --   -0.64040  -0.62239  -0.62028  -0.61774  -0.60945
 Alpha  occ. eigenvalues --   -0.60359  -0.60163  -0.59839  -0.59338  -0.59061
 Alpha  occ. eigenvalues --   -0.58181  -0.57673  -0.56365  -0.55483  -0.54298
 Alpha  occ. eigenvalues --   -0.53974  -0.53566  -0.52594  -0.52092  -0.51668
 Alpha  occ. eigenvalues --   -0.51432  -0.50832  -0.50394  -0.50341  -0.50233
 Alpha  occ. eigenvalues --   -0.50156  -0.49564  -0.49030  -0.48261  -0.46621
 Alpha  occ. eigenvalues --   -0.46146  -0.45978  -0.45484  -0.44829  -0.44714
 Alpha  occ. eigenvalues --   -0.44317  -0.43747  -0.43364  -0.42816  -0.42513
 Alpha  occ. eigenvalues --   -0.42148  -0.41880  -0.41549  -0.41505  -0.40821
 Alpha  occ. eigenvalues --   -0.40680  -0.40482  -0.40398  -0.40356  -0.40147
 Alpha  occ. eigenvalues --   -0.39947  -0.39838  -0.39319  -0.39146  -0.38938
 Alpha  occ. eigenvalues --   -0.38580  -0.38500  -0.38449  -0.38080  -0.38025
 Alpha  occ. eigenvalues --   -0.37893  -0.37695  -0.37610  -0.37311  -0.37207
 Alpha  occ. eigenvalues --   -0.36953  -0.36796  -0.36645  -0.36560  -0.36459
 Alpha  occ. eigenvalues --   -0.36225  -0.35961  -0.35506  -0.35283  -0.35228
 Alpha  occ. eigenvalues --   -0.35169  -0.34928  -0.34763  -0.34704  -0.34598
 Alpha  occ. eigenvalues --   -0.34509  -0.34439  -0.34255  -0.34118  -0.33972
 Alpha  occ. eigenvalues --   -0.33856  -0.33700  -0.33479  -0.33281  -0.32695
 Alpha  occ. eigenvalues --   -0.32673  -0.32570  -0.32463  -0.32292  -0.32024
 Alpha  occ. eigenvalues --   -0.31865  -0.31665  -0.31648  -0.31460  -0.31143
 Alpha  occ. eigenvalues --   -0.31130  -0.30833  -0.30629  -0.30499  -0.30211
 Alpha  occ. eigenvalues --   -0.30014  -0.29967  -0.29922  -0.29851  -0.29760
 Alpha  occ. eigenvalues --   -0.29228  -0.29183  -0.28824  -0.28735  -0.28614
 Alpha  occ. eigenvalues --   -0.28461  -0.28406  -0.28257  -0.28006  -0.27778
 Alpha  occ. eigenvalues --   -0.27601  -0.27520  -0.27484  -0.27432  -0.26688
 Alpha  occ. eigenvalues --   -0.26441  -0.25718  -0.25614  -0.25187  -0.25002
 Alpha  occ. eigenvalues --   -0.24946  -0.24797  -0.24440  -0.23967  -0.23533
 Alpha  occ. eigenvalues --   -0.23172  -0.22683  -0.21818  -0.21612  -0.20869
 Alpha  occ. eigenvalues --   -0.20470  -0.20258  -0.18929  -0.18573  -0.16880
 Alpha  occ. eigenvalues --   -0.15257
 Alpha virt. eigenvalues --   -0.10979  -0.06416  -0.05876  -0.04426  -0.03688
 Alpha virt. eigenvalues --   -0.02828  -0.02477  -0.02048  -0.00969   0.00598
 Alpha virt. eigenvalues --    0.01516   0.02257   0.02645   0.02898   0.03286

 Mulliken charges:
               1
     1  Mg   0.709501
     2  C   -0.018529
     3  C   -0.052158
     4  C   -0.032208
     5  C   -0.163196
     6  N   -0.234978
     7  C   -0.058808
     8  C    0.006658
     9  C   -0.000967
    10  C   -0.083799
    11  C    0.146093
    12  C    0.127616
    13  C    0.102991
    14  C    0.077710
    15  O   -0.192370
    16  O   -0.270067
    17  N   -0.285532
    18  C    0.213497
    19  C   -0.121723
    20  C   -0.013013
    21  C    0.112850
    22  C    0.163599
    23  C   -0.060922
    24  O   -0.163342
    25  C    0.156616
    26  N   -0.217211
    27  C    0.005552
    28  C    0.055173
    29  C   -0.002553
    30  C    0.085128
    31  C    0.121297
    32  C    0.073996
    33  C    0.054415
    34  N   -0.231387
    35  C    0.163794
    36  C   -0.209576
    37  C    0.121676
    38  C    0.075062
    39  C    0.168383
    40  C   -0.045333
    41  O   -0.152205
    42  C    0.149673
    43  C    0.067067
    44  O   -0.160771
    45  O   -0.280034
    46  C    0.220153
    47  C    0.340131
    48  C   -0.121015
    49  C   -0.137456
    50  C    0.145227
    51  C    0.148424
    52  C    0.037295
    53  C    0.101607
    54  C   -0.050101
    55  C    0.101354
    56  C    0.065952
    57  C    0.061303
    58  C    0.126888
    59  C   -0.055380
    60  C    0.094266
    61  C    0.096258
    62  C    0.065744
    63  C    0.097060
    64  C   -0.074445
    65  C    0.109004
    66  C    0.096370
    67  H   -0.072022
    68  H   -0.046191
    69  H   -0.060603
    70  H    0.004246
    71  H   -0.036094
    72  H    0.002461
    73  H   -0.005064
    74  H   -0.008287
    75  H   -0.020755
    76  H   -0.020949
    77  H    0.004904
    78  H    0.008872
    79  H    0.004769
    80  H   -0.011447
    81  H   -0.009879
    82  H    0.024635
    83  H   -0.001887
    84  H   -0.016526
    85  H   -0.024371
    86  H   -0.032525
    87  H   -0.005520
    88  H   -0.010389
    89  H   -0.001441
    90  H   -0.019512
    91  H   -0.020708
    92  H   -0.011403
    93  H   -0.014531
    94  H   -0.010067
    95  H   -0.011054
    96  H    0.006824
    97  H    0.004407
    98  H   -0.007602
    99  H    0.009014
   100  H    0.014924
   101  H    0.014480
   102  H   -0.017480
   103  H   -0.008874
   104  H   -0.040129
   105  H   -0.001922
   106  H    0.005080
   107  H   -0.009917
   108  H   -0.020508
   109  H   -0.045217
   110  H   -0.036656
   111  H   -0.035232
   112  H   -0.033314
   113  H   -0.027069
   114  H   -0.025589
   115  H   -0.012752
   116  H   -0.013485
   117  H   -0.011777
   118  H   -0.041274
   119  H   -0.032458
   120  H   -0.033871
   121  H   -0.018812
   122  H   -0.032343
   123  H   -0.052936
   124  H   -0.033946
   125  H   -0.021756
   126  H   -0.016904
   127  H   -0.017216
   128  H   -0.035842
   129  H   -0.051009
   130  H   -0.032371
   131  H   -0.033743
   132  H   -0.041376
   133  H   -0.015087
   134  H   -0.035680
   135  H   -0.027714
   136  H   -0.016590
   137  H   -0.021946
   138  H   -0.021647
   139  H   -0.025822
   140  H   -0.001822
 Sum of Mulliken charges =  -0.00000

 Dipole moment (field-independent basis, Debye):
    X=             -4.5894    Y=              2.3451    Z=              1.0395  Tot=              5.2576
 Quadrupole moment (field-independent basis, Debye-Ang):
   XX=           -373.0682   YY=           -421.0319   ZZ=           -405.0351
   XY=              3.2025   XZ=              7.8145   YZ=             -1.3650

 Normal termination of Gaussian 16 at Wed Apr 27 04:32:56 2022.
