 Gaussian 16, Revision A.03,
 Gaussian 16:  ES64L-G16RevA.03 25-Dec-2016

 -----------------------------------
 #p cam-b3lyp/Def2SVP td=(nstates=5)
 -----------------------------------

 -------------------------------------------------------
 step_1051_chromophore_4 TDDFT with cam-b3lyp functional
 -------------------------------------------------------
 Symbolic Z-matrix:
 Charge =  0 Multiplicity = 1

                         Standard orientation:
 ---------------------------------------------------------------------
 Center     Atomic      Atomic             Coordinates (Angstroms)
 Number     Number       Type             X           Y           Z
 ---------------------------------------------------------------------
      1         12           0        5.789773    0.637518    0.410953
      2          6           0        3.706383   -2.164712    0.241284
      3          6           0        3.241911    2.599962   -0.547058
      4          6           0        8.043970    3.143630   -0.074675
      5          6           0        8.443559   -1.629185    0.622361
      6          7           0        3.690147    0.260032   -0.212938
      7          6           0        3.066687   -0.967188   -0.039989
      8          6           0        1.495924   -0.741351   -0.184890
      9          6           0        1.419428    0.701959   -0.741699
     10          6           0        2.831897    1.303226   -0.400308
     11          6           0        1.196835    0.811053   -2.271881
     12          6           0        0.582055   -1.005789    1.090349
     13          6           0       -0.663478   -1.996285    0.895021
     14          6           0       -1.618017   -1.793499   -0.239218
     15          8           0       -1.266944   -1.189650   -1.237952
     16          8           0       -2.864198   -2.373159    0.028347
     17          7           0        5.607169    2.620796   -0.053284
     18          6           0        4.457566    3.250410   -0.403544
     19          6           0        4.697053    4.636281   -0.631092
     20          6           0        6.080712    4.826812   -0.421715
     21          6           0        6.663845    3.475741   -0.170023
     22          6           0        3.643121    5.662403   -0.959948
     23          6           0        6.936603    6.116853   -0.569073
     24          8           0        8.118164    6.100216   -0.241309
     25          6           0        6.221906    7.309085   -0.968974
     26          7           0        7.899553    0.711390    0.291347
     27          6           0        8.599012    1.875340    0.118168
     28          6           0       10.111593    1.603737    0.092596
     29          6           0       10.144341    0.136197    0.536662
     30          6           0        8.747888   -0.302859    0.514395
     31          6           0       10.826401    1.806435   -1.257409
     32          6           0       10.912141   -0.052963    1.984211
     33          6           0       11.904371   -1.198871    2.145692
     34          7           0        6.073886   -1.394513    0.623451
     35          6           0        7.194414   -2.195895    0.664795
     36          6           0        6.844783   -3.591824    0.754865
     37          6           0        5.467933   -3.665098    0.570420
     38          6           0        5.112238   -2.295635    0.464549
     39          6           0        7.830273   -4.731677    0.950035
     40          6           0        4.271914   -4.481649    0.521152
     41          8           0        4.196762   -5.728069    0.527326
     42          6           0        3.048193   -3.513510    0.391467
     43          6           0        2.303545   -3.839793   -0.796623
     44          8           0        2.654996   -3.466847   -1.887034
     45          8           0        1.230921   -4.686835   -0.553471
     46          6           0        0.322624   -4.951458   -1.656079
     47          6           0       -3.837926   -2.225884   -1.024090
     48          6           0       -5.173664   -1.903829   -0.411068
     49          6           0       -6.155962   -2.660334    0.069037
     50          6           0       -6.083238   -4.175886    0.151115
     51          6           0       -7.543583   -2.062647    0.140646
     52          6           0       -7.945598   -1.581340   -1.271241
     53          6           0       -8.049968   -0.026730   -1.427965
     54          6           0       -9.525361    0.472773   -1.215214
     55          6           0      -10.077464    0.962470   -2.615296
     56          6           0       -9.549916    1.596538   -0.085228
     57          6           0      -10.033041    1.015790    1.272921
     58          6           0      -10.301707    2.185320    2.360392
     59          6           0      -11.720714    2.188319    2.808983
     60          6           0      -11.872002    3.064671    4.118432
     61          6           0      -12.616123    2.717265    1.647517
     62          6           0      -13.929096    1.953337    1.411307
     63          6           0      -13.690648    0.806486    0.348445
     64          6           0      -14.742135    0.804013   -0.734698
     65          6           0      -15.732017   -0.366063   -0.571470
     66          6           0      -14.119568    0.639549   -2.058274
     67          1           0        2.340600    3.081343   -0.933834
     68          1           0        8.826940    3.884144   -0.250034
     69          1           0        9.291134   -2.300825    0.471975
     70          1           0        1.117956   -1.410796   -0.958153
     71          1           0        0.697312    1.322654   -0.212046
     72          1           0        1.034675   -0.152926   -2.756034
     73          1           0        2.081147    1.235957   -2.745268
     74          1           0        0.284712    1.388048   -2.419845
     75          1           0        0.143074   -0.060977    1.411261
     76          1           0        1.246144   -1.345877    1.885654
     77          1           0       -1.201146   -2.100025    1.837431
     78          1           0       -0.171489   -2.908122    0.557771
     79          1           0        3.817695    5.832176   -2.023137
     80          1           0        3.730684    6.618216   -0.443567
     81          1           0        2.579583    5.492642   -0.790838
     82          1           0        5.551637    7.681208   -0.193766
     83          1           0        5.666380    7.042558   -1.867714
     84          1           0        6.884788    8.142592   -1.201575
     85          1           0       10.650206    2.205209    0.824605
     86          1           0       10.727686   -0.543774   -0.084338
     87          1           0       10.225975    1.633764   -2.150594
     88          1           0       11.660080    1.104999   -1.276630
     89          1           0       11.171612    2.838704   -1.317706
     90          1           0       10.154178   -0.118267    2.765160
     91          1           0       11.527973    0.806934    2.246055
     92          1           0       11.770624   -1.846900    1.279498
     93          1           0       11.758237   -1.793342    3.047878
     94          1           0       12.950688   -0.926245    2.281586
     95          1           0        8.545038   -4.432048    1.716468
     96          1           0        8.404869   -5.046093    0.077964
     97          1           0        7.253155   -5.587470    1.300477
     98          1           0        2.341717   -3.542715    1.220249
     99          1           0       -0.145016   -3.985158   -1.838816
    100          1           0       -0.497460   -5.668050   -1.629730
    101          1           0        0.891506   -5.318511   -2.510186
    102          1           0       -3.972841   -3.173758   -1.545018
    103          1           0       -3.573410   -1.432373   -1.722802
    104          1           0       -5.384701   -0.847241   -0.576240
    105          1           0       -6.592254   -4.603394   -0.713159
    106          1           0       -6.507375   -4.521288    1.094097
    107          1           0       -5.042195   -4.464172    0.012361
    108          1           0       -7.607654   -1.191841    0.793474
    109          1           0       -8.290646   -2.676914    0.643850
    110          1           0       -8.793680   -2.166671   -1.626696
    111          1           0       -7.221726   -1.903256   -2.019340
    112          1           0       -7.525726    0.218913   -2.351189
    113          1           0       -7.384666    0.392407   -0.671889
    114          1           0      -10.177369   -0.315059   -0.835806
    115          1           0      -10.001473    2.050082   -2.632122
    116          1           0      -11.134158    0.702973   -2.669483
    117          1           0       -9.535946    0.518856   -3.450491
    118          1           0      -10.174187    2.419638   -0.431540
    119          1           0       -8.611509    2.130370    0.060884
    120          1           0       -9.168025    0.422770    1.568310
    121          1           0      -10.872541    0.330000    1.162685
    122          1           0       -9.900294    3.160293    2.083898
    123          1           0       -9.755783    1.948097    3.274456
    124          1           0      -11.997192    1.192035    3.152057
    125          1           0      -12.714754    3.751154    4.039352
    126          1           0      -11.052040    3.715056    4.425936
    127          1           0      -12.035317    2.352711    4.928021
    128          1           0      -12.163572    2.758717    0.657628
    129          1           0      -12.812604    3.773486    1.833037
    130          1           0      -14.660667    2.701721    1.106529
    131          1           0      -14.322348    1.498896    2.320609
    132          1           0      -13.755270   -0.138993    0.884885
    133          1           0      -12.657346    0.845476    0.005091
    134          1           0      -15.345576    1.710800   -0.766550
    135          1           0      -15.664438   -0.881775    0.386862
    136          1           0      -15.585543   -1.085666   -1.376845
    137          1           0      -16.742280    0.040525   -0.544944
    138          1           0      -13.466161    1.498145   -2.210633
    139          1           0      -14.848293    0.778853   -2.856695
    140          1           0      -13.530883   -0.274182   -2.139974
 ---------------------------------------------------------------------

 SCF Done:  E(RCAM-B3LYP) =  -3007.17288803     A.U. after   17 cycles

 Excitation energies and oscillator strengths:

 Excited State   1:      Singlet-A      1.7170 eV  722.10 nm  f=0.3938  <S**2>=0.000
     245 -> 248        0.17474
     246 -> 247        0.68621
     245 <- 248        0.10554
 This state for optimization and/or second-order correction.
 Total Energy, E(TD-HF/TD-DFT) =  -3007.10978987
 Copying the excited state density for this state as the 1-particle RhoCI density.

 Excited State   2:      Singlet-A      2.2788 eV  544.08 nm  f=0.1080  <S**2>=0.000
     245 -> 247        0.63464
     246 -> 248       -0.29809

 Excited State   3:      Singlet-A      3.5249 eV  351.74 nm  f=0.4571  <S**2>=0.000
     239 -> 247        0.15632
     239 -> 249       -0.12609
     242 -> 247        0.16828
     244 -> 247        0.24071
     245 -> 247        0.23153
     246 -> 248        0.53905

 Excited State   4:      Singlet-A      3.5615 eV  348.13 nm  f=0.0004  <S**2>=0.000
     239 -> 247       -0.34115
     239 -> 249        0.27278
     239 -> 250       -0.10034
     242 -> 247       -0.13183
     244 -> 247        0.49028

 Excited State   5:      Singlet-A      3.6198 eV  342.51 nm  f=0.2229  <S**2>=0.000
     239 -> 247        0.33309
     239 -> 249       -0.24700
     244 -> 247        0.41881
     245 -> 247       -0.15964
     246 -> 248       -0.28659

 The electronic state is 1-A.
 Alpha  occ. eigenvalues --  -46.87681 -19.25724 -19.24964 -19.20999 -19.19595
 Alpha  occ. eigenvalues --  -19.19048 -19.18684 -14.41220 -14.41088 -14.39160
 Alpha  occ. eigenvalues --  -14.39116 -10.40309 -10.38937 -10.35637 -10.34826
 Alpha  occ. eigenvalues --  -10.31955 -10.31669 -10.30464 -10.30024 -10.30004
 Alpha  occ. eigenvalues --  -10.29728 -10.29291 -10.29250 -10.28727 -10.28668
 Alpha  occ. eigenvalues --  -10.28182 -10.27894 -10.27850 -10.27782 -10.27716
 Alpha  occ. eigenvalues --  -10.27368 -10.27229 -10.27079 -10.26966 -10.26940
 Alpha  occ. eigenvalues --  -10.26842 -10.26777 -10.26526 -10.26505 -10.26229
 Alpha  occ. eigenvalues --  -10.26194 -10.25929 -10.25856 -10.25821 -10.25765
 Alpha  occ. eigenvalues --  -10.25757 -10.25656 -10.25595 -10.25433 -10.25385
 Alpha  occ. eigenvalues --  -10.25307 -10.25260 -10.25162 -10.25142 -10.25125
 Alpha  occ. eigenvalues --  -10.25005 -10.24981 -10.24887 -10.24784 -10.24769
 Alpha  occ. eigenvalues --  -10.24525 -10.24444 -10.24429 -10.24385 -10.24077
 Alpha  occ. eigenvalues --  -10.24043  -3.16358  -1.91247  -1.90791  -1.90692
 Alpha  occ. eigenvalues --   -1.16634  -1.16359  -1.09650  -1.09388  -1.08605
 Alpha  occ. eigenvalues --   -1.08276  -1.04770  -1.03657  -1.03023  -1.01399
 Alpha  occ. eigenvalues --   -0.92925  -0.91056  -0.90227  -0.88953  -0.88687
 Alpha  occ. eigenvalues --   -0.88149  -0.87945  -0.87539  -0.87258  -0.87227
 Alpha  occ. eigenvalues --   -0.86376  -0.85210  -0.84092  -0.83668  -0.83209
 Alpha  occ. eigenvalues --   -0.82625  -0.82494  -0.81522  -0.80993  -0.80310
 Alpha  occ. eigenvalues --   -0.79828  -0.77950  -0.77567  -0.77365  -0.76367
 Alpha  occ. eigenvalues --   -0.75696  -0.75493  -0.75099  -0.74596  -0.74305
 Alpha  occ. eigenvalues --   -0.73252  -0.72708  -0.71195  -0.70313  -0.68903
 Alpha  occ. eigenvalues --   -0.68543  -0.68126  -0.66997  -0.66591  -0.65945
 Alpha  occ. eigenvalues --   -0.65497  -0.64833  -0.64435  -0.64390  -0.64265
 Alpha  occ. eigenvalues --   -0.64040  -0.63542  -0.62907  -0.61880  -0.60319
 Alpha  occ. eigenvalues --   -0.59702  -0.59567  -0.59085  -0.58527  -0.58149
 Alpha  occ. eigenvalues --   -0.57782  -0.57096  -0.56687  -0.56155  -0.55947
 Alpha  occ. eigenvalues --   -0.55242  -0.54947  -0.54698  -0.54656  -0.53679
 Alpha  occ. eigenvalues --   -0.53636  -0.53197  -0.53150  -0.53023  -0.52993
 Alpha  occ. eigenvalues --   -0.52638  -0.52400  -0.51887  -0.51715  -0.51409
 Alpha  occ. eigenvalues --   -0.51282  -0.50964  -0.50867  -0.50743  -0.50462
 Alpha  occ. eigenvalues --   -0.50417  -0.50016  -0.49834  -0.49673  -0.49500
 Alpha  occ. eigenvalues --   -0.49451  -0.49273  -0.48967  -0.48744  -0.48704
 Alpha  occ. eigenvalues --   -0.48628  -0.48265  -0.48008  -0.47628  -0.47518
 Alpha  occ. eigenvalues --   -0.47066  -0.47000  -0.46863  -0.46667  -0.46462
 Alpha  occ. eigenvalues --   -0.46318  -0.46283  -0.45972  -0.45936  -0.45815
 Alpha  occ. eigenvalues --   -0.45688  -0.45439  -0.45362  -0.45210  -0.44573
 Alpha  occ. eigenvalues --   -0.44402  -0.44245  -0.44153  -0.43877  -0.43509
 Alpha  occ. eigenvalues --   -0.43276  -0.43259  -0.43098  -0.43020  -0.42736
 Alpha  occ. eigenvalues --   -0.42523  -0.42469  -0.42279  -0.42201  -0.41740
 Alpha  occ. eigenvalues --   -0.41446  -0.41312  -0.41226  -0.41079  -0.40957
 Alpha  occ. eigenvalues --   -0.40641  -0.40331  -0.40219  -0.39861  -0.39779
 Alpha  occ. eigenvalues --   -0.39529  -0.39346  -0.39161  -0.38945  -0.38678
 Alpha  occ. eigenvalues --   -0.38608  -0.38523  -0.38415  -0.38379  -0.37688
 Alpha  occ. eigenvalues --   -0.37486  -0.36677  -0.36652  -0.36330  -0.36000
 Alpha  occ. eigenvalues --   -0.35793  -0.35504  -0.35006  -0.34746  -0.34305
 Alpha  occ. eigenvalues --   -0.34240  -0.33767  -0.32751  -0.31207  -0.31022
 Alpha  occ. eigenvalues --   -0.30810  -0.30275  -0.30200  -0.29680  -0.23646
 Alpha  occ. eigenvalues --   -0.20480
 Alpha virt. eigenvalues --   -0.08024  -0.01027   0.00556   0.02500   0.02755
 Alpha virt. eigenvalues --    0.03771   0.04828   0.05287   0.06147   0.07806
 Alpha virt. eigenvalues --    0.08151   0.08736   0.08903   0.09163   0.09475

 Mulliken charges:
               1
     1  Mg   0.842778
     2  C   -0.047569
     3  C   -0.072346
     4  C   -0.047588
     5  C   -0.158461
     6  N   -0.303356
     7  C   -0.010334
     8  C   -0.044503
     9  C   -0.047633
    10  C   -0.059398
    11  C    0.086135
    12  C    0.081377
    13  C    0.031576
    14  C    0.162875
    15  O   -0.234410
    16  O   -0.333556
    17  N   -0.376544
    18  C    0.221603
    19  C   -0.129532
    20  C   -0.073717
    21  C    0.133395
    22  C    0.101548
    23  C    0.023403
    24  O   -0.203668
    25  C    0.063926
    26  N   -0.291222
    27  C    0.023583
    28  C   -0.002259
    29  C   -0.064675
    30  C    0.102777
    31  C    0.066438
    32  C    0.024171
    33  C   -0.006456
    34  N   -0.320464
    35  C    0.156533
    36  C   -0.198997
    37  C    0.042549
    38  C    0.109741
    39  C    0.118401
    40  C    0.053242
    41  O   -0.189536
    42  C    0.067584
    43  C    0.157811
    44  O   -0.193580
    45  O   -0.344147
    46  C    0.180640
    47  C    0.303011
    48  C   -0.145441
    49  C   -0.152853
    50  C    0.084801
    51  C    0.087975
    52  C   -0.021247
    53  C    0.049870
    54  C   -0.106044
    55  C    0.052305
    56  C    0.017858
    57  C    0.008742
    58  C    0.071575
    59  C   -0.111134
    60  C    0.036548
    61  C    0.039026
    62  C    0.017024
    63  C    0.046000
    64  C   -0.135024
    65  C    0.049154
    66  C    0.035825
    67  H   -0.037004
    68  H   -0.005659
    69  H   -0.025819
    70  H    0.034690
    71  H   -0.001538
    72  H    0.028019
    73  H    0.021155
    74  H    0.015593
    75  H    0.009004
    76  H    0.010216
    77  H    0.039777
    78  H    0.034208
    79  H    0.031381
    80  H    0.015066
    81  H    0.020363
    82  H    0.052742
    83  H    0.025747
    84  H    0.020756
    85  H    0.011829
    86  H    0.002257
    87  H    0.020024
    88  H    0.012829
    89  H    0.021651
    90  H    0.009652
    91  H    0.006705
    92  H    0.007829
    93  H    0.010354
    94  H    0.014126
    95  H    0.013738
    96  H    0.032869
    97  H    0.031444
    98  H    0.035813
    99  H    0.025315
   100  H    0.039420
   101  H    0.040419
   102  H    0.008444
   103  H    0.026760
   104  H   -0.010326
   105  H    0.021316
   106  H    0.029181
   107  H    0.014840
   108  H    0.007935
   109  H   -0.012546
   110  H   -0.006937
   111  H   -0.004168
   112  H   -0.003489
   113  H   -0.002185
   114  H    0.003557
   115  H    0.009922
   116  H    0.005571
   117  H    0.012232
   118  H   -0.015528
   119  H   -0.003961
   120  H   -0.007456
   121  H    0.005542
   122  H   -0.003631
   123  H   -0.020406
   124  H   -0.002329
   125  H    0.002601
   126  H    0.007684
   127  H    0.006620
   128  H   -0.009011
   129  H   -0.019600
   130  H   -0.003465
   131  H   -0.006251
   132  H   -0.012115
   133  H    0.003442
   134  H   -0.003126
   135  H   -0.003058
   136  H    0.008472
   137  H    0.002671
   138  H    0.000935
   139  H    0.001529
   140  H    0.019258
 Sum of Mulliken charges =  -0.00000

 Dipole moment (field-independent basis, Debye):
    X=             -4.7427    Y=              2.7504    Z=              0.9773  Tot=              5.5689
 Quadrupole moment (field-independent basis, Debye-Ang):
   XX=           -373.2130   YY=           -416.4332   ZZ=           -404.8253
   XY=              4.6648   XZ=              7.9603   YZ=             -2.1202

 Normal termination of Gaussian 16 at Wed Apr 27 03:29:49 2022.
