 Gaussian 16, Revision A.03,
 Gaussian 16:  ES64L-G16RevA.03 25-Dec-2016

 ---------------------------------
 #p PBE1PBE/Def2SVP td=(nstates=5)
 ---------------------------------

 -----------------------------------------------------
 step_1051_chromophore_4 TDDFT with PBE1PBE functional
 -----------------------------------------------------
 Symbolic Z-matrix:
 Charge =  0 Multiplicity = 1

                         Standard orientation:
 ---------------------------------------------------------------------
 Center     Atomic      Atomic             Coordinates (Angstroms)
 Number     Number       Type             X           Y           Z
 ---------------------------------------------------------------------
      1         12           0        5.789773    0.637518    0.410953
      2          6           0        3.706383   -2.164712    0.241284
      3          6           0        3.241911    2.599962   -0.547058
      4          6           0        8.043970    3.143630   -0.074675
      5          6           0        8.443559   -1.629185    0.622361
      6          7           0        3.690147    0.260032   -0.212938
      7          6           0        3.066687   -0.967188   -0.039989
      8          6           0        1.495924   -0.741351   -0.184890
      9          6           0        1.419428    0.701959   -0.741699
     10          6           0        2.831897    1.303226   -0.400308
     11          6           0        1.196835    0.811053   -2.271881
     12          6           0        0.582055   -1.005789    1.090349
     13          6           0       -0.663478   -1.996285    0.895021
     14          6           0       -1.618017   -1.793499   -0.239218
     15          8           0       -1.266944   -1.189650   -1.237952
     16          8           0       -2.864198   -2.373159    0.028347
     17          7           0        5.607169    2.620796   -0.053284
     18          6           0        4.457566    3.250410   -0.403544
     19          6           0        4.697053    4.636281   -0.631092
     20          6           0        6.080712    4.826812   -0.421715
     21          6           0        6.663845    3.475741   -0.170023
     22          6           0        3.643121    5.662403   -0.959948
     23          6           0        6.936603    6.116853   -0.569073
     24          8           0        8.118164    6.100216   -0.241309
     25          6           0        6.221906    7.309085   -0.968974
     26          7           0        7.899553    0.711390    0.291347
     27          6           0        8.599012    1.875340    0.118168
     28          6           0       10.111593    1.603737    0.092596
     29          6           0       10.144341    0.136197    0.536662
     30          6           0        8.747888   -0.302859    0.514395
     31          6           0       10.826401    1.806435   -1.257409
     32          6           0       10.912141   -0.052963    1.984211
     33          6           0       11.904371   -1.198871    2.145692
     34          7           0        6.073886   -1.394513    0.623451
     35          6           0        7.194414   -2.195895    0.664795
     36          6           0        6.844783   -3.591824    0.754865
     37          6           0        5.467933   -3.665098    0.570420
     38          6           0        5.112238   -2.295635    0.464549
     39          6           0        7.830273   -4.731677    0.950035
     40          6           0        4.271914   -4.481649    0.521152
     41          8           0        4.196762   -5.728069    0.527326
     42          6           0        3.048193   -3.513510    0.391467
     43          6           0        2.303545   -3.839793   -0.796623
     44          8           0        2.654996   -3.466847   -1.887034
     45          8           0        1.230921   -4.686835   -0.553471
     46          6           0        0.322624   -4.951458   -1.656079
     47          6           0       -3.837926   -2.225884   -1.024090
     48          6           0       -5.173664   -1.903829   -0.411068
     49          6           0       -6.155962   -2.660334    0.069037
     50          6           0       -6.083238   -4.175886    0.151115
     51          6           0       -7.543583   -2.062647    0.140646
     52          6           0       -7.945598   -1.581340   -1.271241
     53          6           0       -8.049968   -0.026730   -1.427965
     54          6           0       -9.525361    0.472773   -1.215214
     55          6           0      -10.077464    0.962470   -2.615296
     56          6           0       -9.549916    1.596538   -0.085228
     57          6           0      -10.033041    1.015790    1.272921
     58          6           0      -10.301707    2.185320    2.360392
     59          6           0      -11.720714    2.188319    2.808983
     60          6           0      -11.872002    3.064671    4.118432
     61          6           0      -12.616123    2.717265    1.647517
     62          6           0      -13.929096    1.953337    1.411307
     63          6           0      -13.690648    0.806486    0.348445
     64          6           0      -14.742135    0.804013   -0.734698
     65          6           0      -15.732017   -0.366063   -0.571470
     66          6           0      -14.119568    0.639549   -2.058274
     67          1           0        2.340600    3.081343   -0.933834
     68          1           0        8.826940    3.884144   -0.250034
     69          1           0        9.291134   -2.300825    0.471975
     70          1           0        1.117956   -1.410796   -0.958153
     71          1           0        0.697312    1.322654   -0.212046
     72          1           0        1.034675   -0.152926   -2.756034
     73          1           0        2.081147    1.235957   -2.745268
     74          1           0        0.284712    1.388048   -2.419845
     75          1           0        0.143074   -0.060977    1.411261
     76          1           0        1.246144   -1.345877    1.885654
     77          1           0       -1.201146   -2.100025    1.837431
     78          1           0       -0.171489   -2.908122    0.557771
     79          1           0        3.817695    5.832176   -2.023137
     80          1           0        3.730684    6.618216   -0.443567
     81          1           0        2.579583    5.492642   -0.790838
     82          1           0        5.551637    7.681208   -0.193766
     83          1           0        5.666380    7.042558   -1.867714
     84          1           0        6.884788    8.142592   -1.201575
     85          1           0       10.650206    2.205209    0.824605
     86          1           0       10.727686   -0.543774   -0.084338
     87          1           0       10.225975    1.633764   -2.150594
     88          1           0       11.660080    1.104999   -1.276630
     89          1           0       11.171612    2.838704   -1.317706
     90          1           0       10.154178   -0.118267    2.765160
     91          1           0       11.527973    0.806934    2.246055
     92          1           0       11.770624   -1.846900    1.279498
     93          1           0       11.758237   -1.793342    3.047878
     94          1           0       12.950688   -0.926245    2.281586
     95          1           0        8.545038   -4.432048    1.716468
     96          1           0        8.404869   -5.046093    0.077964
     97          1           0        7.253155   -5.587470    1.300477
     98          1           0        2.341717   -3.542715    1.220249
     99          1           0       -0.145016   -3.985158   -1.838816
    100          1           0       -0.497460   -5.668050   -1.629730
    101          1           0        0.891506   -5.318511   -2.510186
    102          1           0       -3.972841   -3.173758   -1.545018
    103          1           0       -3.573410   -1.432373   -1.722802
    104          1           0       -5.384701   -0.847241   -0.576240
    105          1           0       -6.592254   -4.603394   -0.713159
    106          1           0       -6.507375   -4.521288    1.094097
    107          1           0       -5.042195   -4.464172    0.012361
    108          1           0       -7.607654   -1.191841    0.793474
    109          1           0       -8.290646   -2.676914    0.643850
    110          1           0       -8.793680   -2.166671   -1.626696
    111          1           0       -7.221726   -1.903256   -2.019340
    112          1           0       -7.525726    0.218913   -2.351189
    113          1           0       -7.384666    0.392407   -0.671889
    114          1           0      -10.177369   -0.315059   -0.835806
    115          1           0      -10.001473    2.050082   -2.632122
    116          1           0      -11.134158    0.702973   -2.669483
    117          1           0       -9.535946    0.518856   -3.450491
    118          1           0      -10.174187    2.419638   -0.431540
    119          1           0       -8.611509    2.130370    0.060884
    120          1           0       -9.168025    0.422770    1.568310
    121          1           0      -10.872541    0.330000    1.162685
    122          1           0       -9.900294    3.160293    2.083898
    123          1           0       -9.755783    1.948097    3.274456
    124          1           0      -11.997192    1.192035    3.152057
    125          1           0      -12.714754    3.751154    4.039352
    126          1           0      -11.052040    3.715056    4.425936
    127          1           0      -12.035317    2.352711    4.928021
    128          1           0      -12.163572    2.758717    0.657628
    129          1           0      -12.812604    3.773486    1.833037
    130          1           0      -14.660667    2.701721    1.106529
    131          1           0      -14.322348    1.498896    2.320609
    132          1           0      -13.755270   -0.138993    0.884885
    133          1           0      -12.657346    0.845476    0.005091
    134          1           0      -15.345576    1.710800   -0.766550
    135          1           0      -15.664438   -0.881775    0.386862
    136          1           0      -15.585543   -1.085666   -1.376845
    137          1           0      -16.742280    0.040525   -0.544944
    138          1           0      -13.466161    1.498145   -2.210633
    139          1           0      -14.848293    0.778853   -2.856695
    140          1           0      -13.530883   -0.274182   -2.139974
 ---------------------------------------------------------------------

 SCF Done:  E(RPBE1PBE) =  -3005.35995149     A.U. after   15 cycles

 Excitation energies and oscillator strengths:

 Excited State   1:      Singlet-A      1.8716 eV  662.45 nm  f=0.3803  <S**2>=0.000
     245 -> 248        0.16153
     246 -> 247        0.69400
     246 <- 247       -0.10937
 This state for optimization and/or second-order correction.
 Total Energy, E(TD-HF/TD-DFT) =  -3005.29117183
 Copying the excited state density for this state as the 1-particle RhoCI density.

 Excited State   2:      Singlet-A      2.2810 eV  543.55 nm  f=0.1071  <S**2>=0.000
     245 -> 247        0.64765
     246 -> 248       -0.26278

 Excited State   3:      Singlet-A      3.1744 eV  390.57 nm  f=0.0070  <S**2>=0.000
     240 -> 247        0.38171
     240 -> 249       -0.16231
     241 -> 247        0.43228
     241 -> 249       -0.14030
     242 -> 247       -0.10066
     244 -> 247       -0.28963

 Excited State   4:      Singlet-A      3.2226 eV  384.73 nm  f=0.0021  <S**2>=0.000
     240 -> 247        0.18061
     241 -> 247        0.21118
     242 -> 247        0.14106
     244 -> 247        0.60332
     246 -> 248        0.12370

 Excited State   5:      Singlet-A      3.2553 eV  380.87 nm  f=0.0003  <S**2>=0.000
     242 -> 247        0.64319
     242 -> 250        0.11770
     244 -> 247       -0.18412

 The electronic state is 1-A.
 Alpha  occ. eigenvalues --  -46.91099 -19.26377 -19.25560 -19.21214 -19.19744
 Alpha  occ. eigenvalues --  -19.19268 -19.18863 -14.40740 -14.40632 -14.38823
 Alpha  occ. eigenvalues --  -14.38758 -10.37260 -10.35875 -10.32771 -10.31912
 Alpha  occ. eigenvalues --  -10.29308 -10.28842 -10.28255 -10.27757 -10.27698
 Alpha  occ. eigenvalues --  -10.27458 -10.27017 -10.26888 -10.26481 -10.26378
 Alpha  occ. eigenvalues --  -10.25755 -10.25486 -10.25414 -10.25405 -10.25387
 Alpha  occ. eigenvalues --  -10.25072 -10.25031 -10.24916 -10.24778 -10.24769
 Alpha  occ. eigenvalues --  -10.24665 -10.24264 -10.24258 -10.24243 -10.23935
 Alpha  occ. eigenvalues --  -10.23562 -10.23443 -10.23442 -10.23427 -10.23418
 Alpha  occ. eigenvalues --  -10.23242 -10.23183 -10.23026 -10.23006 -10.22932
 Alpha  occ. eigenvalues --  -10.22911 -10.22906 -10.22869 -10.22722 -10.22601
 Alpha  occ. eigenvalues --  -10.22565 -10.22544 -10.22516 -10.22309 -10.22198
 Alpha  occ. eigenvalues --  -10.22001 -10.21952 -10.21945 -10.21917 -10.21442
 Alpha  occ. eigenvalues --  -10.21433  -3.13350  -1.86179  -1.85702  -1.85607
 Alpha  occ. eigenvalues --   -1.11377  -1.11048  -1.04342  -1.04202  -1.03339
 Alpha  occ. eigenvalues --   -1.03013  -0.99473  -0.98329  -0.97682  -0.96010
 Alpha  occ. eigenvalues --   -0.87279  -0.85196  -0.84310  -0.83061  -0.83022
 Alpha  occ. eigenvalues --   -0.82324  -0.82273  -0.81689  -0.81588  -0.81481
 Alpha  occ. eigenvalues --   -0.80720  -0.79448  -0.78381  -0.77872  -0.77419
 Alpha  occ. eigenvalues --   -0.76826  -0.76659  -0.75779  -0.75265  -0.74644
 Alpha  occ. eigenvalues --   -0.73965  -0.72254  -0.71864  -0.71647  -0.70674
 Alpha  occ. eigenvalues --   -0.69872  -0.69594  -0.69454  -0.68739  -0.68461
 Alpha  occ. eigenvalues --   -0.67647  -0.67062  -0.65660  -0.64610  -0.63361
 Alpha  occ. eigenvalues --   -0.62777  -0.62517  -0.61195  -0.61008  -0.60106
 Alpha  occ. eigenvalues --   -0.59938  -0.59426  -0.58901  -0.58812  -0.58596
 Alpha  occ. eigenvalues --   -0.58442  -0.57698  -0.57085  -0.56489  -0.54833
 Alpha  occ. eigenvalues --   -0.54149  -0.54050  -0.53644  -0.52933  -0.52693
 Alpha  occ. eigenvalues --   -0.52317  -0.51532  -0.51061  -0.50698  -0.50515
 Alpha  occ. eigenvalues --   -0.49716  -0.49464  -0.49280  -0.48998  -0.48217
 Alpha  occ. eigenvalues --   -0.48156  -0.47673  -0.47621  -0.47476  -0.47437
 Alpha  occ. eigenvalues --   -0.47265  -0.46838  -0.46439  -0.46217  -0.46029
 Alpha  occ. eigenvalues --   -0.45826  -0.45669  -0.45381  -0.45267  -0.45040
 Alpha  occ. eigenvalues --   -0.44990  -0.44601  -0.44353  -0.44233  -0.44066
 Alpha  occ. eigenvalues --   -0.43998  -0.43817  -0.43522  -0.43340  -0.43326
 Alpha  occ. eigenvalues --   -0.43239  -0.42858  -0.42673  -0.42287  -0.42139
 Alpha  occ. eigenvalues --   -0.41694  -0.41621  -0.41509  -0.41337  -0.41080
 Alpha  occ. eigenvalues --   -0.40980  -0.40895  -0.40709  -0.40555  -0.40485
 Alpha  occ. eigenvalues --   -0.40353  -0.40186  -0.40024  -0.39914  -0.39355
 Alpha  occ. eigenvalues --   -0.39207  -0.38957  -0.38846  -0.38703  -0.38349
 Alpha  occ. eigenvalues --   -0.38117  -0.38083  -0.37859  -0.37723  -0.37591
 Alpha  occ. eigenvalues --   -0.37308  -0.37245  -0.37035  -0.36954  -0.36542
 Alpha  occ. eigenvalues --   -0.36287  -0.36202  -0.36013  -0.35878  -0.35825
 Alpha  occ. eigenvalues --   -0.35341  -0.35201  -0.34972  -0.34733  -0.34561
 Alpha  occ. eigenvalues --   -0.34460  -0.34109  -0.33910  -0.33713  -0.33607
 Alpha  occ. eigenvalues --   -0.33461  -0.33409  -0.33344  -0.33204  -0.32695
 Alpha  occ. eigenvalues --   -0.32262  -0.31575  -0.31535  -0.31412  -0.30994
 Alpha  occ. eigenvalues --   -0.30718  -0.30425  -0.29908  -0.29692  -0.29267
 Alpha  occ. eigenvalues --   -0.29014  -0.28842  -0.28391  -0.26590  -0.26088
 Alpha  occ. eigenvalues --   -0.25821  -0.25651  -0.25481  -0.25246  -0.20574
 Alpha  occ. eigenvalues --   -0.18149
 Alpha virt. eigenvalues --   -0.10522  -0.04598  -0.03654  -0.01876  -0.00708
 Alpha virt. eigenvalues --    0.00056   0.00319   0.00724   0.01883   0.03625
 Alpha virt. eigenvalues --    0.04563   0.04852   0.05567   0.05833   0.06197

 Mulliken charges:
               1
     1  Mg   0.990637
     2  C   -0.058613
     3  C   -0.072645
     4  C   -0.037537
     5  C   -0.134988
     6  N   -0.400856
     7  C    0.075329
     8  C   -0.113132
     9  C   -0.127155
    10  C   -0.009010
    11  C    0.031376
    12  C    0.037031
    13  C   -0.061930
    14  C    0.232982
    15  O   -0.267035
    16  O   -0.363535
    17  N   -0.498220
    18  C    0.238002
    19  C   -0.161318
    20  C   -0.115165
    21  C    0.163873
    22  C    0.042334
    23  C    0.073711
    24  O   -0.242057
    25  C   -0.009956
    26  N   -0.402042
    27  C    0.060159
    28  C   -0.082923
    29  C   -0.145301
    30  C    0.141654
    31  C    0.009687
    32  C   -0.028481
    33  C   -0.078386
    34  N   -0.447526
    35  C    0.161207
    36  C   -0.207035
    37  C    0.004513
    38  C    0.147493
    39  C    0.065131
    40  C    0.144492
    41  O   -0.234337
    42  C   -0.050950
    43  C    0.253904
    44  O   -0.227604
    45  O   -0.378735
    46  C    0.121057
    47  C    0.257639
    48  C   -0.161852
    49  C   -0.193881
    50  C    0.020488
    51  C    0.025359
    52  C   -0.085254
    53  C   -0.003675
    54  C   -0.189339
    55  C   -0.011659
    56  C   -0.030987
    57  C   -0.063054
    58  C    0.017208
    59  C   -0.197681
    60  C   -0.020197
    61  C   -0.021328
    62  C   -0.039416
    63  C   -0.013943
    64  C   -0.229370
    65  C   -0.006945
    66  C   -0.031323
    67  H   -0.002712
    68  H    0.026328
    69  H    0.005812
    70  H    0.075927
    71  H    0.034716
    72  H    0.054852
    73  H    0.049393
    74  H    0.042739
    75  H    0.041843
    76  H    0.042751
    77  H    0.070157
    78  H    0.076377
    79  H    0.060411
    80  H    0.042447
    81  H    0.046217
    82  H    0.078936
    83  H    0.053556
    84  H    0.048712
    85  H    0.048213
    86  H    0.039192
    87  H    0.047782
    88  H    0.041230
    89  H    0.048946
    90  H    0.042321
    91  H    0.038866
    92  H    0.034581
    93  H    0.038364
    94  H    0.041559
    95  H    0.040955
    96  H    0.059921
    97  H    0.059582
    98  H    0.071851
    99  H    0.050599
   100  H    0.061023
   101  H    0.062045
   102  H    0.035334
   103  H    0.052688
   104  H    0.023493
   105  H    0.049489
   106  H    0.056860
   107  H    0.043545
   108  H    0.044755
   109  H    0.018738
   110  H    0.025614
   111  H    0.029988
   112  H    0.027668
   113  H    0.028862
   114  H    0.039657
   115  H    0.037127
   116  H    0.037998
   117  H    0.039680
   118  H    0.016035
   119  H    0.027548
   120  H    0.031634
   121  H    0.036694
   122  H    0.027532
   123  H    0.014499
   124  H    0.034369
   125  H    0.029651
   126  H    0.034029
   127  H    0.034260
   128  H    0.027442
   129  H    0.013409
   130  H    0.028097
   131  H    0.026435
   132  H    0.020366
   133  H    0.040456
   134  H    0.033494
   135  H    0.023945
   136  H    0.035374
   137  H    0.030334
   138  H    0.030992
   139  H    0.031170
   140  H    0.046358
 Sum of Mulliken charges =  -0.00000

 Dipole moment (field-independent basis, Debye):
    X=             -4.6486    Y=              2.7372    Z=              0.9719  Tot=              5.4815
 Quadrupole moment (field-independent basis, Debye-Ang):
   XX=           -365.8448   YY=           -414.0403   ZZ=           -402.2389
   XY=              3.8037   XZ=              8.3601   YZ=             -2.2611

 Normal termination of Gaussian 16 at Wed Apr 27 03:49:35 2022.
