 Gaussian 16, Revision A.03,
 Gaussian 16:  ES64L-G16RevA.03 25-Dec-2016

 --------------------------------
 #p wB97XD/Def2SVP td=(nstates=5)
 --------------------------------

 ----------------------------------------------------
 step_1051_chromophore_4 TDDFT with wB97XD functional
 ----------------------------------------------------
 Symbolic Z-matrix:
 Charge =  0 Multiplicity = 1

                         Standard orientation:
 ---------------------------------------------------------------------
 Center     Atomic      Atomic             Coordinates (Angstroms)
 Number     Number       Type             X           Y           Z
 ---------------------------------------------------------------------
      1         12           0        5.789773    0.637518    0.410953
      2          6           0        3.706383   -2.164712    0.241284
      3          6           0        3.241911    2.599962   -0.547058
      4          6           0        8.043970    3.143630   -0.074675
      5          6           0        8.443559   -1.629185    0.622361
      6          7           0        3.690147    0.260032   -0.212938
      7          6           0        3.066687   -0.967188   -0.039989
      8          6           0        1.495924   -0.741351   -0.184890
      9          6           0        1.419428    0.701959   -0.741699
     10          6           0        2.831897    1.303226   -0.400308
     11          6           0        1.196835    0.811053   -2.271881
     12          6           0        0.582055   -1.005789    1.090349
     13          6           0       -0.663478   -1.996285    0.895021
     14          6           0       -1.618017   -1.793499   -0.239218
     15          8           0       -1.266944   -1.189650   -1.237952
     16          8           0       -2.864198   -2.373159    0.028347
     17          7           0        5.607169    2.620796   -0.053284
     18          6           0        4.457566    3.250410   -0.403544
     19          6           0        4.697053    4.636281   -0.631092
     20          6           0        6.080712    4.826812   -0.421715
     21          6           0        6.663845    3.475741   -0.170023
     22          6           0        3.643121    5.662403   -0.959948
     23          6           0        6.936603    6.116853   -0.569073
     24          8           0        8.118164    6.100216   -0.241309
     25          6           0        6.221906    7.309085   -0.968974
     26          7           0        7.899553    0.711390    0.291347
     27          6           0        8.599012    1.875340    0.118168
     28          6           0       10.111593    1.603737    0.092596
     29          6           0       10.144341    0.136197    0.536662
     30          6           0        8.747888   -0.302859    0.514395
     31          6           0       10.826401    1.806435   -1.257409
     32          6           0       10.912141   -0.052963    1.984211
     33          6           0       11.904371   -1.198871    2.145692
     34          7           0        6.073886   -1.394513    0.623451
     35          6           0        7.194414   -2.195895    0.664795
     36          6           0        6.844783   -3.591824    0.754865
     37          6           0        5.467933   -3.665098    0.570420
     38          6           0        5.112238   -2.295635    0.464549
     39          6           0        7.830273   -4.731677    0.950035
     40          6           0        4.271914   -4.481649    0.521152
     41          8           0        4.196762   -5.728069    0.527326
     42          6           0        3.048193   -3.513510    0.391467
     43          6           0        2.303545   -3.839793   -0.796623
     44          8           0        2.654996   -3.466847   -1.887034
     45          8           0        1.230921   -4.686835   -0.553471
     46          6           0        0.322624   -4.951458   -1.656079
     47          6           0       -3.837926   -2.225884   -1.024090
     48          6           0       -5.173664   -1.903829   -0.411068
     49          6           0       -6.155962   -2.660334    0.069037
     50          6           0       -6.083238   -4.175886    0.151115
     51          6           0       -7.543583   -2.062647    0.140646
     52          6           0       -7.945598   -1.581340   -1.271241
     53          6           0       -8.049968   -0.026730   -1.427965
     54          6           0       -9.525361    0.472773   -1.215214
     55          6           0      -10.077464    0.962470   -2.615296
     56          6           0       -9.549916    1.596538   -0.085228
     57          6           0      -10.033041    1.015790    1.272921
     58          6           0      -10.301707    2.185320    2.360392
     59          6           0      -11.720714    2.188319    2.808983
     60          6           0      -11.872002    3.064671    4.118432
     61          6           0      -12.616123    2.717265    1.647517
     62          6           0      -13.929096    1.953337    1.411307
     63          6           0      -13.690648    0.806486    0.348445
     64          6           0      -14.742135    0.804013   -0.734698
     65          6           0      -15.732017   -0.366063   -0.571470
     66          6           0      -14.119568    0.639549   -2.058274
     67          1           0        2.340600    3.081343   -0.933834
     68          1           0        8.826940    3.884144   -0.250034
     69          1           0        9.291134   -2.300825    0.471975
     70          1           0        1.117956   -1.410796   -0.958153
     71          1           0        0.697312    1.322654   -0.212046
     72          1           0        1.034675   -0.152926   -2.756034
     73          1           0        2.081147    1.235957   -2.745268
     74          1           0        0.284712    1.388048   -2.419845
     75          1           0        0.143074   -0.060977    1.411261
     76          1           0        1.246144   -1.345877    1.885654
     77          1           0       -1.201146   -2.100025    1.837431
     78          1           0       -0.171489   -2.908122    0.557771
     79          1           0        3.817695    5.832176   -2.023137
     80          1           0        3.730684    6.618216   -0.443567
     81          1           0        2.579583    5.492642   -0.790838
     82          1           0        5.551637    7.681208   -0.193766
     83          1           0        5.666380    7.042558   -1.867714
     84          1           0        6.884788    8.142592   -1.201575
     85          1           0       10.650206    2.205209    0.824605
     86          1           0       10.727686   -0.543774   -0.084338
     87          1           0       10.225975    1.633764   -2.150594
     88          1           0       11.660080    1.104999   -1.276630
     89          1           0       11.171612    2.838704   -1.317706
     90          1           0       10.154178   -0.118267    2.765160
     91          1           0       11.527973    0.806934    2.246055
     92          1           0       11.770624   -1.846900    1.279498
     93          1           0       11.758237   -1.793342    3.047878
     94          1           0       12.950688   -0.926245    2.281586
     95          1           0        8.545038   -4.432048    1.716468
     96          1           0        8.404869   -5.046093    0.077964
     97          1           0        7.253155   -5.587470    1.300477
     98          1           0        2.341717   -3.542715    1.220249
     99          1           0       -0.145016   -3.985158   -1.838816
    100          1           0       -0.497460   -5.668050   -1.629730
    101          1           0        0.891506   -5.318511   -2.510186
    102          1           0       -3.972841   -3.173758   -1.545018
    103          1           0       -3.573410   -1.432373   -1.722802
    104          1           0       -5.384701   -0.847241   -0.576240
    105          1           0       -6.592254   -4.603394   -0.713159
    106          1           0       -6.507375   -4.521288    1.094097
    107          1           0       -5.042195   -4.464172    0.012361
    108          1           0       -7.607654   -1.191841    0.793474
    109          1           0       -8.290646   -2.676914    0.643850
    110          1           0       -8.793680   -2.166671   -1.626696
    111          1           0       -7.221726   -1.903256   -2.019340
    112          1           0       -7.525726    0.218913   -2.351189
    113          1           0       -7.384666    0.392407   -0.671889
    114          1           0      -10.177369   -0.315059   -0.835806
    115          1           0      -10.001473    2.050082   -2.632122
    116          1           0      -11.134158    0.702973   -2.669483
    117          1           0       -9.535946    0.518856   -3.450491
    118          1           0      -10.174187    2.419638   -0.431540
    119          1           0       -8.611509    2.130370    0.060884
    120          1           0       -9.168025    0.422770    1.568310
    121          1           0      -10.872541    0.330000    1.162685
    122          1           0       -9.900294    3.160293    2.083898
    123          1           0       -9.755783    1.948097    3.274456
    124          1           0      -11.997192    1.192035    3.152057
    125          1           0      -12.714754    3.751154    4.039352
    126          1           0      -11.052040    3.715056    4.425936
    127          1           0      -12.035317    2.352711    4.928021
    128          1           0      -12.163572    2.758717    0.657628
    129          1           0      -12.812604    3.773486    1.833037
    130          1           0      -14.660667    2.701721    1.106529
    131          1           0      -14.322348    1.498896    2.320609
    132          1           0      -13.755270   -0.138993    0.884885
    133          1           0      -12.657346    0.845476    0.005091
    134          1           0      -15.345576    1.710800   -0.766550
    135          1           0      -15.664438   -0.881775    0.386862
    136          1           0      -15.585543   -1.085666   -1.376845
    137          1           0      -16.742280    0.040525   -0.544944
    138          1           0      -13.466161    1.498145   -2.210633
    139          1           0      -14.848293    0.778853   -2.856695
    140          1           0      -13.530883   -0.274182   -2.139974
 ---------------------------------------------------------------------

 SCF Done:  E(RwB97XD) =  -3007.87472783     A.U. after   17 cycles

 Excitation energies and oscillator strengths:

 Excited State   1:      Singlet-A      1.6582 eV  747.68 nm  f=0.3924  <S**2>=0.000
     245 -> 248        0.18098
     246 -> 247        0.68383
     245 <- 248        0.11507
 This state for optimization and/or second-order correction.
 Total Energy, E(TD-HF/TD-DFT) =  -3007.81378844
 Copying the excited state density for this state as the 1-particle RhoCI density.

 Excited State   2:      Singlet-A      2.2226 eV  557.84 nm  f=0.1052  <S**2>=0.000
     245 -> 247        0.63301
     246 -> 248       -0.30076

 Excited State   3:      Singlet-A      3.5390 eV  350.33 nm  f=0.4940  <S**2>=0.000
     242 -> 247        0.20714
     244 -> 247        0.22731
     245 -> 247        0.23665
     246 -> 248        0.54665
     245 <- 247       -0.10087

 Excited State   4:      Singlet-A      3.5842 eV  345.92 nm  f=0.0003  <S**2>=0.000
     239 -> 247       -0.26040
     239 -> 249        0.22581
     240 -> 247       -0.19732
     240 -> 249        0.18479
     242 -> 247       -0.16876
     244 -> 247        0.48541

 Excited State   5:      Singlet-A      3.6433 eV  340.31 nm  f=0.1809  <S**2>=0.000
     239 -> 247        0.27337
     239 -> 249       -0.21728
     240 -> 247        0.22838
     240 -> 249       -0.16853
     244 -> 247        0.41651
     245 -> 247       -0.14351
     246 -> 248       -0.25220

 The electronic state is 1-A.
 Alpha  occ. eigenvalues --  -46.94041 -19.30956 -19.30184 -19.25896 -19.24505
 Alpha  occ. eigenvalues --  -19.24144 -19.23713 -14.45808 -14.45694 -14.43770
 Alpha  occ. eigenvalues --  -14.43719 -10.44095 -10.42766 -10.39698 -10.38778
 Alpha  occ. eigenvalues --  -10.35830 -10.35404 -10.34517 -10.34063 -10.34048
 Alpha  occ. eigenvalues --  -10.33753 -10.33274 -10.33241 -10.32730 -10.32671
 Alpha  occ. eigenvalues --  -10.32220 -10.31990 -10.31857 -10.31817 -10.31781
 Alpha  occ. eigenvalues --  -10.31349 -10.31323 -10.31207 -10.31016 -10.30967
 Alpha  occ. eigenvalues --  -10.30818 -10.30793 -10.30636 -10.30530 -10.30168
 Alpha  occ. eigenvalues --  -10.30017 -10.29855 -10.29817 -10.29787 -10.29782
 Alpha  occ. eigenvalues --  -10.29727 -10.29614 -10.29483 -10.29351 -10.29299
 Alpha  occ. eigenvalues --  -10.29277 -10.29224 -10.29201 -10.29083 -10.28953
 Alpha  occ. eigenvalues --  -10.28924 -10.28910 -10.28808 -10.28672 -10.28631
 Alpha  occ. eigenvalues --  -10.28369 -10.28359 -10.28309 -10.28282 -10.27895
 Alpha  occ. eigenvalues --  -10.27851  -3.20135  -1.93716  -1.93241  -1.93142
 Alpha  occ. eigenvalues --   -1.18785  -1.18501  -1.11862  -1.11565  -1.10829
 Alpha  occ. eigenvalues --   -1.10495  -1.06801  -1.05680  -1.05058  -1.03411
 Alpha  occ. eigenvalues --   -0.94919  -0.92859  -0.91972  -0.90721  -0.90606
 Alpha  occ. eigenvalues --   -0.89991  -0.89812  -0.89340  -0.89187  -0.89172
 Alpha  occ. eigenvalues --   -0.88336  -0.87090  -0.86012  -0.85514  -0.85081
 Alpha  occ. eigenvalues --   -0.84527  -0.84321  -0.83422  -0.82902  -0.82259
 Alpha  occ. eigenvalues --   -0.81650  -0.79908  -0.79481  -0.79287  -0.78293
 Alpha  occ. eigenvalues --   -0.77536  -0.77284  -0.77029  -0.76417  -0.76126
 Alpha  occ. eigenvalues --   -0.75214  -0.74657  -0.73168  -0.72230  -0.70877
 Alpha  occ. eigenvalues --   -0.70413  -0.70063  -0.68845  -0.68585  -0.67773
 Alpha  occ. eigenvalues --   -0.67414  -0.66845  -0.66390  -0.66283  -0.66203
 Alpha  occ. eigenvalues --   -0.65990  -0.65355  -0.64727  -0.63876  -0.62300
 Alpha  occ. eigenvalues --   -0.61583  -0.61568  -0.61064  -0.60485  -0.60105
 Alpha  occ. eigenvalues --   -0.59757  -0.59010  -0.58573  -0.58133  -0.57916
 Alpha  occ. eigenvalues --   -0.57146  -0.56882  -0.56660  -0.56500  -0.55600
 Alpha  occ. eigenvalues --   -0.55556  -0.55095  -0.55054  -0.54956  -0.54840
 Alpha  occ. eigenvalues --   -0.54562  -0.54257  -0.53833  -0.53584  -0.53311
 Alpha  occ. eigenvalues --   -0.53205  -0.52936  -0.52767  -0.52680  -0.52398
 Alpha  occ. eigenvalues --   -0.52334  -0.51897  -0.51710  -0.51595  -0.51419
 Alpha  occ. eigenvalues --   -0.51337  -0.51170  -0.50836  -0.50648  -0.50613
 Alpha  occ. eigenvalues --   -0.50522  -0.50213  -0.49922  -0.49578  -0.49449
 Alpha  occ. eigenvalues --   -0.48949  -0.48890  -0.48763  -0.48566  -0.48323
 Alpha  occ. eigenvalues --   -0.48223  -0.48174  -0.47892  -0.47787  -0.47708
 Alpha  occ. eigenvalues --   -0.47582  -0.47371  -0.47245  -0.47106  -0.46489
 Alpha  occ. eigenvalues --   -0.46321  -0.46137  -0.46043  -0.45866  -0.45464
 Alpha  occ. eigenvalues --   -0.45195  -0.45173  -0.45013  -0.44874  -0.44697
 Alpha  occ. eigenvalues --   -0.44417  -0.44406  -0.44190  -0.44077  -0.43739
 Alpha  occ. eigenvalues --   -0.43387  -0.43239  -0.43109  -0.42934  -0.42827
 Alpha  occ. eigenvalues --   -0.42562  -0.42202  -0.42075  -0.41753  -0.41653
 Alpha  occ. eigenvalues --   -0.41458  -0.41190  -0.40991  -0.40791  -0.40580
 Alpha  occ. eigenvalues --   -0.40458  -0.40423  -0.40330  -0.40257  -0.39613
 Alpha  occ. eigenvalues --   -0.39314  -0.38659  -0.38591  -0.38372  -0.37948
 Alpha  occ. eigenvalues --   -0.37646  -0.37375  -0.36874  -0.36640  -0.36203
 Alpha  occ. eigenvalues --   -0.36096  -0.35731  -0.35030  -0.33240  -0.33117
 Alpha  occ. eigenvalues --   -0.32838  -0.32430  -0.32218  -0.31866  -0.25573
 Alpha  occ. eigenvalues --   -0.22288
 Alpha virt. eigenvalues --   -0.06380   0.00889   0.02591   0.04589   0.05890
 Alpha virt. eigenvalues --    0.06000   0.07081   0.07464   0.08602   0.10338
 Alpha virt. eigenvalues --    0.10990   0.11494   0.12181   0.12531   0.12927

 Mulliken charges:
               1
     1  Mg   0.980970
     2  C   -0.056506
     3  C   -0.087243
     4  C   -0.055812
     5  C   -0.157671
     6  N   -0.369484
     7  C    0.035737
     8  C   -0.078498
     9  C   -0.098521
    10  C   -0.026965
    11  C    0.038438
    12  C    0.042199
    13  C   -0.025646
    14  C    0.217326
    15  O   -0.262538
    16  O   -0.362750
    17  N   -0.463736
    18  C    0.234582
    19  C   -0.149687
    20  C   -0.110935
    21  C    0.155099
    22  C    0.054262
    23  C    0.070299
    24  O   -0.235568
    25  C    0.001363
    26  N   -0.365283
    27  C    0.044461
    28  C   -0.055618
    29  C   -0.113369
    30  C    0.128067
    31  C    0.018572
    32  C   -0.019258
    33  C   -0.060271
    34  N   -0.410121
    35  C    0.159794
    36  C   -0.207688
    37  C    0.004125
    38  C    0.134747
    39  C    0.075469
    40  C    0.126554
    41  O   -0.224115
    42  C   -0.009553
    43  C    0.227994
    44  O   -0.221451
    45  O   -0.375058
    46  C    0.139510
    47  C    0.271038
    48  C   -0.166909
    49  C   -0.178311
    50  C    0.033904
    51  C    0.042202
    52  C   -0.064267
    53  C    0.012338
    54  C   -0.161706
    55  C    0.008666
    56  C   -0.017092
    57  C   -0.035886
    58  C    0.031298
    59  C   -0.169956
    60  C   -0.010621
    61  C    0.001751
    62  C   -0.026963
    63  C    0.014497
    64  C   -0.199483
    65  C    0.002415
    66  C   -0.014420
    67  H   -0.011352
    68  H    0.022696
    69  H   -0.000635
    70  H    0.050733
    71  H    0.024431
    72  H    0.051265
    73  H    0.042615
    74  H    0.038244
    75  H    0.033891
    76  H    0.035412
    77  H    0.067180
    78  H    0.054101
    79  H    0.054235
    80  H    0.036253
    81  H    0.043590
    82  H    0.074031
    83  H    0.045831
    84  H    0.047930
    85  H    0.038951
    86  H    0.024785
    87  H    0.042533
    88  H    0.034636
    89  H    0.043748
    90  H    0.034359
    91  H    0.030407
    92  H    0.025878
    93  H    0.032593
    94  H    0.036278
    95  H    0.035043
    96  H    0.055926
    97  H    0.055867
    98  H    0.065381
    99  H    0.042787
   100  H    0.058293
   101  H    0.058408
   102  H    0.029814
   103  H    0.049557
   104  H    0.015431
   105  H    0.043194
   106  H    0.052184
   107  H    0.037208
   108  H    0.029487
   109  H    0.013520
   110  H    0.018172
   111  H    0.018146
   112  H    0.021187
   113  H    0.015000
   114  H    0.025695
   115  H    0.030677
   116  H    0.025352
   117  H    0.033926
   118  H    0.003912
   119  H    0.019883
   120  H    0.017872
   121  H    0.024493
   122  H    0.019646
   123  H    0.005802
   124  H    0.022994
   125  H    0.023369
   126  H    0.028811
   127  H    0.028923
   128  H    0.010825
   129  H    0.005196
   130  H    0.020469
   131  H    0.018246
   132  H    0.011002
   133  H    0.012983
   134  H    0.023186
   135  H    0.017663
   136  H    0.029529
   137  H    0.025152
   138  H    0.021522
   139  H    0.025701
   140  H    0.039227
 Sum of Mulliken charges =  -0.00000

 Dipole moment (field-independent basis, Debye):
    X=             -4.7744    Y=              2.8055    Z=              0.9589  Tot=              5.6201
 Quadrupole moment (field-independent basis, Debye-Ang):
   XX=           -367.8325   YY=           -411.9016   ZZ=           -401.8196
   XY=              4.6278   XZ=              8.3152   YZ=             -2.4119

 Normal termination of Gaussian 16 at Wed Apr 27 04:21:02 2022.
