 Gaussian 16, Revision A.03,
 Gaussian 16:  ES64L-G16RevA.03 25-Dec-2016

 --------------------
 #p ZINDO=(nstates=5)
 --------------------

 -----------------------------
 step_1051_chromophore_4 ZINDO
 -----------------------------
 Symbolic Z-matrix:
 Charge =  0 Multiplicity = 1

                         Standard orientation:
 ---------------------------------------------------------------------
 Center     Atomic      Atomic             Coordinates (Angstroms)
 Number     Number       Type             X           Y           Z
 ---------------------------------------------------------------------
      1         12           0        5.789773    0.637518    0.410953
      2          6           0        3.706383   -2.164712    0.241284
      3          6           0        3.241911    2.599962   -0.547058
      4          6           0        8.043970    3.143630   -0.074675
      5          6           0        8.443559   -1.629185    0.622361
      6          7           0        3.690147    0.260032   -0.212938
      7          6           0        3.066687   -0.967188   -0.039989
      8          6           0        1.495924   -0.741351   -0.184890
      9          6           0        1.419428    0.701959   -0.741699
     10          6           0        2.831897    1.303226   -0.400308
     11          6           0        1.196835    0.811053   -2.271881
     12          6           0        0.582055   -1.005789    1.090349
     13          6           0       -0.663478   -1.996285    0.895021
     14          6           0       -1.618017   -1.793499   -0.239218
     15          8           0       -1.266944   -1.189650   -1.237952
     16          8           0       -2.864198   -2.373159    0.028347
     17          7           0        5.607169    2.620796   -0.053284
     18          6           0        4.457566    3.250410   -0.403544
     19          6           0        4.697053    4.636281   -0.631092
     20          6           0        6.080712    4.826812   -0.421715
     21          6           0        6.663845    3.475741   -0.170023
     22          6           0        3.643121    5.662403   -0.959948
     23          6           0        6.936603    6.116853   -0.569073
     24          8           0        8.118164    6.100216   -0.241309
     25          6           0        6.221906    7.309085   -0.968974
     26          7           0        7.899553    0.711390    0.291347
     27          6           0        8.599012    1.875340    0.118168
     28          6           0       10.111593    1.603737    0.092596
     29          6           0       10.144341    0.136197    0.536662
     30          6           0        8.747888   -0.302859    0.514395
     31          6           0       10.826401    1.806435   -1.257409
     32          6           0       10.912141   -0.052963    1.984211
     33          6           0       11.904371   -1.198871    2.145692
     34          7           0        6.073886   -1.394513    0.623451
     35          6           0        7.194414   -2.195895    0.664795
     36          6           0        6.844783   -3.591824    0.754865
     37          6           0        5.467933   -3.665098    0.570420
     38          6           0        5.112238   -2.295635    0.464549
     39          6           0        7.830273   -4.731677    0.950035
     40          6           0        4.271914   -4.481649    0.521152
     41          8           0        4.196762   -5.728069    0.527326
     42          6           0        3.048193   -3.513510    0.391467
     43          6           0        2.303545   -3.839793   -0.796623
     44          8           0        2.654996   -3.466847   -1.887034
     45          8           0        1.230921   -4.686835   -0.553471
     46          6           0        0.322624   -4.951458   -1.656079
     47          6           0       -3.837926   -2.225884   -1.024090
     48          6           0       -5.173664   -1.903829   -0.411068
     49          6           0       -6.155962   -2.660334    0.069037
     50          6           0       -6.083238   -4.175886    0.151115
     51          6           0       -7.543583   -2.062647    0.140646
     52          6           0       -7.945598   -1.581340   -1.271241
     53          6           0       -8.049968   -0.026730   -1.427965
     54          6           0       -9.525361    0.472773   -1.215214
     55          6           0      -10.077464    0.962470   -2.615296
     56          6           0       -9.549916    1.596538   -0.085228
     57          6           0      -10.033041    1.015790    1.272921
     58          6           0      -10.301707    2.185320    2.360392
     59          6           0      -11.720714    2.188319    2.808983
     60          6           0      -11.872002    3.064671    4.118432
     61          6           0      -12.616123    2.717265    1.647517
     62          6           0      -13.929096    1.953337    1.411307
     63          6           0      -13.690648    0.806486    0.348445
     64          6           0      -14.742135    0.804013   -0.734698
     65          6           0      -15.732017   -0.366063   -0.571470
     66          6           0      -14.119568    0.639549   -2.058274
     67          1           0        2.340600    3.081343   -0.933834
     68          1           0        8.826940    3.884144   -0.250034
     69          1           0        9.291134   -2.300825    0.471975
     70          1           0        1.117956   -1.410796   -0.958153
     71          1           0        0.697312    1.322654   -0.212046
     72          1           0        1.034675   -0.152926   -2.756034
     73          1           0        2.081147    1.235957   -2.745268
     74          1           0        0.284712    1.388048   -2.419845
     75          1           0        0.143074   -0.060977    1.411261
     76          1           0        1.246144   -1.345877    1.885654
     77          1           0       -1.201146   -2.100025    1.837431
     78          1           0       -0.171489   -2.908122    0.557771
     79          1           0        3.817695    5.832176   -2.023137
     80          1           0        3.730684    6.618216   -0.443567
     81          1           0        2.579583    5.492642   -0.790838
     82          1           0        5.551637    7.681208   -0.193766
     83          1           0        5.666380    7.042558   -1.867714
     84          1           0        6.884788    8.142592   -1.201575
     85          1           0       10.650206    2.205209    0.824605
     86          1           0       10.727686   -0.543774   -0.084338
     87          1           0       10.225975    1.633764   -2.150594
     88          1           0       11.660080    1.104999   -1.276630
     89          1           0       11.171612    2.838704   -1.317706
     90          1           0       10.154178   -0.118267    2.765160
     91          1           0       11.527973    0.806934    2.246055
     92          1           0       11.770624   -1.846900    1.279498
     93          1           0       11.758237   -1.793342    3.047878
     94          1           0       12.950688   -0.926245    2.281586
     95          1           0        8.545038   -4.432048    1.716468
     96          1           0        8.404869   -5.046093    0.077964
     97          1           0        7.253155   -5.587470    1.300477
     98          1           0        2.341717   -3.542715    1.220249
     99          1           0       -0.145016   -3.985158   -1.838816
    100          1           0       -0.497460   -5.668050   -1.629730
    101          1           0        0.891506   -5.318511   -2.510186
    102          1           0       -3.972841   -3.173758   -1.545018
    103          1           0       -3.573410   -1.432373   -1.722802
    104          1           0       -5.384701   -0.847241   -0.576240
    105          1           0       -6.592254   -4.603394   -0.713159
    106          1           0       -6.507375   -4.521288    1.094097
    107          1           0       -5.042195   -4.464172    0.012361
    108          1           0       -7.607654   -1.191841    0.793474
    109          1           0       -8.290646   -2.676914    0.643850
    110          1           0       -8.793680   -2.166671   -1.626696
    111          1           0       -7.221726   -1.903256   -2.019340
    112          1           0       -7.525726    0.218913   -2.351189
    113          1           0       -7.384666    0.392407   -0.671889
    114          1           0      -10.177369   -0.315059   -0.835806
    115          1           0      -10.001473    2.050082   -2.632122
    116          1           0      -11.134158    0.702973   -2.669483
    117          1           0       -9.535946    0.518856   -3.450491
    118          1           0      -10.174187    2.419638   -0.431540
    119          1           0       -8.611509    2.130370    0.060884
    120          1           0       -9.168025    0.422770    1.568310
    121          1           0      -10.872541    0.330000    1.162685
    122          1           0       -9.900294    3.160293    2.083898
    123          1           0       -9.755783    1.948097    3.274456
    124          1           0      -11.997192    1.192035    3.152057
    125          1           0      -12.714754    3.751154    4.039352
    126          1           0      -11.052040    3.715056    4.425936
    127          1           0      -12.035317    2.352711    4.928021
    128          1           0      -12.163572    2.758717    0.657628
    129          1           0      -12.812604    3.773486    1.833037
    130          1           0      -14.660667    2.701721    1.106529
    131          1           0      -14.322348    1.498896    2.320609
    132          1           0      -13.755270   -0.138993    0.884885
    133          1           0      -12.657346    0.845476    0.005091
    134          1           0      -15.345576    1.710800   -0.766550
    135          1           0      -15.664438   -0.881775    0.386862
    136          1           0      -15.585543   -1.085666   -1.376845
    137          1           0      -16.742280    0.040525   -0.544944
    138          1           0      -13.466161    1.498145   -2.210633
    139          1           0      -14.848293    0.778853   -2.856695
    140          1           0      -13.530883   -0.274182   -2.139974
 ---------------------------------------------------------------------

 SCF Done:  E(RZINDO/S) =  -474.551284763     A.U. after   19 cycles

 Excitation energies and oscillator strengths:

 Excited State   1:      Singlet-A      1.2364 eV 1002.77 nm  f=0.6261  <S**2>=0.000
     175 ->178         0.19271
     176 ->177         0.66268
 This state for optimization and/or second-order correction.
 Total Energy, E(CIS/TDA) =  -474.505847292
 Copying the excited state density for this state as the 1-particle RhoCI density.

 Excited State   2:      Singlet-A      1.9305 eV  642.24 nm  f=0.0350  <S**2>=0.000
     175 ->177         0.54115
     176 ->178        -0.43068

 Excited State   3:      Singlet-A      2.8684 eV  432.24 nm  f=0.1239  <S**2>=0.000
     175 ->177        -0.17622
     176 ->178        -0.27801
     176 ->179         0.58484

 Excited State   4:      Singlet-A      2.9968 eV  413.73 nm  f=0.4413  <S**2>=0.000
     168 ->177         0.25348
     168 ->178         0.10611
     168 ->179        -0.36040
     168 ->180         0.16133
     168 ->186        -0.12940
     175 ->177         0.23884
     176 ->178         0.30758
     176 ->179         0.15922

 Excited State   5:      Singlet-A      3.0315 eV  408.99 nm  f=0.5311  <S**2>=0.000
     168 ->177        -0.19141
     168 ->179         0.29370
     168 ->180        -0.11471
     168 ->186         0.10893
     175 ->177         0.26319
     176 ->178         0.32446
     176 ->179         0.29503
     176 ->180         0.10632

 The electronic state is 1-A.
 Alpha  occ. eigenvalues --   -1.86125  -1.82080  -1.80461  -1.73863  -1.72638
 Alpha  occ. eigenvalues --   -1.70470  -1.66156  -1.61605  -1.58881  -1.58482
 Alpha  occ. eigenvalues --   -1.57140  -1.53312  -1.49459  -1.49132  -1.46085
 Alpha  occ. eigenvalues --   -1.43705  -1.40822  -1.40202  -1.39112  -1.36768
 Alpha  occ. eigenvalues --   -1.35809  -1.33428  -1.33070  -1.32432  -1.29696
 Alpha  occ. eigenvalues --   -1.28179  -1.25496  -1.23015  -1.21936  -1.18595
 Alpha  occ. eigenvalues --   -1.16974  -1.15755  -1.14469  -1.12664  -1.12206
 Alpha  occ. eigenvalues --   -1.11932  -1.11011  -1.10335  -1.05808  -1.04464
 Alpha  occ. eigenvalues --   -1.02311  -1.01454  -0.98200  -0.97866  -0.96870
 Alpha  occ. eigenvalues --   -0.96522  -0.95238  -0.95179  -0.93945  -0.92187
 Alpha  occ. eigenvalues --   -0.90455  -0.90253  -0.89719  -0.88372  -0.87512
 Alpha  occ. eigenvalues --   -0.85842  -0.84818  -0.83310  -0.81533  -0.80099
 Alpha  occ. eigenvalues --   -0.79225  -0.78679  -0.78448  -0.76742  -0.76284
 Alpha  occ. eigenvalues --   -0.75609  -0.75247  -0.74643  -0.74153  -0.73667
 Alpha  occ. eigenvalues --   -0.72300  -0.72210  -0.71531  -0.71255  -0.70562
 Alpha  occ. eigenvalues --   -0.69934  -0.69292  -0.68585  -0.68083  -0.67713
 Alpha  occ. eigenvalues --   -0.67579  -0.66703  -0.66588  -0.65936  -0.65904
 Alpha  occ. eigenvalues --   -0.65664  -0.65412  -0.65031  -0.64387  -0.63662
 Alpha  occ. eigenvalues --   -0.63305  -0.62677  -0.62207  -0.61796  -0.61305
 Alpha  occ. eigenvalues --   -0.61041  -0.60663  -0.60510  -0.60240  -0.60090
 Alpha  occ. eigenvalues --   -0.59817  -0.58935  -0.58593  -0.58361  -0.58138
 Alpha  occ. eigenvalues --   -0.58061  -0.57587  -0.57076  -0.56531  -0.56314
 Alpha  occ. eigenvalues --   -0.55939  -0.55648  -0.55325  -0.54722  -0.54465
 Alpha  occ. eigenvalues --   -0.54256  -0.54084  -0.53593  -0.53366  -0.52985
 Alpha  occ. eigenvalues --   -0.52686  -0.52603  -0.52003  -0.51542  -0.50747
 Alpha  occ. eigenvalues --   -0.50700  -0.50423  -0.50345  -0.50276  -0.49878
 Alpha  occ. eigenvalues --   -0.49699  -0.48988  -0.48620  -0.48283  -0.48113
 Alpha  occ. eigenvalues --   -0.47937  -0.47787  -0.47707  -0.47598  -0.47223
 Alpha  occ. eigenvalues --   -0.47034  -0.46965  -0.46781  -0.46602  -0.46293
 Alpha  occ. eigenvalues --   -0.46156  -0.46040  -0.45916  -0.45531  -0.45039
 Alpha  occ. eigenvalues --   -0.45017  -0.44772  -0.44630  -0.44146  -0.43539
 Alpha  occ. eigenvalues --   -0.43312  -0.42980  -0.42493  -0.42049  -0.41953
 Alpha  occ. eigenvalues --   -0.41705  -0.41527  -0.40990  -0.38889  -0.38441
 Alpha  occ. eigenvalues --   -0.37961  -0.37100  -0.35550  -0.35197  -0.34511
 Alpha  occ. eigenvalues --   -0.33113  -0.32791  -0.32164  -0.31990  -0.26312
 Alpha  occ. eigenvalues --   -0.21164
 Alpha virt. eigenvalues --   -0.08030  -0.01487  -0.00466   0.01416   0.01706
 Alpha virt. eigenvalues --    0.02395   0.03199   0.03398   0.04096   0.05190
 Alpha virt. eigenvalues --    0.06625   0.07556   0.07806   0.08073   0.08482

 Mulliken charges:
               1
     1  Mg   0.421335
     2  C   -0.044705
     3  C   -0.074183
     4  C   -0.062560
     5  C   -0.066076
     6  N   -0.292225
     7  C    0.111922
     8  C   -0.000841
     9  C    0.013482
    10  C    0.128841
    11  C   -0.045767
    12  C   -0.026545
    13  C   -0.001478
    14  C    0.473062
    15  O   -0.519436
    16  O   -0.266113
    17  N   -0.314002
    18  C    0.127085
    19  C    0.011840
    20  C   -0.061470
    21  C    0.132669
    22  C   -0.045325
    23  C    0.335592
    24  O   -0.523351
    25  C   -0.023693
    26  N   -0.265573
    27  C    0.125847
    28  C    0.007725
    29  C   -0.000819
    30  C    0.138004
    31  C   -0.047873
    32  C   -0.039161
    33  C   -0.058373
    34  N   -0.314475
    35  C    0.097145
    36  C    0.030704
    37  C   -0.052932
    38  C    0.128324
    39  C   -0.041946
    40  C    0.344031
    41  O   -0.525991
    42  C    0.064089
    43  C    0.499388
    44  O   -0.518463
    45  O   -0.278488
    46  C    0.070754
    47  C    0.106709
    48  C   -0.085214
    49  C    0.005396
    50  C   -0.043242
    51  C   -0.019663
    52  C   -0.034968
    53  C   -0.034442
    54  C   -0.016162
    55  C   -0.061611
    56  C   -0.039944
    57  C   -0.045062
    58  C   -0.032430
    59  C   -0.000710
    60  C   -0.066770
    61  C   -0.036809
    62  C   -0.041697
    63  C   -0.033522
    64  C   -0.001429
    65  C   -0.061226
    66  C   -0.048303
    67  H    0.016501
    68  H    0.050411
    69  H    0.021715
    70  H    0.044455
    71  H    0.024545
    72  H    0.030822
    73  H    0.026072
    74  H    0.022057
    75  H    0.022215
    76  H    0.021999
    77  H    0.039003
    78  H    0.052137
    79  H    0.030274
    80  H    0.022655
    81  H    0.026803
    82  H    0.047182
    83  H    0.034974
    84  H    0.029808
    85  H    0.033531
    86  H    0.029269
    87  H    0.025825
    88  H    0.018850
    89  H    0.020482
    90  H    0.020772
    91  H    0.018613
    92  H    0.018164
    93  H    0.015449
    94  H    0.021156
    95  H    0.021769
    96  H    0.037266
    97  H    0.030077
    98  H    0.054262
    99  H    0.034837
   100  H    0.041582
   101  H    0.043704
   102  H    0.038385
   103  H    0.054259
   104  H    0.016997
   105  H    0.030364
   106  H    0.031838
   107  H    0.021058
   108  H    0.020440
   109  H    0.016678
   110  H    0.013187
   111  H    0.009723
   112  H    0.024296
   113  H    0.015947
   114  H    0.028075
   115  H    0.021474
   116  H    0.016932
   117  H    0.024930
   118  H    0.011633
   119  H    0.021600
   120  H    0.014976
   121  H    0.031669
   122  H    0.029125
   123  H    0.002883
   124  H    0.025914
   125  H    0.016091
   126  H    0.021780
   127  H    0.014198
   128  H    0.019871
   129  H    0.009847
   130  H    0.018532
   131  H    0.017615
   132  H    0.013432
   133  H    0.025259
   134  H    0.023217
   135  H    0.014751
   136  H    0.023388
   137  H    0.013365
   138  H    0.000557
   139  H    0.012344
   140  H    0.025261
 Sum of Mulliken charges =  -0.00000

 Dipole moment (field-independent basis, Debye):
    X=             -5.6265    Y=              3.5357    Z=              1.4786  Tot=              6.8077
 N-N= 4.304983921904D+03 E-N= 0.000000000000D+00  KE=-9.284991812655D+03
 Leave Link  601 at Wed Apr 27 04:33:05 2022, MaxMem=  6710886400 cpu:               1.4 elap:               0.1
 (Enter /sw/apps/gaussian-16.0/g16/l9999.exe)
 1\1\GINC-BP1-COMPUTE219\SP\RZINDO CIS\STO-3G\C55H74Mg1N4O6\OF15641\27-
 Apr-2022\0\\#p ZINDO=(nstates=5)\\step_1051_chromophore_4 ZINDO\\0,1\M
 g,0,9.775,4.241,27.686\C,0,11.034,2.557,30.479\C,0,8.096,6.338,29.697\
 C,0,8.074,5.335,24.946\C,0,10.938,1.53,25.809\N,0,9.484,4.382,29.885\C
 ,0,10.242,3.652,30.789\C,0,10.066,4.32,32.225\C,0,8.894,5.305,31.99\C,
 0,8.856,5.465,30.426\C,0,7.505,4.808,32.466\C,0,11.347,4.97,32.909\C,0
 ,11.692,4.492,34.4\C,0,10.634,4.498,35.458\O,0,9.456,4.445,35.15\O,0,1

 Normal termination of Gaussian 16 at Wed Apr 27 04:33:06 2022.
