 Gaussian 16, Revision A.03,
 Gaussian 16:  ES64L-G16RevA.03 25-Dec-2016

 ------------------------------
 #p blyp/Def2SVP td=(nstates=5)
 ------------------------------

 -------------------------------------------------
 step_401_chromophore_9 TDDFT with blyp functional
 -------------------------------------------------
 Symbolic Z-matrix:
 Charge =  0 Multiplicity = 1

                         Standard orientation:
 ---------------------------------------------------------------------
 Center     Atomic      Atomic             Coordinates (Angstroms)
 Number     Number       Type             X           Y           Z
 ---------------------------------------------------------------------
      1         12           0       -4.692217    0.975130    0.065353
      2          6           0       -4.055824   -2.439769    0.591218
      3          6           0       -1.312330    1.502116   -0.233200
      4          6           0       -5.425230    4.229103   -0.196516
      5          6           0       -8.231051    0.256802    0.439835
      6          7           0       -2.895598   -0.342365    0.274296
      7          6           0       -2.878463   -1.709782    0.218372
      8          6           0       -1.548639   -2.273395   -0.325924
      9          6           0       -0.634988   -1.063398   -0.306569
     10          6           0       -1.627790    0.124218   -0.029125
     11          6           0        0.627407   -1.126189    0.534324
     12          6           0       -1.639250   -2.921825   -1.740720
     13          6           0       -0.603033   -4.118450   -2.036790
     14          6           0        0.613419   -4.298831   -1.109359
     15          8           0        0.633431   -4.985495   -0.103184
     16          8           0        1.648509   -3.542285   -1.498744
     17          7           0       -3.490918    2.674472   -0.215987
     18          6           0       -2.139508    2.657821   -0.388591
     19          6           0       -1.772748    4.010347   -0.552785
     20          6           0       -2.904951    4.827324   -0.539370
     21          6           0       -4.017401    3.966817   -0.292739
     22          6           0       -0.288089    4.443672   -0.710906
     23          6           0       -3.016962    6.277468   -0.671650
     24          8           0       -4.105387    6.804150   -0.899611
     25          6           0       -1.817832    7.170865   -0.742614
     26          7           0       -6.552486    2.089577    0.156107
     27          6           0       -6.541616    3.456541    0.053483
     28          6           0       -7.954675    4.010935    0.182726
     29          6           0       -8.887353    2.754800    0.222357
     30          6           0       -7.888942    1.612502    0.271732
     31          6           0       -8.145936    4.890637    1.521372
     32          6           0       -9.886837    2.572672   -0.922251
     33          6           0       -9.274937    1.968203   -2.116451
     34          7           0       -6.009861   -0.690440    0.500486
     35          6           0       -7.372516   -0.804446    0.644047
     36          6           0       -7.621471   -2.197356    0.883160
     37          6           0       -6.392709   -2.860026    0.899051
     38          6           0       -5.387174   -1.886697    0.675597
     39          6           0       -9.042974   -2.762335    1.009129
     40          6           0       -5.738345   -4.208108    0.956808
     41          8           0       -6.229849   -5.289992    1.184447
     42          6           0       -4.186374   -3.926827    0.646763
     43          6           0       -3.268153   -4.659699    1.632239
     44          8           0       -3.365811   -4.707004    2.839730
     45          8           0       -2.403127   -5.458494    0.920894
     46          6           0       -1.641369   -6.475627    1.587525
     47          6           0        2.755869   -3.606848   -0.571890
     48          6           0        3.790929   -2.596429   -1.040183
     49          6           0        4.983457   -2.787370   -1.639917
     50          6           0        5.599921   -4.137117   -2.055938
     51          6           0        5.988372   -1.679881   -1.844669
     52          6           0        6.691050   -1.519306   -3.212172
     53          6           0        8.185494   -1.164938   -3.093458
     54          6           0        8.489732    0.267490   -3.538841
     55          6           0        8.495107    0.328277   -5.104063
     56          6           0        9.831851    0.772229   -3.087528
     57          6           0        9.691142    1.536422   -1.767488
     58          6           0       10.824982    1.151454   -0.780958
     59          6           0       10.903859    2.116519    0.372461
     60          6           0       11.544596    3.455056   -0.143997
     61          6           0       11.628139    1.603732    1.612801
     62          6           0       10.682877    0.833328    2.537026
     63          6           0        9.873433    1.767038    3.603719
     64          6           0        9.895025    1.082961    4.991639
     65          6           0        8.723485    1.533290    5.796525
     66          6           0       11.219537    1.494590    5.737520
     67          1           0       -0.273484    1.664729   -0.529145
     68          1           0       -5.711527    5.283682   -0.212220
     69          1           0       -9.294204    0.025912    0.524343
     70          1           0       -1.197539   -2.982823    0.423480
     71          1           0       -0.314636   -0.849719   -1.326399
     72          1           0        1.549042   -0.837241    0.027915
     73          1           0        0.687394   -2.124485    0.967331
     74          1           0        0.744725   -0.423717    1.358999
     75          1           0       -1.449810   -2.164614   -2.501866
     76          1           0       -2.610949   -3.396497   -1.876766
     77          1           0       -0.207646   -3.827351   -3.009528
     78          1           0       -1.180372   -5.017421   -2.251853
     79          1           0        0.049267    4.774366   -1.693585
     80          1           0        0.357935    3.613311   -0.423722
     81          1           0       -0.198356    5.257462    0.009474
     82          1           0       -1.118909    6.990766    0.074096
     83          1           0       -2.124048    8.214653   -0.813380
     84          1           0       -1.329925    6.924212   -1.685555
     85          1           0       -8.244989    4.664854   -0.639737
     86          1           0       -9.480626    2.724236    1.136749
     87          1           0       -8.253197    5.974441    1.499902
     88          1           0       -7.237224    4.783241    2.115111
     89          1           0       -8.982948    4.464286    2.074057
     90          1           0      -10.419012    3.517595   -1.031852
     91          1           0      -10.603212    1.849480   -0.532508
     92          1           0       -9.459212    2.712664   -2.889682
     93          1           0       -9.657594    0.973701   -2.342575
     94          1           0       -8.188469    2.050865   -2.069271
     95          1           0       -9.650644   -2.545110    0.130101
     96          1           0       -9.526379   -2.187996    1.799377
     97          1           0       -9.028824   -3.819422    1.274660
     98          1           0       -4.045381   -4.473259   -0.285410
     99          1           0       -1.152529   -7.213810    0.951535
    100          1           0       -2.432895   -6.951339    2.166065
    101          1           0       -0.867927   -5.944821    2.141908
    102          1           0        3.238239   -4.580567   -0.484722
    103          1           0        2.452897   -3.135231    0.362949
    104          1           0        3.587243   -1.591393   -0.671045
    105          1           0        5.439495   -4.320319   -3.118573
    106          1           0        5.195126   -4.881033   -1.369287
    107          1           0        6.677514   -4.215673   -1.912803
    108          1           0        6.623240   -1.662623   -0.958013
    109          1           0        5.426761   -0.761818   -1.669714
    110          1           0        6.251934   -0.631702   -3.667605
    111          1           0        6.624410   -2.357788   -3.906882
    112          1           0        8.742445   -1.806744   -3.776281
    113          1           0        8.542818   -1.398332   -2.090151
    114          1           0        7.667002    0.943080   -3.306813
    115          1           0        8.324923   -0.659200   -5.532850
    116          1           0        9.398439    0.757271   -5.536620
    117          1           0        7.735542    1.001780   -5.499977
    118          1           0       10.320710    1.456479   -3.780982
    119          1           0       10.497267   -0.081302   -2.950906
    120          1           0        8.771793    1.395620   -1.199205
    121          1           0        9.571793    2.591957   -2.014781
    122          1           0       11.793340    1.126339   -1.280861
    123          1           0       10.554420    0.120523   -0.555511
    124          1           0        9.952809    2.501204    0.740537
    125          1           0       12.001960    4.009305    0.675886
    126          1           0       10.856935    4.126671   -0.657449
    127          1           0       12.344290    3.292169   -0.865865
    128          1           0       12.094278    2.341920    2.265261
    129          1           0       12.457640    0.984135    1.270731
    130          1           0       11.263801    0.049176    3.022826
    131          1           0        9.899672    0.354135    1.949255
    132          1           0        8.842680    1.772317    3.246674
    133          1           0       10.274055    2.778528    3.671509
    134          1           0        9.847013   -0.001512    4.890685
    135          1           0        8.353272    2.543937    5.625315
    136          1           0        8.934269    1.538692    6.865888
    137          1           0        7.942900    0.793676    5.615457
    138          1           0       11.992785    1.707461    4.997893
    139          1           0       11.504759    0.711754    6.439582
    140          1           0       11.014877    2.391505    6.320981
 ---------------------------------------------------------------------

 SCF Done:  E(RB-LYP) =  -3007.39866418     A.U. after   21 cycles

 Excitation energies and oscillator strengths:

 Excited State   1:      Singlet-A      1.7491 eV  708.87 nm  f=0.0498  <S**2>=0.000
     244 -> 247        0.61241
     245 -> 247       -0.16179
     246 -> 247       -0.30571
 This state for optimization and/or second-order correction.
 Total Energy, E(TD-HF/TD-DFT) =  -3007.33438771
 Copying the excited state density for this state as the 1-particle RhoCI density.

 Excited State   2:      Singlet-A      1.8414 eV  673.33 nm  f=0.2394  <S**2>=0.000
     244 -> 247        0.30141
     245 -> 248       -0.19347
     246 -> 247        0.61472
     246 <- 247       -0.13208

 Excited State   3:      Singlet-A      1.9381 eV  639.72 nm  f=0.0453  <S**2>=0.000
     243 -> 247        0.45110
     244 -> 247        0.14767
     245 -> 247        0.49052
     246 -> 248        0.16425

 Excited State   4:      Singlet-A      2.0244 eV  612.44 nm  f=0.0343  <S**2>=0.000
     243 -> 247        0.54007
     245 -> 247       -0.39326
     246 -> 248       -0.17329

 Excited State   5:      Singlet-A      2.4219 eV  511.93 nm  f=0.0017  <S**2>=0.000
     241 -> 247       -0.11857
     242 -> 247        0.68026

 The electronic state is 1-A.
 Alpha  occ. eigenvalues --  -46.27784 -18.83540 -18.80664 -18.77428 -18.76242
 Alpha  occ. eigenvalues --  -18.75973 -18.74754 -14.03882 -14.02984 -14.00838
 Alpha  occ. eigenvalues --  -14.00517 -10.04858 -10.03310 -10.00086  -9.99020
 Alpha  occ. eigenvalues --   -9.98441  -9.97263  -9.97224  -9.96681  -9.96310
 Alpha  occ. eigenvalues --   -9.96108  -9.95824  -9.95391  -9.95065  -9.94864
 Alpha  occ. eigenvalues --   -9.94788  -9.94545  -9.94473  -9.94430  -9.94197
 Alpha  occ. eigenvalues --   -9.94017  -9.94004  -9.93957  -9.93564  -9.93413
 Alpha  occ. eigenvalues --   -9.93373  -9.93291  -9.93018  -9.92897  -9.92874
 Alpha  occ. eigenvalues --   -9.92689  -9.92560  -9.92457  -9.92272  -9.92190
 Alpha  occ. eigenvalues --   -9.92185  -9.92102  -9.92082  -9.92060  -9.91854
 Alpha  occ. eigenvalues --   -9.91835  -9.91800  -9.91744  -9.91679  -9.91591
 Alpha  occ. eigenvalues --   -9.91441  -9.91330  -9.91111  -9.91107  -9.91088
 Alpha  occ. eigenvalues --   -9.91041  -9.90907  -9.90848  -9.90783  -9.90614
 Alpha  occ. eigenvalues --   -9.90456  -2.92135  -1.72585  -1.72030  -1.71820
 Alpha  occ. eigenvalues --   -1.00366  -0.97062  -0.92025  -0.91002  -0.90925
 Alpha  occ. eigenvalues --   -0.89241  -0.86128  -0.85414  -0.85194  -0.84098
 Alpha  occ. eigenvalues --   -0.74946  -0.74491  -0.73629  -0.73347  -0.73022
 Alpha  occ. eigenvalues --   -0.72612  -0.71501  -0.70974  -0.70575  -0.70044
 Alpha  occ. eigenvalues --   -0.69851  -0.69142  -0.68540  -0.67465  -0.67333
 Alpha  occ. eigenvalues --   -0.66595  -0.65777  -0.65282  -0.64928  -0.64437
 Alpha  occ. eigenvalues --   -0.63935  -0.62975  -0.62224  -0.61476  -0.61332
 Alpha  occ. eigenvalues --   -0.60286  -0.59950  -0.59610  -0.59465  -0.59192
 Alpha  occ. eigenvalues --   -0.58958  -0.57812  -0.56782  -0.56187  -0.55290
 Alpha  occ. eigenvalues --   -0.54327  -0.53867  -0.52925  -0.52697  -0.51818
 Alpha  occ. eigenvalues --   -0.51567  -0.50803  -0.50539  -0.50460  -0.50319
 Alpha  occ. eigenvalues --   -0.49937  -0.49407  -0.48935  -0.47652  -0.47413
 Alpha  occ. eigenvalues --   -0.46228  -0.46194  -0.45552  -0.45247  -0.44636
 Alpha  occ. eigenvalues --   -0.43863  -0.43825  -0.43265  -0.42664  -0.42491
 Alpha  occ. eigenvalues --   -0.42438  -0.42359  -0.41975  -0.41670  -0.41452
 Alpha  occ. eigenvalues --   -0.41392  -0.41112  -0.40962  -0.40600  -0.40530
 Alpha  occ. eigenvalues --   -0.40055  -0.39843  -0.39765  -0.39594  -0.39563
 Alpha  occ. eigenvalues --   -0.39435  -0.39182  -0.38876  -0.38575  -0.38434
 Alpha  occ. eigenvalues --   -0.37964  -0.37767  -0.37489  -0.37272  -0.37142
 Alpha  occ. eigenvalues --   -0.36871  -0.36679  -0.36580  -0.36466  -0.36419
 Alpha  occ. eigenvalues --   -0.36348  -0.36019  -0.35950  -0.35817  -0.35605
 Alpha  occ. eigenvalues --   -0.35411  -0.35390  -0.35078  -0.34968  -0.34740
 Alpha  occ. eigenvalues --   -0.34634  -0.34277  -0.34191  -0.34098  -0.33959
 Alpha  occ. eigenvalues --   -0.33871  -0.33809  -0.33610  -0.33502  -0.33336
 Alpha  occ. eigenvalues --   -0.33255  -0.33094  -0.32698  -0.32575  -0.32505
 Alpha  occ. eigenvalues --   -0.32277  -0.32144  -0.31628  -0.31501  -0.31404
 Alpha  occ. eigenvalues --   -0.31279  -0.31226  -0.31123  -0.30929  -0.30711
 Alpha  occ. eigenvalues --   -0.30491  -0.30304  -0.30266  -0.30039  -0.29742
 Alpha  occ. eigenvalues --   -0.29515  -0.29444  -0.29369  -0.29288  -0.29020
 Alpha  occ. eigenvalues --   -0.28817  -0.28510  -0.28140  -0.27976  -0.27722
 Alpha  occ. eigenvalues --   -0.27383  -0.27285  -0.27202  -0.27080  -0.26617
 Alpha  occ. eigenvalues --   -0.26478  -0.26276  -0.26196  -0.26185  -0.25541
 Alpha  occ. eigenvalues --   -0.25271  -0.25202  -0.24117  -0.23960  -0.23936
 Alpha  occ. eigenvalues --   -0.23011  -0.22986  -0.22303  -0.21258  -0.20982
 Alpha  occ. eigenvalues --   -0.20590  -0.20090  -0.18895  -0.18125  -0.17201
 Alpha  occ. eigenvalues --   -0.16069
 Alpha virt. eigenvalues --   -0.11696  -0.06973  -0.05918  -0.04634  -0.03757
 Alpha virt. eigenvalues --   -0.02911  -0.02429  -0.02082  -0.01249  -0.00234
 Alpha virt. eigenvalues --    0.00916   0.01366   0.01999   0.02195   0.02537

 Mulliken charges:
               1
     1  Mg   0.655060
     2  C    0.023351
     3  C   -0.056814
     4  C    0.000649
     5  C   -0.057628
     6  N   -0.218023
     7  C   -0.086919
     8  C    0.048893
     9  C    0.006855
    10  C    0.021561
    11  C    0.125581
    12  C    0.117132
    13  C    0.138062
    14  C    0.080987
    15  O   -0.201443
    16  O   -0.236355
    17  N   -0.309996
    18  C    0.123907
    19  C   -0.145850
    20  C    0.120133
    21  C    0.078432
    22  C    0.160250
    23  C   -0.125719
    24  O   -0.182771
    25  C    0.147224
    26  N   -0.238465
    27  C    0.022199
    28  C    0.031046
    29  C    0.045202
    30  C   -0.004719
    31  C    0.095279
    32  C    0.065186
    33  C    0.114051
    34  N   -0.252659
    35  C    0.115396
    36  C   -0.187373
    37  C    0.041662
    38  C    0.100113
    39  C    0.173854
    40  C   -0.011411
    41  O   -0.100221
    42  C    0.016007
    43  C    0.091648
    44  O   -0.159944
    45  O   -0.285947
    46  C    0.231512
    47  C    0.336484
    48  C   -0.125476
    49  C   -0.153050
    50  C    0.138684
    51  C    0.133184
    52  C    0.094098
    53  C    0.093544
    54  C   -0.093829
    55  C    0.091650
    56  C    0.167728
    57  C    0.029570
    58  C    0.113033
    59  C   -0.043252
    60  C    0.076608
    61  C    0.132950
    62  C    0.049918
    63  C    0.089212
    64  C   -0.094751
    65  C    0.119610
    66  C    0.096938
    67  H   -0.059027
    68  H   -0.045916
    69  H   -0.069682
    70  H   -0.001846
    71  H   -0.022075
    72  H   -0.018350
    73  H    0.016943
    74  H   -0.018530
    75  H   -0.010817
    76  H   -0.008642
    77  H   -0.022385
    78  H    0.001577
    79  H    0.009544
    80  H   -0.021428
    81  H   -0.007730
    82  H    0.002371
    83  H   -0.010195
    84  H    0.005707
    85  H   -0.017546
    86  H   -0.030231
    87  H    0.000307
    88  H   -0.007143
    89  H   -0.012465
    90  H   -0.016513
    91  H   -0.030016
    92  H   -0.024140
    93  H    0.003231
    94  H    0.001091
    95  H   -0.004047
    96  H   -0.008731
    97  H    0.012265
    98  H    0.004317
    99  H    0.014365
   100  H    0.010881
   101  H    0.014254
   102  H    0.000431
   103  H   -0.011712
   104  H   -0.034951
   105  H    0.015512
   106  H   -0.012257
   107  H   -0.011839
   108  H   -0.009262
   109  H   -0.049493
   110  H   -0.021303
   111  H   -0.021381
   112  H   -0.039307
   113  H   -0.033020
   114  H   -0.035711
   115  H   -0.022908
   116  H   -0.021820
   117  H   -0.025270
   118  H   -0.030183
   119  H   -0.036096
   120  H   -0.041098
   121  H   -0.039292
   122  H   -0.027025
   123  H   -0.034691
   124  H   -0.044037
   125  H   -0.025974
   126  H   -0.015965
   127  H   -0.028777
   128  H   -0.040888
   129  H   -0.050824
   130  H   -0.025300
   131  H   -0.035006
   132  H   -0.033198
   133  H   -0.023207
   134  H   -0.031723
   135  H   -0.017590
   136  H   -0.031370
   137  H   -0.020946
   138  H   -0.013324
   139  H   -0.011636
   140  H   -0.018786
 Sum of Mulliken charges =  -0.00000

 Dipole moment (field-independent basis, Debye):
    X=              4.4525    Y=              1.8027    Z=             -4.0860  Tot=              6.3064
 Quadrupole moment (field-independent basis, Debye-Ang):
   XX=           -381.1392   YY=           -437.6549   ZZ=           -412.3240
   XY=            -23.4503   XZ=              7.6089   YZ=             22.5688

 Normal termination of Gaussian 16 at Fri Apr 29 19:08:12 2022.
