 Gaussian 16, Revision A.03,
 Gaussian 16:  ES64L-G16RevA.03 25-Dec-2016

 -----------------------------------
 #p cam-b3lyp/Def2SVP td=(nstates=5)
 -----------------------------------

 ------------------------------------------------------
 step_401_chromophore_9 TDDFT with cam-b3lyp functional
 ------------------------------------------------------
 Symbolic Z-matrix:
 Charge =  0 Multiplicity = 1

                         Standard orientation:
 ---------------------------------------------------------------------
 Center     Atomic      Atomic             Coordinates (Angstroms)
 Number     Number       Type             X           Y           Z
 ---------------------------------------------------------------------
      1         12           0       -4.692217    0.975130    0.065353
      2          6           0       -4.055824   -2.439769    0.591218
      3          6           0       -1.312330    1.502116   -0.233200
      4          6           0       -5.425230    4.229103   -0.196516
      5          6           0       -8.231051    0.256802    0.439835
      6          7           0       -2.895598   -0.342365    0.274296
      7          6           0       -2.878463   -1.709782    0.218372
      8          6           0       -1.548639   -2.273395   -0.325924
      9          6           0       -0.634988   -1.063398   -0.306569
     10          6           0       -1.627790    0.124218   -0.029125
     11          6           0        0.627407   -1.126189    0.534324
     12          6           0       -1.639250   -2.921825   -1.740720
     13          6           0       -0.603033   -4.118450   -2.036790
     14          6           0        0.613419   -4.298831   -1.109359
     15          8           0        0.633431   -4.985495   -0.103184
     16          8           0        1.648509   -3.542285   -1.498744
     17          7           0       -3.490918    2.674472   -0.215987
     18          6           0       -2.139508    2.657821   -0.388591
     19          6           0       -1.772748    4.010347   -0.552785
     20          6           0       -2.904951    4.827324   -0.539370
     21          6           0       -4.017401    3.966817   -0.292739
     22          6           0       -0.288089    4.443672   -0.710906
     23          6           0       -3.016962    6.277468   -0.671650
     24          8           0       -4.105387    6.804150   -0.899611
     25          6           0       -1.817832    7.170865   -0.742614
     26          7           0       -6.552486    2.089577    0.156107
     27          6           0       -6.541616    3.456541    0.053483
     28          6           0       -7.954675    4.010935    0.182726
     29          6           0       -8.887353    2.754800    0.222357
     30          6           0       -7.888942    1.612502    0.271732
     31          6           0       -8.145936    4.890637    1.521372
     32          6           0       -9.886837    2.572672   -0.922251
     33          6           0       -9.274937    1.968203   -2.116451
     34          7           0       -6.009861   -0.690440    0.500486
     35          6           0       -7.372516   -0.804446    0.644047
     36          6           0       -7.621471   -2.197356    0.883160
     37          6           0       -6.392709   -2.860026    0.899051
     38          6           0       -5.387174   -1.886697    0.675597
     39          6           0       -9.042974   -2.762335    1.009129
     40          6           0       -5.738345   -4.208108    0.956808
     41          8           0       -6.229849   -5.289992    1.184447
     42          6           0       -4.186374   -3.926827    0.646763
     43          6           0       -3.268153   -4.659699    1.632239
     44          8           0       -3.365811   -4.707004    2.839730
     45          8           0       -2.403127   -5.458494    0.920894
     46          6           0       -1.641369   -6.475627    1.587525
     47          6           0        2.755869   -3.606848   -0.571890
     48          6           0        3.790929   -2.596429   -1.040183
     49          6           0        4.983457   -2.787370   -1.639917
     50          6           0        5.599921   -4.137117   -2.055938
     51          6           0        5.988372   -1.679881   -1.844669
     52          6           0        6.691050   -1.519306   -3.212172
     53          6           0        8.185494   -1.164938   -3.093458
     54          6           0        8.489732    0.267490   -3.538841
     55          6           0        8.495107    0.328277   -5.104063
     56          6           0        9.831851    0.772229   -3.087528
     57          6           0        9.691142    1.536422   -1.767488
     58          6           0       10.824982    1.151454   -0.780958
     59          6           0       10.903859    2.116519    0.372461
     60          6           0       11.544596    3.455056   -0.143997
     61          6           0       11.628139    1.603732    1.612801
     62          6           0       10.682877    0.833328    2.537026
     63          6           0        9.873433    1.767038    3.603719
     64          6           0        9.895025    1.082961    4.991639
     65          6           0        8.723485    1.533290    5.796525
     66          6           0       11.219537    1.494590    5.737520
     67          1           0       -0.273484    1.664729   -0.529145
     68          1           0       -5.711527    5.283682   -0.212220
     69          1           0       -9.294204    0.025912    0.524343
     70          1           0       -1.197539   -2.982823    0.423480
     71          1           0       -0.314636   -0.849719   -1.326399
     72          1           0        1.549042   -0.837241    0.027915
     73          1           0        0.687394   -2.124485    0.967331
     74          1           0        0.744725   -0.423717    1.358999
     75          1           0       -1.449810   -2.164614   -2.501866
     76          1           0       -2.610949   -3.396497   -1.876766
     77          1           0       -0.207646   -3.827351   -3.009528
     78          1           0       -1.180372   -5.017421   -2.251853
     79          1           0        0.049267    4.774366   -1.693585
     80          1           0        0.357935    3.613311   -0.423722
     81          1           0       -0.198356    5.257462    0.009474
     82          1           0       -1.118909    6.990766    0.074096
     83          1           0       -2.124048    8.214653   -0.813380
     84          1           0       -1.329925    6.924212   -1.685555
     85          1           0       -8.244989    4.664854   -0.639737
     86          1           0       -9.480626    2.724236    1.136749
     87          1           0       -8.253197    5.974441    1.499902
     88          1           0       -7.237224    4.783241    2.115111
     89          1           0       -8.982948    4.464286    2.074057
     90          1           0      -10.419012    3.517595   -1.031852
     91          1           0      -10.603212    1.849480   -0.532508
     92          1           0       -9.459212    2.712664   -2.889682
     93          1           0       -9.657594    0.973701   -2.342575
     94          1           0       -8.188469    2.050865   -2.069271
     95          1           0       -9.650644   -2.545110    0.130101
     96          1           0       -9.526379   -2.187996    1.799377
     97          1           0       -9.028824   -3.819422    1.274660
     98          1           0       -4.045381   -4.473259   -0.285410
     99          1           0       -1.152529   -7.213810    0.951535
    100          1           0       -2.432895   -6.951339    2.166065
    101          1           0       -0.867927   -5.944821    2.141908
    102          1           0        3.238239   -4.580567   -0.484722
    103          1           0        2.452897   -3.135231    0.362949
    104          1           0        3.587243   -1.591393   -0.671045
    105          1           0        5.439495   -4.320319   -3.118573
    106          1           0        5.195126   -4.881033   -1.369287
    107          1           0        6.677514   -4.215673   -1.912803
    108          1           0        6.623240   -1.662623   -0.958013
    109          1           0        5.426761   -0.761818   -1.669714
    110          1           0        6.251934   -0.631702   -3.667605
    111          1           0        6.624410   -2.357788   -3.906882
    112          1           0        8.742445   -1.806744   -3.776281
    113          1           0        8.542818   -1.398332   -2.090151
    114          1           0        7.667002    0.943080   -3.306813
    115          1           0        8.324923   -0.659200   -5.532850
    116          1           0        9.398439    0.757271   -5.536620
    117          1           0        7.735542    1.001780   -5.499977
    118          1           0       10.320710    1.456479   -3.780982
    119          1           0       10.497267   -0.081302   -2.950906
    120          1           0        8.771793    1.395620   -1.199205
    121          1           0        9.571793    2.591957   -2.014781
    122          1           0       11.793340    1.126339   -1.280861
    123          1           0       10.554420    0.120523   -0.555511
    124          1           0        9.952809    2.501204    0.740537
    125          1           0       12.001960    4.009305    0.675886
    126          1           0       10.856935    4.126671   -0.657449
    127          1           0       12.344290    3.292169   -0.865865
    128          1           0       12.094278    2.341920    2.265261
    129          1           0       12.457640    0.984135    1.270731
    130          1           0       11.263801    0.049176    3.022826
    131          1           0        9.899672    0.354135    1.949255
    132          1           0        8.842680    1.772317    3.246674
    133          1           0       10.274055    2.778528    3.671509
    134          1           0        9.847013   -0.001512    4.890685
    135          1           0        8.353272    2.543937    5.625315
    136          1           0        8.934269    1.538692    6.865888
    137          1           0        7.942900    0.793676    5.615457
    138          1           0       11.992785    1.707461    4.997893
    139          1           0       11.504759    0.711754    6.439582
    140          1           0       11.014877    2.391505    6.320981
 ---------------------------------------------------------------------

 SCF Done:  E(RCAM-B3LYP) =  -3007.19809393     A.U. after   19 cycles

 Excitation energies and oscillator strengths:

 Excited State   1:      Singlet-A      1.7065 eV  726.52 nm  f=0.3605  <S**2>=0.000
     245 -> 248        0.19010
     246 -> 247        0.68390
     245 <- 248        0.11206
 This state for optimization and/or second-order correction.
 Total Energy, E(TD-HF/TD-DFT) =  -3007.13537955
 Copying the excited state density for this state as the 1-particle RhoCI density.

 Excited State   2:      Singlet-A      2.1752 eV  569.99 nm  f=0.1225  <S**2>=0.000
     245 -> 247        0.64551
     246 -> 248       -0.27776

 Excited State   3:      Singlet-A      3.2321 eV  383.60 nm  f=0.0006  <S**2>=0.000
     243 -> 247        0.17087
     244 -> 247        0.67190

 Excited State   4:      Singlet-A      3.4231 eV  362.20 nm  f=0.0593  <S**2>=0.000
     243 -> 247        0.56712
     244 -> 247       -0.16634
     246 -> 248        0.33829

 Excited State   5:      Singlet-A      3.5183 eV  352.40 nm  f=0.0007  <S**2>=0.000
     239 -> 247        0.14784
     240 -> 247       -0.22449
     240 -> 249       -0.10195
     241 -> 247        0.53018
     241 -> 249        0.23534
     241 -> 250       -0.14097
     243 -> 247        0.12651

 The electronic state is 1-A.
 Alpha  occ. eigenvalues --  -46.89380 -19.26444 -19.23552 -19.20381 -19.19643
 Alpha  occ. eigenvalues --  -19.19160 -19.17807 -14.42832 -14.41919 -14.39173
 Alpha  occ. eigenvalues --  -14.38991 -10.40089 -10.38833 -10.35632 -10.34011
 Alpha  occ. eigenvalues --  -10.32546 -10.32039 -10.31684 -10.31323 -10.30399
 Alpha  occ. eigenvalues --  -10.30216 -10.30035 -10.29481 -10.29453 -10.29420
 Alpha  occ. eigenvalues --  -10.28878 -10.28809 -10.28654 -10.28528 -10.28394
 Alpha  occ. eigenvalues --  -10.28211 -10.28207 -10.28014 -10.27914 -10.27711
 Alpha  occ. eigenvalues --  -10.27682 -10.27208 -10.27074 -10.26851 -10.26548
 Alpha  occ. eigenvalues --  -10.26420 -10.26274 -10.26240 -10.26162 -10.26061
 Alpha  occ. eigenvalues --  -10.26040 -10.25867 -10.25865 -10.25802 -10.25732
 Alpha  occ. eigenvalues --  -10.25643 -10.25531 -10.25513 -10.25424 -10.25410
 Alpha  occ. eigenvalues --  -10.25327 -10.25104 -10.25053 -10.24762 -10.24749
 Alpha  occ. eigenvalues --  -10.24642 -10.24514 -10.24469 -10.24440 -10.24246
 Alpha  occ. eigenvalues --  -10.24001  -3.17626  -1.92558  -1.92091  -1.91897
 Alpha  occ. eigenvalues --   -1.18854  -1.15641  -1.10641  -1.09178  -1.08876
 Alpha  occ. eigenvalues --   -1.07232  -1.03914  -1.03089  -1.02687  -1.01638
 Alpha  occ. eigenvalues --   -0.92210  -0.91399  -0.90457  -0.90150  -0.89751
 Alpha  occ. eigenvalues --   -0.89356  -0.88127  -0.87535  -0.87121  -0.86587
 Alpha  occ. eigenvalues --   -0.86198  -0.85731  -0.84836  -0.83641  -0.83461
 Alpha  occ. eigenvalues --   -0.82662  -0.81767  -0.81239  -0.80817  -0.80261
 Alpha  occ. eigenvalues --   -0.79715  -0.78632  -0.77912  -0.76948  -0.76726
 Alpha  occ. eigenvalues --   -0.75718  -0.75284  -0.74870  -0.74745  -0.74451
 Alpha  occ. eigenvalues --   -0.74037  -0.72863  -0.71690  -0.71020  -0.69960
 Alpha  occ. eigenvalues --   -0.68926  -0.68534  -0.67360  -0.67074  -0.66018
 Alpha  occ. eigenvalues --   -0.65803  -0.64900  -0.64511  -0.64457  -0.64259
 Alpha  occ. eigenvalues --   -0.63840  -0.63379  -0.62824  -0.61350  -0.61079
 Alpha  occ. eigenvalues --   -0.59767  -0.59696  -0.59030  -0.58655  -0.57983
 Alpha  occ. eigenvalues --   -0.57408  -0.57122  -0.56705  -0.55884  -0.55591
 Alpha  occ. eigenvalues --   -0.55432  -0.55316  -0.55169  -0.54810  -0.54631
 Alpha  occ. eigenvalues --   -0.54346  -0.53843  -0.53723  -0.53375  -0.53134
 Alpha  occ. eigenvalues --   -0.52767  -0.52694  -0.52441  -0.52428  -0.52192
 Alpha  occ. eigenvalues --   -0.51910  -0.51834  -0.51398  -0.51171  -0.50720
 Alpha  occ. eigenvalues --   -0.50609  -0.50239  -0.49751  -0.49670  -0.49410
 Alpha  occ. eigenvalues --   -0.49254  -0.49043  -0.48880  -0.48860  -0.48696
 Alpha  occ. eigenvalues --   -0.48458  -0.48362  -0.48276  -0.47915  -0.47818
 Alpha  occ. eigenvalues --   -0.47607  -0.47310  -0.47222  -0.46789  -0.46664
 Alpha  occ. eigenvalues --   -0.46454  -0.46216  -0.46159  -0.46051  -0.45853
 Alpha  occ. eigenvalues --   -0.45664  -0.45551  -0.45450  -0.45244  -0.45143
 Alpha  occ. eigenvalues --   -0.44952  -0.44698  -0.44462  -0.44168  -0.44093
 Alpha  occ. eigenvalues --   -0.43902  -0.43853  -0.43337  -0.43167  -0.43102
 Alpha  occ. eigenvalues --   -0.42858  -0.42835  -0.42682  -0.42302  -0.41994
 Alpha  occ. eigenvalues --   -0.41794  -0.41488  -0.41468  -0.41296  -0.41031
 Alpha  occ. eigenvalues --   -0.40659  -0.40568  -0.40502  -0.40355  -0.40292
 Alpha  occ. eigenvalues --   -0.39828  -0.39561  -0.39472  -0.39016  -0.38807
 Alpha  occ. eigenvalues --   -0.38621  -0.38233  -0.38034  -0.37908  -0.37827
 Alpha  occ. eigenvalues --   -0.37425  -0.37169  -0.36865  -0.36814  -0.36552
 Alpha  occ. eigenvalues --   -0.36140  -0.35692  -0.35493  -0.34928  -0.34535
 Alpha  occ. eigenvalues --   -0.34108  -0.33955  -0.33032  -0.31237  -0.31131
 Alpha  occ. eigenvalues --   -0.30777  -0.30408  -0.29897  -0.29437  -0.23954
 Alpha  occ. eigenvalues --   -0.21444
 Alpha virt. eigenvalues --   -0.08895  -0.01906   0.00688   0.02442   0.03131
 Alpha virt. eigenvalues --    0.03976   0.04589   0.05220   0.05628   0.06400
 Alpha virt. eigenvalues --    0.07628   0.08011   0.08361   0.08610   0.09103

 Mulliken charges:
               1
     1  Mg   0.785960
     2  C    0.000242
     3  C   -0.067419
     4  C   -0.018236
     5  C   -0.065879
     6  N   -0.285477
     7  C   -0.036891
     8  C   -0.013086
     9  C   -0.041902
    10  C    0.040833
    11  C    0.064336
    12  C    0.072837
    13  C    0.074210
    14  C    0.149705
    15  O   -0.241953
    16  O   -0.295963
    17  N   -0.397828
    18  C    0.132169
    19  C   -0.154942
    20  C    0.041553
    21  C    0.105890
    22  C    0.110840
    23  C   -0.046504
    24  O   -0.225013
    25  C    0.065296
    26  N   -0.306714
    27  C    0.038251
    28  C   -0.027863
    29  C   -0.005430
    30  C    0.010153
    31  C    0.041926
    32  C    0.013335
    33  C    0.042808
    34  N   -0.341182
    35  C    0.124310
    36  C   -0.182350
    37  C   -0.038495
    38  C    0.133128
    39  C    0.121378
    40  C    0.094232
    41  O   -0.137862
    42  C   -0.064344
    43  C    0.183509
    44  O   -0.196359
    45  O   -0.350106
    46  C    0.190884
    47  C    0.299164
    48  C   -0.141312
    49  C   -0.165838
    50  C    0.076339
    51  C    0.073879
    52  C    0.032027
    53  C    0.042648
    54  C   -0.150755
    55  C    0.034027
    56  C    0.108022
    57  C   -0.017761
    58  C    0.059806
    59  C   -0.109285
    60  C    0.025075
    61  C    0.080648
    62  C   -0.002069
    63  C    0.033792
    64  C   -0.152099
    65  C    0.054537
    66  C    0.039142
    67  H   -0.027317
    68  H   -0.006370
    69  H   -0.033135
    70  H    0.031513
    71  H    0.014448
    72  H    0.003924
    73  H    0.036327
    74  H    0.010987
    75  H    0.019098
    76  H    0.020033
    77  H    0.013334
    78  H    0.033426
    79  H    0.034507
    80  H    0.005242
    81  H    0.015051
    82  H    0.029238
    83  H    0.025835
    84  H    0.032632
    85  H    0.017225
    86  H    0.006679
    87  H    0.024771
    88  H    0.018186
    89  H    0.010353
    90  H    0.012694
    91  H   -0.001897
    92  H    0.002543
    93  H    0.027843
    94  H    0.024767
    95  H    0.021984
    96  H    0.016803
    97  H    0.040372
    98  H    0.045768
    99  H    0.037685
   100  H    0.034268
   101  H    0.036732
   102  H    0.029243
   103  H    0.016785
   104  H   -0.007880
   105  H    0.039559
   106  H    0.010993
   107  H    0.014057
   108  H    0.019511
   109  H   -0.018056
   110  H    0.007792
   111  H    0.007079
   112  H   -0.008824
   113  H   -0.006337
   114  H   -0.004242
   115  H    0.000708
   116  H    0.003568
   117  H   -0.000382
   118  H    0.000555
   119  H   -0.006689
   120  H   -0.013450
   121  H   -0.011115
   122  H    0.000230
   123  H   -0.007831
   124  H   -0.012570
   125  H   -0.000687
   126  H    0.007875
   127  H   -0.005182
   128  H   -0.013105
   129  H   -0.019917
   130  H    0.002744
   131  H   -0.007991
   132  H   -0.003614
   133  H    0.003627
   134  H   -0.000039
   135  H    0.007301
   136  H   -0.004919
   137  H    0.004079
   138  H    0.007628
   139  H    0.012796
   140  H    0.005174
 Sum of Mulliken charges =  -0.00000

 Dipole moment (field-independent basis, Debye):
    X=              4.5707    Y=              1.8469    Z=             -4.2431  Tot=              6.5043
 Quadrupole moment (field-independent basis, Debye-Ang):
   XX=           -377.5082   YY=           -435.0421   ZZ=           -412.6911
   XY=            -22.1667   XZ=              7.3401   YZ=             23.4275

 Normal termination of Gaussian 16 at Fri Apr 29 18:09:35 2022.
