 Gaussian 16, Revision A.03,
 Gaussian 16:  ES64L-G16RevA.03 25-Dec-2016

 ---------------------------------
 #p PBE1PBE/Def2SVP td=(nstates=5)
 ---------------------------------

 ----------------------------------------------------
 step_401_chromophore_9 TDDFT with PBE1PBE functional
 ----------------------------------------------------
 Symbolic Z-matrix:
 Charge =  0 Multiplicity = 1

                         Standard orientation:
 ---------------------------------------------------------------------
 Center     Atomic      Atomic             Coordinates (Angstroms)
 Number     Number       Type             X           Y           Z
 ---------------------------------------------------------------------
      1         12           0       -4.692217    0.975130    0.065353
      2          6           0       -4.055824   -2.439769    0.591218
      3          6           0       -1.312330    1.502116   -0.233200
      4          6           0       -5.425230    4.229103   -0.196516
      5          6           0       -8.231051    0.256802    0.439835
      6          7           0       -2.895598   -0.342365    0.274296
      7          6           0       -2.878463   -1.709782    0.218372
      8          6           0       -1.548639   -2.273395   -0.325924
      9          6           0       -0.634988   -1.063398   -0.306569
     10          6           0       -1.627790    0.124218   -0.029125
     11          6           0        0.627407   -1.126189    0.534324
     12          6           0       -1.639250   -2.921825   -1.740720
     13          6           0       -0.603033   -4.118450   -2.036790
     14          6           0        0.613419   -4.298831   -1.109359
     15          8           0        0.633431   -4.985495   -0.103184
     16          8           0        1.648509   -3.542285   -1.498744
     17          7           0       -3.490918    2.674472   -0.215987
     18          6           0       -2.139508    2.657821   -0.388591
     19          6           0       -1.772748    4.010347   -0.552785
     20          6           0       -2.904951    4.827324   -0.539370
     21          6           0       -4.017401    3.966817   -0.292739
     22          6           0       -0.288089    4.443672   -0.710906
     23          6           0       -3.016962    6.277468   -0.671650
     24          8           0       -4.105387    6.804150   -0.899611
     25          6           0       -1.817832    7.170865   -0.742614
     26          7           0       -6.552486    2.089577    0.156107
     27          6           0       -6.541616    3.456541    0.053483
     28          6           0       -7.954675    4.010935    0.182726
     29          6           0       -8.887353    2.754800    0.222357
     30          6           0       -7.888942    1.612502    0.271732
     31          6           0       -8.145936    4.890637    1.521372
     32          6           0       -9.886837    2.572672   -0.922251
     33          6           0       -9.274937    1.968203   -2.116451
     34          7           0       -6.009861   -0.690440    0.500486
     35          6           0       -7.372516   -0.804446    0.644047
     36          6           0       -7.621471   -2.197356    0.883160
     37          6           0       -6.392709   -2.860026    0.899051
     38          6           0       -5.387174   -1.886697    0.675597
     39          6           0       -9.042974   -2.762335    1.009129
     40          6           0       -5.738345   -4.208108    0.956808
     41          8           0       -6.229849   -5.289992    1.184447
     42          6           0       -4.186374   -3.926827    0.646763
     43          6           0       -3.268153   -4.659699    1.632239
     44          8           0       -3.365811   -4.707004    2.839730
     45          8           0       -2.403127   -5.458494    0.920894
     46          6           0       -1.641369   -6.475627    1.587525
     47          6           0        2.755869   -3.606848   -0.571890
     48          6           0        3.790929   -2.596429   -1.040183
     49          6           0        4.983457   -2.787370   -1.639917
     50          6           0        5.599921   -4.137117   -2.055938
     51          6           0        5.988372   -1.679881   -1.844669
     52          6           0        6.691050   -1.519306   -3.212172
     53          6           0        8.185494   -1.164938   -3.093458
     54          6           0        8.489732    0.267490   -3.538841
     55          6           0        8.495107    0.328277   -5.104063
     56          6           0        9.831851    0.772229   -3.087528
     57          6           0        9.691142    1.536422   -1.767488
     58          6           0       10.824982    1.151454   -0.780958
     59          6           0       10.903859    2.116519    0.372461
     60          6           0       11.544596    3.455056   -0.143997
     61          6           0       11.628139    1.603732    1.612801
     62          6           0       10.682877    0.833328    2.537026
     63          6           0        9.873433    1.767038    3.603719
     64          6           0        9.895025    1.082961    4.991639
     65          6           0        8.723485    1.533290    5.796525
     66          6           0       11.219537    1.494590    5.737520
     67          1           0       -0.273484    1.664729   -0.529145
     68          1           0       -5.711527    5.283682   -0.212220
     69          1           0       -9.294204    0.025912    0.524343
     70          1           0       -1.197539   -2.982823    0.423480
     71          1           0       -0.314636   -0.849719   -1.326399
     72          1           0        1.549042   -0.837241    0.027915
     73          1           0        0.687394   -2.124485    0.967331
     74          1           0        0.744725   -0.423717    1.358999
     75          1           0       -1.449810   -2.164614   -2.501866
     76          1           0       -2.610949   -3.396497   -1.876766
     77          1           0       -0.207646   -3.827351   -3.009528
     78          1           0       -1.180372   -5.017421   -2.251853
     79          1           0        0.049267    4.774366   -1.693585
     80          1           0        0.357935    3.613311   -0.423722
     81          1           0       -0.198356    5.257462    0.009474
     82          1           0       -1.118909    6.990766    0.074096
     83          1           0       -2.124048    8.214653   -0.813380
     84          1           0       -1.329925    6.924212   -1.685555
     85          1           0       -8.244989    4.664854   -0.639737
     86          1           0       -9.480626    2.724236    1.136749
     87          1           0       -8.253197    5.974441    1.499902
     88          1           0       -7.237224    4.783241    2.115111
     89          1           0       -8.982948    4.464286    2.074057
     90          1           0      -10.419012    3.517595   -1.031852
     91          1           0      -10.603212    1.849480   -0.532508
     92          1           0       -9.459212    2.712664   -2.889682
     93          1           0       -9.657594    0.973701   -2.342575
     94          1           0       -8.188469    2.050865   -2.069271
     95          1           0       -9.650644   -2.545110    0.130101
     96          1           0       -9.526379   -2.187996    1.799377
     97          1           0       -9.028824   -3.819422    1.274660
     98          1           0       -4.045381   -4.473259   -0.285410
     99          1           0       -1.152529   -7.213810    0.951535
    100          1           0       -2.432895   -6.951339    2.166065
    101          1           0       -0.867927   -5.944821    2.141908
    102          1           0        3.238239   -4.580567   -0.484722
    103          1           0        2.452897   -3.135231    0.362949
    104          1           0        3.587243   -1.591393   -0.671045
    105          1           0        5.439495   -4.320319   -3.118573
    106          1           0        5.195126   -4.881033   -1.369287
    107          1           0        6.677514   -4.215673   -1.912803
    108          1           0        6.623240   -1.662623   -0.958013
    109          1           0        5.426761   -0.761818   -1.669714
    110          1           0        6.251934   -0.631702   -3.667605
    111          1           0        6.624410   -2.357788   -3.906882
    112          1           0        8.742445   -1.806744   -3.776281
    113          1           0        8.542818   -1.398332   -2.090151
    114          1           0        7.667002    0.943080   -3.306813
    115          1           0        8.324923   -0.659200   -5.532850
    116          1           0        9.398439    0.757271   -5.536620
    117          1           0        7.735542    1.001780   -5.499977
    118          1           0       10.320710    1.456479   -3.780982
    119          1           0       10.497267   -0.081302   -2.950906
    120          1           0        8.771793    1.395620   -1.199205
    121          1           0        9.571793    2.591957   -2.014781
    122          1           0       11.793340    1.126339   -1.280861
    123          1           0       10.554420    0.120523   -0.555511
    124          1           0        9.952809    2.501204    0.740537
    125          1           0       12.001960    4.009305    0.675886
    126          1           0       10.856935    4.126671   -0.657449
    127          1           0       12.344290    3.292169   -0.865865
    128          1           0       12.094278    2.341920    2.265261
    129          1           0       12.457640    0.984135    1.270731
    130          1           0       11.263801    0.049176    3.022826
    131          1           0        9.899672    0.354135    1.949255
    132          1           0        8.842680    1.772317    3.246674
    133          1           0       10.274055    2.778528    3.671509
    134          1           0        9.847013   -0.001512    4.890685
    135          1           0        8.353272    2.543937    5.625315
    136          1           0        8.934269    1.538692    6.865888
    137          1           0        7.942900    0.793676    5.615457
    138          1           0       11.992785    1.707461    4.997893
    139          1           0       11.504759    0.711754    6.439582
    140          1           0       11.014877    2.391505    6.320981
 ---------------------------------------------------------------------

 SCF Done:  E(RPBE1PBE) =  -3005.38548257     A.U. after   15 cycles

 Excitation energies and oscillator strengths:

 Excited State   1:      Singlet-A      1.8697 eV  663.11 nm  f=0.3486  <S**2>=0.000
     245 -> 248        0.18489
     246 -> 247        0.69015
     246 <- 247       -0.10266
 This state for optimization and/or second-order correction.
 Total Energy, E(TD-HF/TD-DFT) =  -3005.31677142
 Copying the excited state density for this state as the 1-particle RhoCI density.

 Excited State   2:      Singlet-A      2.1897 eV  566.21 nm  f=0.1149  <S**2>=0.000
     245 -> 247        0.65449
     246 -> 248       -0.25559

 Excited State   3:      Singlet-A      2.8959 eV  428.14 nm  f=0.0008  <S**2>=0.000
     241 -> 247        0.11357
     244 -> 247        0.68439

 Excited State   4:      Singlet-A      2.9584 eV  419.10 nm  f=0.0004  <S**2>=0.000
     241 -> 247       -0.12417
     243 -> 247        0.65893
     243 -> 249       -0.10652

 Excited State   5:      Singlet-A      3.0279 eV  409.48 nm  f=0.0010  <S**2>=0.000
     241 -> 247        0.62879
     241 -> 249        0.11933
     242 -> 247        0.21462
     243 -> 247        0.10521
     244 -> 247       -0.12465

 The electronic state is 1-A.
 Alpha  occ. eigenvalues --  -46.92752 -19.27071 -19.24187 -19.20636 -19.19745
 Alpha  occ. eigenvalues --  -19.19325 -19.18134 -14.42336 -14.41455 -14.38917
 Alpha  occ. eigenvalues --  -14.38605 -10.37103 -10.35812 -10.32716 -10.31212
 Alpha  occ. eigenvalues --  -10.29952 -10.29673 -10.29508 -10.29027 -10.28191
 Alpha  occ. eigenvalues --  -10.27862 -10.27408 -10.27245 -10.27027 -10.27013
 Alpha  occ. eigenvalues --  -10.26661 -10.26431 -10.26416 -10.26196 -10.26087
 Alpha  occ. eigenvalues --  -10.25884 -10.25773 -10.25709 -10.25567 -10.25537
 Alpha  occ. eigenvalues --  -10.25378 -10.25023 -10.24631 -10.24377 -10.23953
 Alpha  occ. eigenvalues --  -10.23906 -10.23860 -10.23831 -10.23751 -10.23736
 Alpha  occ. eigenvalues --  -10.23673 -10.23519 -10.23451 -10.23407 -10.23283
 Alpha  occ. eigenvalues --  -10.23191 -10.23186 -10.23012 -10.23005 -10.22982
 Alpha  occ. eigenvalues --  -10.22911 -10.22652 -10.22615 -10.22315 -10.22305
 Alpha  occ. eigenvalues --  -10.22027 -10.21976 -10.21909 -10.21907 -10.21664
 Alpha  occ. eigenvalues --  -10.21373  -3.14590  -1.87462  -1.86973  -1.86782
 Alpha  occ. eigenvalues --   -1.13660  -1.10383  -1.05301  -1.03990  -1.03717
 Alpha  occ. eigenvalues --   -1.02028  -0.98481  -0.97700  -0.97407  -0.96234
 Alpha  occ. eigenvalues --   -0.86467  -0.85524  -0.84620  -0.84339  -0.84022
 Alpha  occ. eigenvalues --   -0.83474  -0.82236  -0.81889  -0.81423  -0.80935
 Alpha  occ. eigenvalues --   -0.80446  -0.79972  -0.79025  -0.77923  -0.77718
 Alpha  occ. eigenvalues --   -0.76921  -0.76030  -0.75458  -0.75087  -0.74586
 Alpha  occ. eigenvalues --   -0.73869  -0.72876  -0.72234  -0.71260  -0.70883
 Alpha  occ. eigenvalues --   -0.70036  -0.69365  -0.69200  -0.68876  -0.68603
 Alpha  occ. eigenvalues --   -0.68352  -0.67291  -0.66078  -0.65358  -0.64285
 Alpha  occ. eigenvalues --   -0.63235  -0.62887  -0.61878  -0.61337  -0.60472
 Alpha  occ. eigenvalues --   -0.59974  -0.59424  -0.59036  -0.58842  -0.58587
 Alpha  occ. eigenvalues --   -0.58318  -0.57546  -0.56986  -0.55882  -0.55405
 Alpha  occ. eigenvalues --   -0.54308  -0.54269  -0.53644  -0.53293  -0.52346
 Alpha  occ. eigenvalues --   -0.51938  -0.51604  -0.51198  -0.50423  -0.50214
 Alpha  occ. eigenvalues --   -0.49926  -0.49800  -0.49522  -0.49319  -0.49099
 Alpha  occ. eigenvalues --   -0.48849  -0.48305  -0.48248  -0.47893  -0.47559
 Alpha  occ. eigenvalues --   -0.47351  -0.47287  -0.46936  -0.46919  -0.46794
 Alpha  occ. eigenvalues --   -0.46538  -0.46328  -0.46032  -0.45729  -0.45216
 Alpha  occ. eigenvalues --   -0.45054  -0.44860  -0.44318  -0.44275  -0.43951
 Alpha  occ. eigenvalues --   -0.43899  -0.43621  -0.43490  -0.43413  -0.43327
 Alpha  occ. eigenvalues --   -0.43088  -0.43003  -0.42920  -0.42572  -0.42422
 Alpha  occ. eigenvalues --   -0.42304  -0.41952  -0.41868  -0.41458  -0.41372
 Alpha  occ. eigenvalues --   -0.41149  -0.40878  -0.40839  -0.40709  -0.40545
 Alpha  occ. eigenvalues --   -0.40405  -0.40180  -0.40113  -0.39980  -0.39873
 Alpha  occ. eigenvalues --   -0.39710  -0.39281  -0.39175  -0.38957  -0.38772
 Alpha  occ. eigenvalues --   -0.38637  -0.38610  -0.38123  -0.37936  -0.37872
 Alpha  occ. eigenvalues --   -0.37670  -0.37651  -0.37392  -0.37289  -0.36713
 Alpha  occ. eigenvalues --   -0.36649  -0.36413  -0.36266  -0.36167  -0.35967
 Alpha  occ. eigenvalues --   -0.35389  -0.35364  -0.35243  -0.35234  -0.35144
 Alpha  occ. eigenvalues --   -0.34574  -0.34494  -0.34212  -0.33755  -0.33745
 Alpha  occ. eigenvalues --   -0.33483  -0.33104  -0.32839  -0.32791  -0.32659
 Alpha  occ. eigenvalues --   -0.32431  -0.32040  -0.31874  -0.31700  -0.31590
 Alpha  occ. eigenvalues --   -0.31000  -0.30630  -0.30370  -0.29718  -0.29513
 Alpha  occ. eigenvalues --   -0.29265  -0.29154  -0.28291  -0.26743  -0.26472
 Alpha  occ. eigenvalues --   -0.25720  -0.25594  -0.25199  -0.24972  -0.20902
 Alpha  occ. eigenvalues --   -0.19052
 Alpha virt. eigenvalues --   -0.11323  -0.05373  -0.03569  -0.02012  -0.00594
 Alpha virt. eigenvalues --    0.00043   0.00123   0.00984   0.01252   0.02689
 Alpha virt. eigenvalues --    0.03647   0.04263   0.04942   0.05078   0.05446

 Mulliken charges:
               1
     1  Mg   0.931165
     2  C    0.006636
     3  C   -0.066417
     4  C   -0.014933
     5  C   -0.057158
     6  N   -0.382058
     7  C    0.034368
     8  C   -0.094270
     9  C   -0.113243
    10  C    0.081452
    11  C    0.004869
    12  C    0.022902
    13  C    0.007251
    14  C    0.207734
    15  O   -0.273861
    16  O   -0.325136
    17  N   -0.514139
    18  C    0.169143
    19  C   -0.187520
    20  C   -0.025699
    21  C    0.150131
    22  C    0.053636
    23  C    0.009326
    24  O   -0.259828
    25  C   -0.009691
    26  N   -0.404661
    27  C    0.068643
    28  C   -0.104980
    29  C   -0.074560
    30  C    0.037416
    31  C   -0.011641
    32  C   -0.048047
    33  C   -0.032765
    34  N   -0.465399
    35  C    0.150513
    36  C   -0.206915
    37  C   -0.093443
    38  C    0.170809
    39  C    0.067220
    40  C    0.198891
    41  O   -0.185675
    42  C   -0.177658
    43  C    0.274360
    44  O   -0.232957
    45  O   -0.382980
    46  C    0.139394
    47  C    0.248872
    48  C   -0.159686
    49  C   -0.197099
    50  C    0.014906
    51  C    0.011062
    52  C   -0.033566
    53  C   -0.010082
    54  C   -0.242702
    55  C   -0.020462
    56  C    0.050494
    57  C   -0.069761
    58  C    0.000045
    59  C   -0.204548
    60  C   -0.028939
    61  C    0.028186
    62  C   -0.064730
    63  C   -0.020958
    64  C   -0.244965
    65  C   -0.006032
    66  C   -0.023995
    67  H    0.004963
    68  H    0.025920
    69  H   -0.002270
    70  H    0.073984
    71  H    0.052175
    72  H    0.033908
    73  H    0.061005
    74  H    0.038530
    75  H    0.049562
    76  H    0.054248
    77  H    0.046687
    78  H    0.063592
    79  H    0.061823
    80  H    0.033626
    81  H    0.044703
    82  H    0.055896
    83  H    0.053864
    84  H    0.060787
    85  H    0.053188
    86  H    0.043624
    87  H    0.051286
    88  H    0.046215
    89  H    0.037797
    90  H    0.044732
    91  H    0.031917
    92  H    0.031427
    93  H    0.054966
    94  H    0.057270
    95  H    0.048924
    96  H    0.044535
    97  H    0.067551
    98  H    0.083538
    99  H    0.058948
   100  H    0.055830
   101  H    0.058136
   102  H    0.056437
   103  H    0.046454
   104  H    0.021505
   105  H    0.066704
   106  H    0.039055
   107  H    0.041969
   108  H    0.051142
   109  H    0.015192
   110  H    0.041568
   111  H    0.038151
   112  H    0.024576
   113  H    0.026567
   114  H    0.033429
   115  H    0.027737
   116  H    0.030476
   117  H    0.027033
   118  H    0.033075
   119  H    0.025650
   120  H    0.019110
   121  H    0.021176
   122  H    0.032502
   123  H    0.025755
   124  H    0.027522
   125  H    0.027164
   126  H    0.034517
   127  H    0.022404
   128  H    0.018527
   129  H    0.013295
   130  H    0.034259
   131  H    0.026189
   132  H    0.029502
   133  H    0.034473
   134  H    0.036358
   135  H    0.034363
   136  H    0.023570
   137  H    0.032744
   138  H    0.036599
   139  H    0.040981
   140  H    0.033120
 Sum of Mulliken charges =  -0.00000

 Dipole moment (field-independent basis, Debye):
    X=              4.6589    Y=              2.0902    Z=             -4.3177  Tot=              6.6870
 Quadrupole moment (field-independent basis, Debye-Ang):
   XX=           -372.7681   YY=           -431.5992   ZZ=           -410.2648
   XY=            -23.7136   XZ=              7.2734   YZ=             23.5231

 Normal termination of Gaussian 16 at Fri Apr 29 18:27:21 2022.
