 Gaussian 16, Revision A.03,
 Gaussian 16:  ES64L-G16RevA.03 25-Dec-2016

 --------------------------------
 #p wB97XD/Def2SVP td=(nstates=5)
 --------------------------------

 ---------------------------------------------------
 step_401_chromophore_9 TDDFT with wB97XD functional
 ---------------------------------------------------
 Symbolic Z-matrix:
 Charge =  0 Multiplicity = 1

                         Standard orientation:
 ---------------------------------------------------------------------
 Center     Atomic      Atomic             Coordinates (Angstroms)
 Number     Number       Type             X           Y           Z
 ---------------------------------------------------------------------
      1         12           0       -4.692217    0.975130    0.065353
      2          6           0       -4.055824   -2.439769    0.591218
      3          6           0       -1.312330    1.502116   -0.233200
      4          6           0       -5.425230    4.229103   -0.196516
      5          6           0       -8.231051    0.256802    0.439835
      6          7           0       -2.895598   -0.342365    0.274296
      7          6           0       -2.878463   -1.709782    0.218372
      8          6           0       -1.548639   -2.273395   -0.325924
      9          6           0       -0.634988   -1.063398   -0.306569
     10          6           0       -1.627790    0.124218   -0.029125
     11          6           0        0.627407   -1.126189    0.534324
     12          6           0       -1.639250   -2.921825   -1.740720
     13          6           0       -0.603033   -4.118450   -2.036790
     14          6           0        0.613419   -4.298831   -1.109359
     15          8           0        0.633431   -4.985495   -0.103184
     16          8           0        1.648509   -3.542285   -1.498744
     17          7           0       -3.490918    2.674472   -0.215987
     18          6           0       -2.139508    2.657821   -0.388591
     19          6           0       -1.772748    4.010347   -0.552785
     20          6           0       -2.904951    4.827324   -0.539370
     21          6           0       -4.017401    3.966817   -0.292739
     22          6           0       -0.288089    4.443672   -0.710906
     23          6           0       -3.016962    6.277468   -0.671650
     24          8           0       -4.105387    6.804150   -0.899611
     25          6           0       -1.817832    7.170865   -0.742614
     26          7           0       -6.552486    2.089577    0.156107
     27          6           0       -6.541616    3.456541    0.053483
     28          6           0       -7.954675    4.010935    0.182726
     29          6           0       -8.887353    2.754800    0.222357
     30          6           0       -7.888942    1.612502    0.271732
     31          6           0       -8.145936    4.890637    1.521372
     32          6           0       -9.886837    2.572672   -0.922251
     33          6           0       -9.274937    1.968203   -2.116451
     34          7           0       -6.009861   -0.690440    0.500486
     35          6           0       -7.372516   -0.804446    0.644047
     36          6           0       -7.621471   -2.197356    0.883160
     37          6           0       -6.392709   -2.860026    0.899051
     38          6           0       -5.387174   -1.886697    0.675597
     39          6           0       -9.042974   -2.762335    1.009129
     40          6           0       -5.738345   -4.208108    0.956808
     41          8           0       -6.229849   -5.289992    1.184447
     42          6           0       -4.186374   -3.926827    0.646763
     43          6           0       -3.268153   -4.659699    1.632239
     44          8           0       -3.365811   -4.707004    2.839730
     45          8           0       -2.403127   -5.458494    0.920894
     46          6           0       -1.641369   -6.475627    1.587525
     47          6           0        2.755869   -3.606848   -0.571890
     48          6           0        3.790929   -2.596429   -1.040183
     49          6           0        4.983457   -2.787370   -1.639917
     50          6           0        5.599921   -4.137117   -2.055938
     51          6           0        5.988372   -1.679881   -1.844669
     52          6           0        6.691050   -1.519306   -3.212172
     53          6           0        8.185494   -1.164938   -3.093458
     54          6           0        8.489732    0.267490   -3.538841
     55          6           0        8.495107    0.328277   -5.104063
     56          6           0        9.831851    0.772229   -3.087528
     57          6           0        9.691142    1.536422   -1.767488
     58          6           0       10.824982    1.151454   -0.780958
     59          6           0       10.903859    2.116519    0.372461
     60          6           0       11.544596    3.455056   -0.143997
     61          6           0       11.628139    1.603732    1.612801
     62          6           0       10.682877    0.833328    2.537026
     63          6           0        9.873433    1.767038    3.603719
     64          6           0        9.895025    1.082961    4.991639
     65          6           0        8.723485    1.533290    5.796525
     66          6           0       11.219537    1.494590    5.737520
     67          1           0       -0.273484    1.664729   -0.529145
     68          1           0       -5.711527    5.283682   -0.212220
     69          1           0       -9.294204    0.025912    0.524343
     70          1           0       -1.197539   -2.982823    0.423480
     71          1           0       -0.314636   -0.849719   -1.326399
     72          1           0        1.549042   -0.837241    0.027915
     73          1           0        0.687394   -2.124485    0.967331
     74          1           0        0.744725   -0.423717    1.358999
     75          1           0       -1.449810   -2.164614   -2.501866
     76          1           0       -2.610949   -3.396497   -1.876766
     77          1           0       -0.207646   -3.827351   -3.009528
     78          1           0       -1.180372   -5.017421   -2.251853
     79          1           0        0.049267    4.774366   -1.693585
     80          1           0        0.357935    3.613311   -0.423722
     81          1           0       -0.198356    5.257462    0.009474
     82          1           0       -1.118909    6.990766    0.074096
     83          1           0       -2.124048    8.214653   -0.813380
     84          1           0       -1.329925    6.924212   -1.685555
     85          1           0       -8.244989    4.664854   -0.639737
     86          1           0       -9.480626    2.724236    1.136749
     87          1           0       -8.253197    5.974441    1.499902
     88          1           0       -7.237224    4.783241    2.115111
     89          1           0       -8.982948    4.464286    2.074057
     90          1           0      -10.419012    3.517595   -1.031852
     91          1           0      -10.603212    1.849480   -0.532508
     92          1           0       -9.459212    2.712664   -2.889682
     93          1           0       -9.657594    0.973701   -2.342575
     94          1           0       -8.188469    2.050865   -2.069271
     95          1           0       -9.650644   -2.545110    0.130101
     96          1           0       -9.526379   -2.187996    1.799377
     97          1           0       -9.028824   -3.819422    1.274660
     98          1           0       -4.045381   -4.473259   -0.285410
     99          1           0       -1.152529   -7.213810    0.951535
    100          1           0       -2.432895   -6.951339    2.166065
    101          1           0       -0.867927   -5.944821    2.141908
    102          1           0        3.238239   -4.580567   -0.484722
    103          1           0        2.452897   -3.135231    0.362949
    104          1           0        3.587243   -1.591393   -0.671045
    105          1           0        5.439495   -4.320319   -3.118573
    106          1           0        5.195126   -4.881033   -1.369287
    107          1           0        6.677514   -4.215673   -1.912803
    108          1           0        6.623240   -1.662623   -0.958013
    109          1           0        5.426761   -0.761818   -1.669714
    110          1           0        6.251934   -0.631702   -3.667605
    111          1           0        6.624410   -2.357788   -3.906882
    112          1           0        8.742445   -1.806744   -3.776281
    113          1           0        8.542818   -1.398332   -2.090151
    114          1           0        7.667002    0.943080   -3.306813
    115          1           0        8.324923   -0.659200   -5.532850
    116          1           0        9.398439    0.757271   -5.536620
    117          1           0        7.735542    1.001780   -5.499977
    118          1           0       10.320710    1.456479   -3.780982
    119          1           0       10.497267   -0.081302   -2.950906
    120          1           0        8.771793    1.395620   -1.199205
    121          1           0        9.571793    2.591957   -2.014781
    122          1           0       11.793340    1.126339   -1.280861
    123          1           0       10.554420    0.120523   -0.555511
    124          1           0        9.952809    2.501204    0.740537
    125          1           0       12.001960    4.009305    0.675886
    126          1           0       10.856935    4.126671   -0.657449
    127          1           0       12.344290    3.292169   -0.865865
    128          1           0       12.094278    2.341920    2.265261
    129          1           0       12.457640    0.984135    1.270731
    130          1           0       11.263801    0.049176    3.022826
    131          1           0        9.899672    0.354135    1.949255
    132          1           0        8.842680    1.772317    3.246674
    133          1           0       10.274055    2.778528    3.671509
    134          1           0        9.847013   -0.001512    4.890685
    135          1           0        8.353272    2.543937    5.625315
    136          1           0        8.934269    1.538692    6.865888
    137          1           0        7.942900    0.793676    5.615457
    138          1           0       11.992785    1.707461    4.997893
    139          1           0       11.504759    0.711754    6.439582
    140          1           0       11.014877    2.391505    6.320981
 ---------------------------------------------------------------------

 SCF Done:  E(RwB97XD) =  -3007.89829839     A.U. after   19 cycles

 Excitation energies and oscillator strengths:

 Excited State   1:      Singlet-A      1.6476 eV  752.52 nm  f=0.3589  <S**2>=0.000
     245 -> 248        0.19566
     246 -> 247        0.68193
     245 <- 248        0.12184
 This state for optimization and/or second-order correction.
 Total Energy, E(TD-HF/TD-DFT) =  -3007.83775032
 Copying the excited state density for this state as the 1-particle RhoCI density.

 Excited State   2:      Singlet-A      2.1164 eV  585.82 nm  f=0.1198  <S**2>=0.000
     245 -> 247        0.64375
     246 -> 248       -0.27983
     246 <- 248       -0.10062

 Excited State   3:      Singlet-A      3.2442 eV  382.17 nm  f=0.0005  <S**2>=0.000
     243 -> 247        0.24091
     244 -> 247        0.64418

 Excited State   4:      Singlet-A      3.4465 eV  359.74 nm  f=0.0904  <S**2>=0.000
     242 -> 247        0.14953
     243 -> 247        0.50167
     244 -> 247       -0.22316
     246 -> 248        0.36951

 Excited State   5:      Singlet-A      3.5373 eV  350.50 nm  f=0.0006  <S**2>=0.000
     239 -> 247        0.15059
     240 -> 247        0.11021
     241 -> 247        0.55754
     241 -> 249        0.26706
     241 -> 250       -0.14738
     243 -> 247       -0.11799

 The electronic state is 1-A.
 Alpha  occ. eigenvalues --  -46.95704 -19.31653 -19.28790 -19.25299 -19.24721
 Alpha  occ. eigenvalues --  -19.24114 -19.22794 -14.47433 -14.46549 -14.43760
 Alpha  occ. eigenvalues --  -14.43605 -10.43895 -10.42705 -10.39701 -10.37917
 Alpha  occ. eigenvalues --  -10.36474 -10.36114 -10.35720 -10.35389 -10.34399
 Alpha  occ. eigenvalues --  -10.34049 -10.33956 -10.33538 -10.33526 -10.33402
 Alpha  occ. eigenvalues --  -10.33039 -10.32808 -10.32731 -10.32612 -10.32439
 Alpha  occ. eigenvalues --  -10.32235 -10.32192 -10.32126 -10.31960 -10.31796
 Alpha  occ. eigenvalues --  -10.31742 -10.31255 -10.31113 -10.30769 -10.30404
 Alpha  occ. eigenvalues --  -10.30319 -10.30227 -10.30211 -10.30110 -10.30086
 Alpha  occ. eigenvalues --  -10.29981 -10.29877 -10.29789 -10.29785 -10.29599
 Alpha  occ. eigenvalues --  -10.29514 -10.29486 -10.29474 -10.29454 -10.29366
 Alpha  occ. eigenvalues --  -10.29256 -10.29036 -10.28971 -10.28687 -10.28679
 Alpha  occ. eigenvalues --  -10.28451 -10.28349 -10.28325 -10.28317 -10.28091
 Alpha  occ. eigenvalues --  -10.27795  -3.21423  -1.95039  -1.94549  -1.94359
 Alpha  occ. eigenvalues --   -1.21029  -1.17828  -1.12921  -1.11342  -1.11055
 Alpha  occ. eigenvalues --   -1.09447  -1.05931  -1.05135  -1.04698  -1.03649
 Alpha  occ. eigenvalues --   -0.94206  -0.93189  -0.92275  -0.91985  -0.91619
 Alpha  occ. eigenvalues --   -0.91134  -0.89890  -0.89462  -0.89037  -0.88501
 Alpha  occ. eigenvalues --   -0.88087  -0.87704  -0.86681  -0.85554  -0.85350
 Alpha  occ. eigenvalues --   -0.84552  -0.83671  -0.83116  -0.82748  -0.82210
 Alpha  occ. eigenvalues --   -0.81536  -0.80528  -0.79869  -0.78875  -0.78568
 Alpha  occ. eigenvalues --   -0.77688  -0.77058  -0.76799  -0.76559  -0.76271
 Alpha  occ. eigenvalues --   -0.75962  -0.74857  -0.73646  -0.72961  -0.71870
 Alpha  occ. eigenvalues --   -0.70838  -0.70495  -0.69364  -0.68954  -0.67972
 Alpha  occ. eigenvalues --   -0.67635  -0.66907  -0.66477  -0.66374  -0.66192
 Alpha  occ. eigenvalues --   -0.65798  -0.65194  -0.64636  -0.63366  -0.62970
 Alpha  occ. eigenvalues --   -0.61745  -0.61661  -0.61041  -0.60670  -0.59864
 Alpha  occ. eigenvalues --   -0.59389  -0.59072  -0.58669  -0.57829  -0.57576
 Alpha  occ. eigenvalues --   -0.57375  -0.57232  -0.57014  -0.56757  -0.56558
 Alpha  occ. eigenvalues --   -0.56266  -0.55726  -0.55637  -0.55281  -0.54983
 Alpha  occ. eigenvalues --   -0.54694  -0.54655  -0.54338  -0.54304  -0.54141
 Alpha  occ. eigenvalues --   -0.53818  -0.53707  -0.53371  -0.53066  -0.52595
 Alpha  occ. eigenvalues --   -0.52559  -0.52139  -0.51656  -0.51651  -0.51284
 Alpha  occ. eigenvalues --   -0.51195  -0.50963  -0.50784  -0.50779  -0.50624
 Alpha  occ. eigenvalues --   -0.50354  -0.50277  -0.50175  -0.49843  -0.49699
 Alpha  occ. eigenvalues --   -0.49518  -0.49212  -0.49115  -0.48694  -0.48578
 Alpha  occ. eigenvalues --   -0.48352  -0.48181  -0.48063  -0.47983  -0.47734
 Alpha  occ. eigenvalues --   -0.47561  -0.47412  -0.47398  -0.47155  -0.47050
 Alpha  occ. eigenvalues --   -0.46868  -0.46529  -0.46413  -0.46063  -0.45960
 Alpha  occ. eigenvalues --   -0.45784  -0.45772  -0.45226  -0.45158  -0.45018
 Alpha  occ. eigenvalues --   -0.44814  -0.44790  -0.44535  -0.44209  -0.43838
 Alpha  occ. eigenvalues --   -0.43737  -0.43424  -0.43343  -0.43183  -0.43010
 Alpha  occ. eigenvalues --   -0.42494  -0.42429  -0.42336  -0.42263  -0.42186
 Alpha  occ. eigenvalues --   -0.41667  -0.41470  -0.41421  -0.40825  -0.40736
 Alpha  occ. eigenvalues --   -0.40533  -0.40170  -0.39881  -0.39809  -0.39680
 Alpha  occ. eigenvalues --   -0.39337  -0.39021  -0.38943  -0.38694  -0.38481
 Alpha  occ. eigenvalues --   -0.37978  -0.37517  -0.37503  -0.36851  -0.36358
 Alpha  occ. eigenvalues --   -0.36124  -0.36033  -0.35203  -0.33382  -0.33203
 Alpha  occ. eigenvalues --   -0.32832  -0.32321  -0.32052  -0.31609  -0.25865
 Alpha  occ. eigenvalues --   -0.23252
 Alpha virt. eigenvalues --   -0.07254  -0.00005   0.02745   0.04544   0.06062
 Alpha virt. eigenvalues --    0.06246   0.06824   0.07654   0.07781   0.09120
 Alpha virt. eigenvalues --    0.10067   0.11078   0.11739   0.11846   0.12202

 Mulliken charges:
               1
     1  Mg   0.922562
     2  C   -0.007282
     3  C   -0.078149
     4  C   -0.029542
     5  C   -0.077643
     6  N   -0.352982
     7  C    0.007234
     8  C   -0.058213
     9  C   -0.087437
    10  C    0.063614
    11  C    0.018649
    12  C    0.033028
    13  C    0.020356
    14  C    0.194731
    15  O   -0.269576
    16  O   -0.322457
    17  N   -0.481892
    18  C    0.154266
    19  C   -0.177039
    20  C   -0.011639
    21  C    0.134720
    22  C    0.067391
    23  C    0.002046
    24  O   -0.255883
    25  C    0.003052
    26  N   -0.376259
    27  C    0.058535
    28  C   -0.085614
    29  C   -0.049519
    30  C    0.035857
    31  C   -0.000929
    32  C   -0.034985
    33  C   -0.014454
    34  N   -0.428159
    35  C    0.141575
    36  C   -0.197979
    37  C   -0.085465
    38  C    0.161461
    39  C    0.076166
    40  C    0.176692
    41  O   -0.175139
    42  C   -0.134215
    43  C    0.250099
    44  O   -0.227019
    45  O   -0.379153
    46  C    0.148746
    47  C    0.267076
    48  C   -0.158998
    49  C   -0.189467
    50  C    0.026545
    51  C    0.030120
    52  C   -0.017254
    53  C    0.004892
    54  C   -0.208451
    55  C   -0.010633
    56  C    0.065723
    57  C   -0.057636
    58  C    0.018839
    59  C   -0.169479
    60  C   -0.018412
    61  C    0.041793
    62  C   -0.046905
    63  C   -0.008777
    64  C   -0.213966
    65  C    0.003274
    66  C   -0.011353
    67  H   -0.002903
    68  H    0.021006
    69  H   -0.007270
    70  H    0.053101
    71  H    0.040387
    72  H    0.024770
    73  H    0.052165
    74  H    0.034714
    75  H    0.043091
    76  H    0.044075
    77  H    0.040907
    78  H    0.060060
    79  H    0.057228
    80  H    0.028232
    81  H    0.035866
    82  H    0.050307
    83  H    0.052535
    84  H    0.054135
    85  H    0.044889
    86  H    0.033097
    87  H    0.046855
    88  H    0.039131
    89  H    0.030863
    90  H    0.038438
    91  H    0.023035
    92  H    0.026425
    93  H    0.050938
    94  H    0.044064
    95  H    0.044592
    96  H    0.038904
    97  H    0.065686
    98  H    0.075011
    99  H    0.057242
   100  H    0.052001
   101  H    0.056158
   102  H    0.050894
   103  H    0.037809
   104  H    0.013372
   105  H    0.061589
   106  H    0.032277
   107  H    0.036347
   108  H    0.043031
   109  H    0.007142
   110  H    0.031491
   111  H    0.031006
   112  H    0.014839
   113  H    0.015435
   114  H    0.019721
   115  H    0.020817
   116  H    0.024408
   117  H    0.021854
   118  H    0.025323
   119  H    0.015718
   120  H    0.008386
   121  H    0.012507
   122  H    0.021954
   123  H    0.014960
   124  H    0.012685
   125  H    0.021288
   126  H    0.028906
   127  H    0.015230
   128  H    0.008051
   129  H    0.005761
   130  H    0.026137
   131  H    0.015434
   132  H    0.021043
   133  H    0.025188
   134  H    0.026428
   135  H    0.028709
   136  H    0.017470
   137  H    0.027173
   138  H    0.028717
   139  H    0.035784
   140  H    0.026286
 Sum of Mulliken charges =  -0.00000

 Dipole moment (field-independent basis, Debye):
    X=              4.5670    Y=              1.8438    Z=             -4.3239  Tot=              6.5539
 Quadrupole moment (field-independent basis, Debye-Ang):
   XX=           -371.7045   YY=           -430.8309   ZZ=           -409.8779
   XY=            -21.9610   XZ=              7.2357   YZ=             23.6032

 Normal termination of Gaussian 16 at Fri Apr 29 18:55:34 2022.
