 Gaussian 16, Revision A.03,
 Gaussian 16:  ES64L-G16RevA.03 25-Dec-2016

 --------------------
 #p ZINDO=(nstates=5)
 --------------------

 ----------------------------
 step_401_chromophore_9 ZINDO
 ----------------------------
 Symbolic Z-matrix:
 Charge =  0 Multiplicity = 1

                         Standard orientation:
 ---------------------------------------------------------------------
 Center     Atomic      Atomic             Coordinates (Angstroms)
 Number     Number       Type             X           Y           Z
 ---------------------------------------------------------------------
      1         12           0       -4.692217    0.975130    0.065353
      2          6           0       -4.055824   -2.439769    0.591218
      3          6           0       -1.312330    1.502116   -0.233200
      4          6           0       -5.425230    4.229103   -0.196516
      5          6           0       -8.231051    0.256802    0.439835
      6          7           0       -2.895598   -0.342365    0.274296
      7          6           0       -2.878463   -1.709782    0.218372
      8          6           0       -1.548639   -2.273395   -0.325924
      9          6           0       -0.634988   -1.063398   -0.306569
     10          6           0       -1.627790    0.124218   -0.029125
     11          6           0        0.627407   -1.126189    0.534324
     12          6           0       -1.639250   -2.921825   -1.740720
     13          6           0       -0.603033   -4.118450   -2.036790
     14          6           0        0.613419   -4.298831   -1.109359
     15          8           0        0.633431   -4.985495   -0.103184
     16          8           0        1.648509   -3.542285   -1.498744
     17          7           0       -3.490918    2.674472   -0.215987
     18          6           0       -2.139508    2.657821   -0.388591
     19          6           0       -1.772748    4.010347   -0.552785
     20          6           0       -2.904951    4.827324   -0.539370
     21          6           0       -4.017401    3.966817   -0.292739
     22          6           0       -0.288089    4.443672   -0.710906
     23          6           0       -3.016962    6.277468   -0.671650
     24          8           0       -4.105387    6.804150   -0.899611
     25          6           0       -1.817832    7.170865   -0.742614
     26          7           0       -6.552486    2.089577    0.156107
     27          6           0       -6.541616    3.456541    0.053483
     28          6           0       -7.954675    4.010935    0.182726
     29          6           0       -8.887353    2.754800    0.222357
     30          6           0       -7.888942    1.612502    0.271732
     31          6           0       -8.145936    4.890637    1.521372
     32          6           0       -9.886837    2.572672   -0.922251
     33          6           0       -9.274937    1.968203   -2.116451
     34          7           0       -6.009861   -0.690440    0.500486
     35          6           0       -7.372516   -0.804446    0.644047
     36          6           0       -7.621471   -2.197356    0.883160
     37          6           0       -6.392709   -2.860026    0.899051
     38          6           0       -5.387174   -1.886697    0.675597
     39          6           0       -9.042974   -2.762335    1.009129
     40          6           0       -5.738345   -4.208108    0.956808
     41          8           0       -6.229849   -5.289992    1.184447
     42          6           0       -4.186374   -3.926827    0.646763
     43          6           0       -3.268153   -4.659699    1.632239
     44          8           0       -3.365811   -4.707004    2.839730
     45          8           0       -2.403127   -5.458494    0.920894
     46          6           0       -1.641369   -6.475627    1.587525
     47          6           0        2.755869   -3.606848   -0.571890
     48          6           0        3.790929   -2.596429   -1.040183
     49          6           0        4.983457   -2.787370   -1.639917
     50          6           0        5.599921   -4.137117   -2.055938
     51          6           0        5.988372   -1.679881   -1.844669
     52          6           0        6.691050   -1.519306   -3.212172
     53          6           0        8.185494   -1.164938   -3.093458
     54          6           0        8.489732    0.267490   -3.538841
     55          6           0        8.495107    0.328277   -5.104063
     56          6           0        9.831851    0.772229   -3.087528
     57          6           0        9.691142    1.536422   -1.767488
     58          6           0       10.824982    1.151454   -0.780958
     59          6           0       10.903859    2.116519    0.372461
     60          6           0       11.544596    3.455056   -0.143997
     61          6           0       11.628139    1.603732    1.612801
     62          6           0       10.682877    0.833328    2.537026
     63          6           0        9.873433    1.767038    3.603719
     64          6           0        9.895025    1.082961    4.991639
     65          6           0        8.723485    1.533290    5.796525
     66          6           0       11.219537    1.494590    5.737520
     67          1           0       -0.273484    1.664729   -0.529145
     68          1           0       -5.711527    5.283682   -0.212220
     69          1           0       -9.294204    0.025912    0.524343
     70          1           0       -1.197539   -2.982823    0.423480
     71          1           0       -0.314636   -0.849719   -1.326399
     72          1           0        1.549042   -0.837241    0.027915
     73          1           0        0.687394   -2.124485    0.967331
     74          1           0        0.744725   -0.423717    1.358999
     75          1           0       -1.449810   -2.164614   -2.501866
     76          1           0       -2.610949   -3.396497   -1.876766
     77          1           0       -0.207646   -3.827351   -3.009528
     78          1           0       -1.180372   -5.017421   -2.251853
     79          1           0        0.049267    4.774366   -1.693585
     80          1           0        0.357935    3.613311   -0.423722
     81          1           0       -0.198356    5.257462    0.009474
     82          1           0       -1.118909    6.990766    0.074096
     83          1           0       -2.124048    8.214653   -0.813380
     84          1           0       -1.329925    6.924212   -1.685555
     85          1           0       -8.244989    4.664854   -0.639737
     86          1           0       -9.480626    2.724236    1.136749
     87          1           0       -8.253197    5.974441    1.499902
     88          1           0       -7.237224    4.783241    2.115111
     89          1           0       -8.982948    4.464286    2.074057
     90          1           0      -10.419012    3.517595   -1.031852
     91          1           0      -10.603212    1.849480   -0.532508
     92          1           0       -9.459212    2.712664   -2.889682
     93          1           0       -9.657594    0.973701   -2.342575
     94          1           0       -8.188469    2.050865   -2.069271
     95          1           0       -9.650644   -2.545110    0.130101
     96          1           0       -9.526379   -2.187996    1.799377
     97          1           0       -9.028824   -3.819422    1.274660
     98          1           0       -4.045381   -4.473259   -0.285410
     99          1           0       -1.152529   -7.213810    0.951535
    100          1           0       -2.432895   -6.951339    2.166065
    101          1           0       -0.867927   -5.944821    2.141908
    102          1           0        3.238239   -4.580567   -0.484722
    103          1           0        2.452897   -3.135231    0.362949
    104          1           0        3.587243   -1.591393   -0.671045
    105          1           0        5.439495   -4.320319   -3.118573
    106          1           0        5.195126   -4.881033   -1.369287
    107          1           0        6.677514   -4.215673   -1.912803
    108          1           0        6.623240   -1.662623   -0.958013
    109          1           0        5.426761   -0.761818   -1.669714
    110          1           0        6.251934   -0.631702   -3.667605
    111          1           0        6.624410   -2.357788   -3.906882
    112          1           0        8.742445   -1.806744   -3.776281
    113          1           0        8.542818   -1.398332   -2.090151
    114          1           0        7.667002    0.943080   -3.306813
    115          1           0        8.324923   -0.659200   -5.532850
    116          1           0        9.398439    0.757271   -5.536620
    117          1           0        7.735542    1.001780   -5.499977
    118          1           0       10.320710    1.456479   -3.780982
    119          1           0       10.497267   -0.081302   -2.950906
    120          1           0        8.771793    1.395620   -1.199205
    121          1           0        9.571793    2.591957   -2.014781
    122          1           0       11.793340    1.126339   -1.280861
    123          1           0       10.554420    0.120523   -0.555511
    124          1           0        9.952809    2.501204    0.740537
    125          1           0       12.001960    4.009305    0.675886
    126          1           0       10.856935    4.126671   -0.657449
    127          1           0       12.344290    3.292169   -0.865865
    128          1           0       12.094278    2.341920    2.265261
    129          1           0       12.457640    0.984135    1.270731
    130          1           0       11.263801    0.049176    3.022826
    131          1           0        9.899672    0.354135    1.949255
    132          1           0        8.842680    1.772317    3.246674
    133          1           0       10.274055    2.778528    3.671509
    134          1           0        9.847013   -0.001512    4.890685
    135          1           0        8.353272    2.543937    5.625315
    136          1           0        8.934269    1.538692    6.865888
    137          1           0        7.942900    0.793676    5.615457
    138          1           0       11.992785    1.707461    4.997893
    139          1           0       11.504759    0.711754    6.439582
    140          1           0       11.014877    2.391505    6.320981
 ---------------------------------------------------------------------

 SCF Done:  E(RZINDO/S) =  -474.406533135     A.U. after   19 cycles

 Excitation energies and oscillator strengths:

 Excited State   1:      Singlet-A      1.2522 eV  990.16 nm  f=0.5846  <S**2>=0.000
     175 ->178         0.18803
     176 ->177         0.66511
 This state for optimization and/or second-order correction.
 Total Energy, E(CIS/TDA) =  -474.360517120
 Copying the excited state density for this state as the 1-particle RhoCI density.

 Excited State   2:      Singlet-A      1.9113 eV  648.69 nm  f=0.0568  <S**2>=0.000
     175 ->177         0.55817
     176 ->178        -0.40751

 Excited State   3:      Singlet-A      2.9276 eV  423.51 nm  f=0.0019  <S**2>=0.000
     170 ->177         0.26361
     170 ->179         0.29568
     170 ->181         0.41539
     170 ->182        -0.12305
     170 ->186         0.15748
     170 ->187         0.13701
     170 ->188        -0.18183
     170 ->202        -0.11977

 Excited State   4:      Singlet-A      3.0200 eV  410.55 nm  f=0.3812  <S**2>=0.000
     167 ->179        -0.13113
     168 ->177         0.26611
     168 ->179        -0.27868
     168 ->181         0.15586
     168 ->186        -0.15565
     171 ->177        -0.20024
     173 ->177         0.11788
     175 ->177         0.20057
     176 ->178         0.31279
     176 ->179         0.11244

 Excited State   5:      Singlet-A      3.0560 eV  405.71 nm  f=0.6822  <S**2>=0.000
     167 ->179         0.10644
     168 ->177        -0.21883
     168 ->179         0.24838
     168 ->181        -0.14106
     168 ->186         0.12408
     171 ->177        -0.11702
     175 ->177         0.27389
     176 ->178         0.40570
     176 ->179         0.14917

 The electronic state is 1-A.
 Alpha  occ. eigenvalues --   -1.83180  -1.80353  -1.79706  -1.76595  -1.72540
 Alpha  occ. eigenvalues --   -1.71282  -1.67021  -1.62154  -1.59178  -1.58514
 Alpha  occ. eigenvalues --   -1.56257  -1.52412  -1.49283  -1.47972  -1.47411
 Alpha  occ. eigenvalues --   -1.44946  -1.44415  -1.40112  -1.38417  -1.38030
 Alpha  occ. eigenvalues --   -1.36028  -1.33542  -1.32722  -1.31377  -1.28730
 Alpha  occ. eigenvalues --   -1.26883  -1.24461  -1.21307  -1.20118  -1.18861
 Alpha  occ. eigenvalues --   -1.17099  -1.16027  -1.14938  -1.14635  -1.12782
 Alpha  occ. eigenvalues --   -1.12281  -1.11154  -1.10049  -1.04659  -1.04055
 Alpha  occ. eigenvalues --   -1.03324  -1.01604  -0.99260  -0.97864  -0.97631
 Alpha  occ. eigenvalues --   -0.96016  -0.95055  -0.94684  -0.93296  -0.91843
 Alpha  occ. eigenvalues --   -0.90267  -0.90115  -0.88818  -0.87950  -0.87823
 Alpha  occ. eigenvalues --   -0.85031  -0.84345  -0.83438  -0.81761  -0.80760
 Alpha  occ. eigenvalues --   -0.80000  -0.78893  -0.78437  -0.78146  -0.76999
 Alpha  occ. eigenvalues --   -0.76280  -0.76107  -0.75622  -0.74886  -0.73596
 Alpha  occ. eigenvalues --   -0.73302  -0.72669  -0.72413  -0.71641  -0.71330
 Alpha  occ. eigenvalues --   -0.70918  -0.69926  -0.69897  -0.68380  -0.68129
 Alpha  occ. eigenvalues --   -0.67984  -0.67259  -0.66837  -0.66242  -0.65488
 Alpha  occ. eigenvalues --   -0.65211  -0.64639  -0.64330  -0.64007  -0.63706
 Alpha  occ. eigenvalues --   -0.63368  -0.63013  -0.62405  -0.62031  -0.61687
 Alpha  occ. eigenvalues --   -0.60744  -0.60623  -0.60389  -0.60268  -0.59613
 Alpha  occ. eigenvalues --   -0.59424  -0.59217  -0.58763  -0.58398  -0.57897
 Alpha  occ. eigenvalues --   -0.57790  -0.57397  -0.57136  -0.56798  -0.56738
 Alpha  occ. eigenvalues --   -0.56331  -0.55938  -0.55300  -0.54898  -0.54861
 Alpha  occ. eigenvalues --   -0.54805  -0.53856  -0.53650  -0.53129  -0.52871
 Alpha  occ. eigenvalues --   -0.52519  -0.52232  -0.51806  -0.51532  -0.51414
 Alpha  occ. eigenvalues --   -0.51322  -0.51285  -0.50862  -0.50448  -0.49715
 Alpha  occ. eigenvalues --   -0.49370  -0.49300  -0.49124  -0.48944  -0.48538
 Alpha  occ. eigenvalues --   -0.48208  -0.47980  -0.47880  -0.47513  -0.47482
 Alpha  occ. eigenvalues --   -0.47348  -0.47041  -0.46770  -0.46374  -0.46255
 Alpha  occ. eigenvalues --   -0.46172  -0.45897  -0.45820  -0.45356  -0.45131
 Alpha  occ. eigenvalues --   -0.44843  -0.44742  -0.44498  -0.44400  -0.44109
 Alpha  occ. eigenvalues --   -0.43881  -0.43769  -0.43338  -0.43304  -0.42926
 Alpha  occ. eigenvalues --   -0.41566  -0.41498  -0.41228  -0.39564  -0.39362
 Alpha  occ. eigenvalues --   -0.38098  -0.36963  -0.35578  -0.34963  -0.33994
 Alpha  occ. eigenvalues --   -0.33522  -0.33307  -0.32314  -0.32185  -0.26704
 Alpha  occ. eigenvalues --   -0.21940
 Alpha virt. eigenvalues --   -0.08719  -0.02125  -0.00182   0.01380   0.01537
 Alpha virt. eigenvalues --    0.02509   0.02594   0.03063   0.04233   0.04473
 Alpha virt. eigenvalues --    0.05918   0.06545   0.06927   0.07227   0.08040

 Mulliken charges:
               1
     1  Mg   0.425138
     2  C   -0.054418
     3  C   -0.070893
     4  C   -0.055158
     5  C   -0.064183
     6  N   -0.278051
     7  C    0.142468
     8  C    0.018108
     9  C    0.014092
    10  C    0.092332
    11  C   -0.053944
    12  C   -0.016117
    13  C   -0.007465
    14  C    0.476675
    15  O   -0.521187
    16  O   -0.250589
    17  N   -0.327684
    18  C    0.089827
    19  C   -0.005307
    20  C   -0.036099
    21  C    0.121724
    22  C   -0.059037
    23  C    0.326682
    24  O   -0.544766
    25  C   -0.029676
    26  N   -0.297312
    27  C    0.128958
    28  C    0.008937
    29  C    0.006162
    30  C    0.156127
    31  C   -0.063263
    32  C   -0.020279
    33  C   -0.051913
    34  N   -0.339238
    35  C    0.126987
    36  C    0.044539
    37  C   -0.043896
    38  C    0.126414
    39  C   -0.042662
    40  C    0.331681
    41  O   -0.488594
    42  C    0.056710
    43  C    0.481176
    44  O   -0.498099
    45  O   -0.285865
    46  C    0.076510
    47  C    0.103613
    48  C   -0.100676
    49  C   -0.001497
    50  C   -0.047629
    51  C   -0.021429
    52  C   -0.031827
    53  C   -0.030176
    54  C   -0.004940
    55  C   -0.068864
    56  C   -0.026905
    57  C   -0.045281
    58  C   -0.022213
    59  C   -0.001900
    60  C   -0.065352
    61  C   -0.031850
    62  C   -0.046501
    63  C   -0.037164
    64  C   -0.009381
    65  C   -0.052638
    66  C   -0.060691
    67  H    0.020045
    68  H    0.038440
    69  H    0.025680
    70  H    0.045521
    71  H    0.023440
    72  H    0.021764
    73  H    0.028169
    74  H    0.020651
    75  H    0.033291
    76  H    0.025728
    77  H    0.022606
    78  H    0.045561
    79  H    0.031648
    80  H    0.019709
    81  H    0.026001
    82  H    0.033562
    83  H    0.036297
    84  H    0.037052
    85  H    0.033647
    86  H    0.026731
    87  H    0.031397
    88  H    0.019663
    89  H    0.017985
    90  H    0.024183
    91  H    0.008737
    92  H    0.011354
    93  H    0.032556
    94  H    0.029268
    95  H    0.031984
    96  H    0.025942
    97  H    0.038403
    98  H    0.054717
    99  H    0.039930
   100  H    0.046562
   101  H    0.047515
   102  H    0.059090
   103  H    0.051403
   104  H    0.024350
   105  H    0.035206
   106  H    0.020926
   107  H    0.021655
   108  H    0.033218
   109  H    0.005518
   110  H    0.020845
   111  H    0.027344
   112  H    0.014651
   113  H    0.017284
   114  H    0.024676
   115  H    0.016778
   116  H    0.017393
   117  H    0.010499
   118  H    0.021000
   119  H    0.018040
   120  H    0.014018
   121  H    0.015883
   122  H    0.021193
   123  H    0.016401
   124  H    0.019423
   125  H    0.012901
   126  H    0.016551
   127  H    0.013128
   128  H    0.018918
   129  H    0.010855
   130  H    0.018575
   131  H    0.014489
   132  H    0.015039
   133  H    0.030684
   134  H    0.024902
   135  H    0.021011
   136  H    0.009251
   137  H    0.011035
   138  H    0.019642
   139  H    0.018509
   140  H    0.019726
 Sum of Mulliken charges =  -0.00000

 Dipole moment (field-independent basis, Debye):
    X=              4.0257    Y=              1.2306    Z=             -5.7105  Tot=              7.0944
 N-N= 4.381365186665D+03 E-N= 0.000000000000D+00  KE=-9.436999053936D+03
 Leave Link  601 at Fri Apr 29 19:08:18 2022, MaxMem=  6710886400 cpu:               0.8 elap:               0.0
 (Enter /sw/apps/gaussian-16.0/g16/l9999.exe)
 1\1\GINC-BP1-COMPUTE103\SP\RZINDO CIS\STO-3G\C55H74Mg1N4O6\OF15641\29-
 Apr-2022\0\\#p ZINDO=(nstates=5)\\step_401_chromophore_9 ZINDO\\0,1\Mg
 ,0,35.844,1.663,29.803\C,0,33.281,2.861,31.886\C,0,37.955,1.633,32.511
 \C,0,38.248,0.742,27.666\C,0,33.497,1.785,27.036\N,0,35.631,2.295,31.9
 39\C,0,34.458,2.489,32.617\C,0,34.581,2.199,34.128\C,0,36.08,2.096,34.
 332\C,0,36.634,2.048,32.861\C,0,36.745,3.063,35.295\C,0,33.83,0.923,34
 .616\C,0,33.288,0.959,36.132\C,0,33.838,2.027,37.096\O,0,33.363,3.137,

 Normal termination of Gaussian 16 at Fri Apr 29 19:08:18 2022.
