 Gaussian 16, Revision A.03,
 Gaussian 16:  ES64L-G16RevA.03 25-Dec-2016

 ------------------------------
 #p blyp/Def2SVP td=(nstates=5)
 ------------------------------

 --------------------------------------------------
 step_1401_chromophore_9 TDDFT with blyp functional
 --------------------------------------------------
 Symbolic Z-matrix:
 Charge =  0 Multiplicity = 1

                         Standard orientation:
 ---------------------------------------------------------------------
 Center     Atomic      Atomic             Coordinates (Angstroms)
 Number     Number       Type             X           Y           Z
 ---------------------------------------------------------------------
      1         12           0       -4.697820    0.921990   -0.110142
      2          6           0       -3.966342   -2.504275   -0.017007
      3          6           0       -1.244263    1.565254   -0.462385
      4          6           0       -5.516258    4.170546   -0.356937
      5          6           0       -7.997651    0.142474    0.620009
      6          7           0       -2.870518   -0.362866   -0.183426
      7          6           0       -2.804049   -1.671557   -0.251532
      8          6           0       -1.391171   -2.113447   -0.524693
      9          6           0       -0.517480   -0.903499   -0.297859
     10          6           0       -1.588122    0.186001   -0.364380
     11          6           0        0.329082   -0.934970    1.035416
     12          6           0       -1.355949   -2.825513   -1.913258
     13          6           0       -0.357533   -4.041714   -2.082999
     14          6           0        0.692281   -4.290843   -1.023621
     15          8           0        0.618282   -4.994553   -0.005899
     16          8           0        1.852141   -3.606689   -1.300853
     17          7           0       -3.581110    2.591590   -0.348073
     18          6           0       -2.185900    2.693609   -0.400852
     19          6           0       -1.857799    4.130025   -0.673652
     20          6           0       -3.046515    4.876557   -0.605051
     21          6           0       -4.121339    3.866247   -0.552625
     22          6           0       -0.389217    4.612805   -0.828962
     23          6           0       -3.215800    6.390909   -0.668389
     24          8           0       -4.322060    6.938036   -0.640275
     25          6           0       -2.045284    7.345685   -0.721103
     26          7           0       -6.450127    2.003632    0.149595
     27          6           0       -6.560908    3.330973    0.016707
     28          6           0       -7.966866    3.872936    0.389194
     29          6           0       -8.661254    2.531507    0.750723
     30          6           0       -7.659147    1.455597    0.480734
     31          6           0       -7.936147    4.945528    1.587801
     32          6           0       -9.977770    2.345021   -0.122004
     33          6           0      -10.028337    2.017427   -1.652042
     34          7           0       -5.798666   -0.807066    0.321682
     35          6           0       -7.162448   -1.022456    0.528541
     36          6           0       -7.390387   -2.424831    0.913057
     37          6           0       -6.095352   -3.048679    0.731945
     38          6           0       -5.204955   -2.032218    0.278035
     39          6           0       -8.685837   -3.136630    1.265264
     40          6           0       -5.424531   -4.265943    0.760032
     41          8           0       -5.905215   -5.393519    1.032239
     42          6           0       -4.030882   -4.006837    0.182615
     43          6           0       -2.925084   -4.614294    0.998506
     44          8           0       -2.459326   -3.982860    1.926242
     45          8           0       -2.688700   -5.886757    0.664674
     46          6           0       -1.847511   -6.645930    1.562920
     47          6           0        2.809884   -3.593439   -0.198343
     48          6           0        3.921793   -2.677420   -0.455256
     49          6           0        4.933403   -2.711665   -1.333379
     50          6           0        5.058302   -3.910244   -2.320206
     51          6           0        5.737635   -1.434820   -1.587815
     52          6           0        7.261800   -1.290231   -1.405694
     53          6           0        8.037108   -1.165153   -2.724420
     54          6           0        8.533569    0.303410   -2.933913
     55          6           0        7.768524    0.972265   -4.102309
     56          6           0       10.073476    0.455092   -3.017393
     57          6           0       10.690207    1.790725   -2.546789
     58          6           0       11.475761    1.681529   -1.270636
     59          6           0       10.686679    1.977752    0.062129
     60          6           0       10.939205    3.529111    0.340372
     61          6           0       11.097797    1.061131    1.164539
     62          6           0        9.950936    0.691261    2.171161
     63          6           0        9.851536    1.700455    3.298779
     64          6           0        9.676648    1.022003    4.719405
     65          6           0        8.445339    1.652561    5.492089
     66          6           0       10.971563    1.207914    5.622971
     67          1           0       -0.168853    1.740788   -0.528131
     68          1           0       -5.829380    5.215004   -0.300574
     69          1           0       -9.035358   -0.118481    0.837292
     70          1           0       -1.222138   -2.787581    0.314224
     71          1           0        0.235150   -0.862277   -1.086157
     72          1           0        0.534111   -1.994080    1.194774
     73          1           0       -0.209189   -0.571703    1.910399
     74          1           0        1.298824   -0.464744    0.871873
     75          1           0       -1.094058   -2.096101   -2.680208
     76          1           0       -2.365313   -3.166990   -2.143657
     77          1           0        0.187647   -3.809921   -2.997746
     78          1           0       -0.984301   -4.928756   -2.178255
     79          1           0       -0.149147    5.311185   -1.629838
     80          1           0        0.367971    3.829575   -0.809161
     81          1           0       -0.244761    5.154371    0.105930
     82          1           0       -1.629285    7.203861   -1.718458
     83          1           0       -1.329519    7.263875    0.096839
     84          1           0       -2.433627    8.360891   -0.642129
     85          1           0       -8.492843    4.301939   -0.464271
     86          1           0       -9.002446    2.431458    1.781598
     87          1           0       -8.387493    4.502687    2.476623
     88          1           0       -8.540636    5.830542    1.388945
     89          1           0       -6.911026    5.213023    1.840276
     90          1           0      -10.397050    3.347007   -0.026749
     91          1           0      -10.697266    1.751553    0.441998
     92          1           0       -9.058394    1.791610   -2.093682
     93          1           0      -10.497591    2.825310   -2.214565
     94          1           0      -10.549182    1.081583   -1.854857
     95          1           0       -9.417955   -2.432313    1.659716
     96          1           0       -8.549533   -3.933388    1.996897
     97          1           0       -9.035831   -3.492477    0.295383
     98          1           0       -3.848807   -4.493179   -0.775354
     99          1           0       -2.379654   -6.697306    2.512833
    100          1           0       -0.879432   -6.156536    1.678475
    101          1           0       -1.600950   -7.604625    1.106918
    102          1           0        3.197482   -4.584043    0.039816
    103          1           0        2.304443   -3.181627    0.675378
    104          1           0        3.882506   -1.707153    0.040892
    105          1           0        4.806427   -3.638911   -3.345976
    106          1           0        4.476838   -4.784328   -2.024948
    107          1           0        6.078109   -4.281085   -2.416937
    108          1           0        5.369852   -0.598123   -0.992275
    109          1           0        5.421296   -1.130153   -2.585190
    110          1           0        7.497381   -2.258581   -0.964837
    111          1           0        7.631890   -0.553755   -0.693371
    112          1           0        7.474992   -1.511961   -3.590568
    113          1           0        8.838474   -1.896402   -2.622379
    114          1           0        8.294212    0.877081   -2.038758
    115          1           0        7.524307    2.013844   -3.891733
    116          1           0        6.785794    0.557346   -4.328588
    117          1           0        8.273739    0.918150   -5.067312
    118          1           0       10.254305    0.476852   -4.092080
    119          1           0       10.419862   -0.418125   -2.465497
    120          1           0        9.846774    2.469801   -2.423425
    121          1           0       11.349786    2.169548   -3.327264
    122          1           0       12.234782    2.451515   -1.410617
    123          1           0       11.908756    0.682733   -1.212737
    124          1           0        9.625577    1.853822   -0.155411
    125          1           0       11.431924    3.579407    1.310877
    126          1           0        9.993840    4.056500    0.466810
    127          1           0       11.407264    4.100269   -0.461390
    128          1           0       11.882429    1.512984    1.771052
    129          1           0       11.410820    0.179775    0.604098
    130          1           0       10.209282   -0.286957    2.575834
    131          1           0        8.988485    0.725870    1.660884
    132          1           0        8.901557    2.197561    3.103608
    133          1           0       10.715382    2.359992    3.375919
    134          1           0        9.483961   -0.044453    4.601403
    135          1           0        8.018766    2.526296    4.999343
    136          1           0        8.628713    1.933438    6.528918
    137          1           0        7.681158    0.898774    5.301283
    138          1           0       11.603160    2.037250    5.308393
    139          1           0       11.601422    0.321639    5.699427
    140          1           0       10.670739    1.253024    6.669753
 ---------------------------------------------------------------------

 SCF Done:  E(RB-LYP) =  -3007.38014936     A.U. after   21 cycles

 Excitation energies and oscillator strengths:

 Excited State   1:      Singlet-A      1.7719 eV  699.71 nm  f=0.3165  <S**2>=0.000
     245 -> 248       -0.19712
     246 -> 247        0.69158
     246 <- 247       -0.15936
 This state for optimization and/or second-order correction.
 Total Energy, E(TD-HF/TD-DFT) =  -3007.31503204
 Copying the excited state density for this state as the 1-particle RhoCI density.

 Excited State   2:      Singlet-A      1.8166 eV  682.52 nm  f=0.0011  <S**2>=0.000
     244 -> 247        0.70081

 Excited State   3:      Singlet-A      1.9072 eV  650.08 nm  f=0.0005  <S**2>=0.000
     243 -> 247        0.70414

 Excited State   4:      Singlet-A      1.9913 eV  622.62 nm  f=0.0636  <S**2>=0.000
     245 -> 247        0.64175
     246 -> 248        0.25144

 Excited State   5:      Singlet-A      2.5016 eV  495.61 nm  f=0.0040  <S**2>=0.000
     240 -> 247        0.14434
     241 -> 247       -0.28312
     242 -> 247        0.60809
     246 -> 248       -0.12556

 The electronic state is 1-A.
 Alpha  occ. eigenvalues --  -46.26064 -18.82769 -18.82110 -18.77615 -18.75743
 Alpha  occ. eigenvalues --  -18.75297 -18.74545 -14.03350 -14.02621 -14.01545
 Alpha  occ. eigenvalues --  -14.00520 -10.04959 -10.03139  -9.99927  -9.98491
 Alpha  occ. eigenvalues --   -9.97866  -9.96567  -9.96535  -9.96499  -9.96335
 Alpha  occ. eigenvalues --   -9.96187  -9.95881  -9.95748  -9.95686  -9.94583
 Alpha  occ. eigenvalues --   -9.94511  -9.94428  -9.94366  -9.94184  -9.93956
 Alpha  occ. eigenvalues --   -9.93862  -9.93847  -9.93813  -9.93312  -9.93297
 Alpha  occ. eigenvalues --   -9.93258  -9.93135  -9.93040  -9.92831  -9.92756
 Alpha  occ. eigenvalues --   -9.92674  -9.92623  -9.92575  -9.92516  -9.92465
 Alpha  occ. eigenvalues --   -9.92248  -9.92192  -9.92188  -9.92026  -9.92014
 Alpha  occ. eigenvalues --   -9.91938  -9.91883  -9.91710  -9.91582  -9.91442
 Alpha  occ. eigenvalues --   -9.91277  -9.91228  -9.91119  -9.91100  -9.91038
 Alpha  occ. eigenvalues --   -9.91033  -9.90989  -9.90976  -9.90839  -9.90687
 Alpha  occ. eigenvalues --   -9.90634  -2.90834  -1.71273  -1.70694  -1.70559
 Alpha  occ. eigenvalues --   -0.98533  -0.98396  -0.90907  -0.90080  -0.89731
 Alpha  occ. eigenvalues --   -0.88857  -0.86774  -0.86258  -0.84639  -0.83644
 Alpha  occ. eigenvalues --   -0.75784  -0.74042  -0.73473  -0.73027  -0.72231
 Alpha  occ. eigenvalues --   -0.71930  -0.70903  -0.70732  -0.70494  -0.69709
 Alpha  occ. eigenvalues --   -0.69367  -0.69092  -0.68433  -0.67204  -0.66883
 Alpha  occ. eigenvalues --   -0.66148  -0.65653  -0.65119  -0.64905  -0.64240
 Alpha  occ. eigenvalues --   -0.64015  -0.62771  -0.62466  -0.61588  -0.61320
 Alpha  occ. eigenvalues --   -0.60452  -0.59996  -0.59753  -0.59686  -0.59488
 Alpha  occ. eigenvalues --   -0.58579  -0.57323  -0.56787  -0.56188  -0.55188
 Alpha  occ. eigenvalues --   -0.54206  -0.54047  -0.52664  -0.52391  -0.51373
 Alpha  occ. eigenvalues --   -0.51139  -0.50787  -0.50460  -0.50420  -0.49867
 Alpha  occ. eigenvalues --   -0.49422  -0.49289  -0.49153  -0.48023  -0.46486
 Alpha  occ. eigenvalues --   -0.46115  -0.46075  -0.45684  -0.44772  -0.44092
 Alpha  occ. eigenvalues --   -0.43732  -0.43654  -0.43243  -0.43094  -0.42481
 Alpha  occ. eigenvalues --   -0.42439  -0.42026  -0.41603  -0.41395  -0.41233
 Alpha  occ. eigenvalues --   -0.40905  -0.40793  -0.40458  -0.40291  -0.40174
 Alpha  occ. eigenvalues --   -0.39826  -0.39784  -0.39445  -0.39321  -0.39106
 Alpha  occ. eigenvalues --   -0.38922  -0.38823  -0.38383  -0.38316  -0.38092
 Alpha  occ. eigenvalues --   -0.37783  -0.37739  -0.37343  -0.37187  -0.37068
 Alpha  occ. eigenvalues --   -0.36892  -0.36723  -0.36632  -0.36518  -0.36266
 Alpha  occ. eigenvalues --   -0.36103  -0.36097  -0.35895  -0.35536  -0.35429
 Alpha  occ. eigenvalues --   -0.35318  -0.35090  -0.34984  -0.34879  -0.34806
 Alpha  occ. eigenvalues --   -0.34347  -0.34270  -0.34100  -0.33882  -0.33647
 Alpha  occ. eigenvalues --   -0.33512  -0.33486  -0.33414  -0.33353  -0.32907
 Alpha  occ. eigenvalues --   -0.32870  -0.32594  -0.32418  -0.32164  -0.32112
 Alpha  occ. eigenvalues --   -0.31905  -0.31815  -0.31650  -0.31588  -0.31360
 Alpha  occ. eigenvalues --   -0.31253  -0.30957  -0.30812  -0.30758  -0.30599
 Alpha  occ. eigenvalues --   -0.30455  -0.30434  -0.30181  -0.30056  -0.29960
 Alpha  occ. eigenvalues --   -0.29891  -0.29709  -0.29624  -0.29379  -0.28917
 Alpha  occ. eigenvalues --   -0.28570  -0.28555  -0.28514  -0.28057  -0.27967
 Alpha  occ. eigenvalues --   -0.27424  -0.27360  -0.27099  -0.26578  -0.26292
 Alpha  occ. eigenvalues --   -0.26248  -0.25892  -0.25856  -0.25697  -0.25645
 Alpha  occ. eigenvalues --   -0.25115  -0.24943  -0.24739  -0.23975  -0.23586
 Alpha  occ. eigenvalues --   -0.23372  -0.23031  -0.21679  -0.21367  -0.20813
 Alpha  occ. eigenvalues --   -0.20660  -0.19883  -0.18354  -0.17911  -0.17111
 Alpha  occ. eigenvalues --   -0.15479
 Alpha virt. eigenvalues --   -0.11407  -0.06673  -0.06246  -0.04716  -0.04531
 Alpha virt. eigenvalues --   -0.03536  -0.01844  -0.01361  -0.00785   0.00315
 Alpha virt. eigenvalues --    0.01074   0.01319   0.01684   0.02335   0.02640

 Mulliken charges:
               1
     1  Mg   0.698870
     2  C   -0.007927
     3  C   -0.028123
     4  C   -0.027768
     5  C   -0.104487
     6  N   -0.184500
     7  C   -0.107431
     8  C   -0.001206
     9  C   -0.002861
    10  C    0.018005
    11  C    0.114904
    12  C    0.122314
    13  C    0.178288
    14  C    0.073916
    15  O   -0.208215
    16  O   -0.272486
    17  N   -0.333509
    18  C    0.119321
    19  C   -0.138832
    20  C    0.033359
    21  C    0.119230
    22  C    0.154526
    23  C   -0.068636
    24  O   -0.175037
    25  C    0.134317
    26  N   -0.220686
    27  C   -0.014577
    28  C    0.045951
    29  C    0.039913
    30  C    0.106175
    31  C    0.110977
    32  C    0.027780
    33  C    0.078624
    34  N   -0.282444
    35  C    0.104749
    36  C   -0.172894
    37  C    0.121912
    38  C    0.091297
    39  C    0.172931
    40  C   -0.060721
    41  O   -0.173857
    42  C    0.090185
    43  C    0.070450
    44  O   -0.198847
    45  O   -0.231394
    46  C    0.223907
    47  C    0.361341
    48  C   -0.143107
    49  C   -0.097786
    50  C    0.125248
    51  C    0.112445
    52  C    0.062626
    53  C    0.109186
    54  C   -0.075302
    55  C    0.091761
    56  C    0.122575
    57  C    0.077134
    58  C    0.103831
    59  C   -0.093535
    60  C    0.106694
    61  C    0.116783
    62  C    0.070764
    63  C    0.112426
    64  C   -0.107353
    65  C    0.087559
    66  C    0.085487
    67  H   -0.058645
    68  H   -0.041625
    69  H   -0.066458
    70  H    0.010946
    71  H   -0.040850
    72  H    0.013583
    73  H    0.005669
    74  H   -0.004920
    75  H   -0.021277
    76  H   -0.011957
    77  H   -0.007908
    78  H    0.003593
    79  H    0.002253
    80  H   -0.014963
    81  H    0.000746
    82  H    0.009400
    83  H    0.008187
    84  H   -0.011436
    85  H   -0.011153
    86  H   -0.021967
    87  H   -0.019858
    88  H   -0.003743
    89  H    0.010975
    90  H   -0.030631
    91  H   -0.025157
    92  H   -0.004864
    93  H   -0.000713
    94  H   -0.009115
    95  H   -0.015547
    96  H    0.020359
    97  H    0.016021
    98  H   -0.011262
    99  H    0.015389
   100  H    0.023332
   101  H    0.010075
   102  H    0.003934
   103  H   -0.017434
   104  H   -0.040523
   105  H    0.000696
   106  H   -0.006975
   107  H   -0.015725
   108  H   -0.042766
   109  H   -0.017224
   110  H   -0.037039
   111  H   -0.012759
   112  H   -0.035064
   113  H   -0.042708
   114  H   -0.037564
   115  H   -0.020165
   116  H   -0.027303
   117  H   -0.017895
   118  H   -0.038873
   119  H   -0.032294
   120  H   -0.036764
   121  H   -0.036945
   122  H   -0.035831
   123  H   -0.039302
   124  H   -0.038566
   125  H   -0.016821
   126  H   -0.030596
   127  H   -0.009312
   128  H   -0.027838
   129  H   -0.040818
   130  H   -0.024496
   131  H   -0.026828
   132  H   -0.035411
   133  H   -0.020120
   134  H   -0.025390
   135  H   -0.022026
   136  H   -0.004283
   137  H   -0.017824
   138  H   -0.004790
   139  H   -0.025822
   140  H   -0.023261
 Sum of Mulliken charges =  -0.00000

 Dipole moment (field-independent basis, Debye):
    X=              3.6786    Y=              1.7939    Z=             -2.7094  Tot=              4.9083
 Quadrupole moment (field-independent basis, Debye-Ang):
   XX=           -384.4081   YY=           -435.3023   ZZ=           -403.1110
   XY=            -14.5032   XZ=             -0.5835   YZ=             14.0317

 Normal termination of Gaussian 16 at Thu Apr 28 04:31:03 2022.
