 Gaussian 16, Revision A.03,
 Gaussian 16:  ES64L-G16RevA.03 25-Dec-2016

 -----------------------------------
 #p cam-b3lyp/Def2SVP td=(nstates=5)
 -----------------------------------

 -------------------------------------------------------
 step_1401_chromophore_9 TDDFT with cam-b3lyp functional
 -------------------------------------------------------
 Symbolic Z-matrix:
 Charge =  0 Multiplicity = 1

                         Standard orientation:
 ---------------------------------------------------------------------
 Center     Atomic      Atomic             Coordinates (Angstroms)
 Number     Number       Type             X           Y           Z
 ---------------------------------------------------------------------
      1         12           0       -4.697820    0.921990   -0.110142
      2          6           0       -3.966342   -2.504275   -0.017007
      3          6           0       -1.244263    1.565254   -0.462385
      4          6           0       -5.516258    4.170546   -0.356937
      5          6           0       -7.997651    0.142474    0.620009
      6          7           0       -2.870518   -0.362866   -0.183426
      7          6           0       -2.804049   -1.671557   -0.251532
      8          6           0       -1.391171   -2.113447   -0.524693
      9          6           0       -0.517480   -0.903499   -0.297859
     10          6           0       -1.588122    0.186001   -0.364380
     11          6           0        0.329082   -0.934970    1.035416
     12          6           0       -1.355949   -2.825513   -1.913258
     13          6           0       -0.357533   -4.041714   -2.082999
     14          6           0        0.692281   -4.290843   -1.023621
     15          8           0        0.618282   -4.994553   -0.005899
     16          8           0        1.852141   -3.606689   -1.300853
     17          7           0       -3.581110    2.591590   -0.348073
     18          6           0       -2.185900    2.693609   -0.400852
     19          6           0       -1.857799    4.130025   -0.673652
     20          6           0       -3.046515    4.876557   -0.605051
     21          6           0       -4.121339    3.866247   -0.552625
     22          6           0       -0.389217    4.612805   -0.828962
     23          6           0       -3.215800    6.390909   -0.668389
     24          8           0       -4.322060    6.938036   -0.640275
     25          6           0       -2.045284    7.345685   -0.721103
     26          7           0       -6.450127    2.003632    0.149595
     27          6           0       -6.560908    3.330973    0.016707
     28          6           0       -7.966866    3.872936    0.389194
     29          6           0       -8.661254    2.531507    0.750723
     30          6           0       -7.659147    1.455597    0.480734
     31          6           0       -7.936147    4.945528    1.587801
     32          6           0       -9.977770    2.345021   -0.122004
     33          6           0      -10.028337    2.017427   -1.652042
     34          7           0       -5.798666   -0.807066    0.321682
     35          6           0       -7.162448   -1.022456    0.528541
     36          6           0       -7.390387   -2.424831    0.913057
     37          6           0       -6.095352   -3.048679    0.731945
     38          6           0       -5.204955   -2.032218    0.278035
     39          6           0       -8.685837   -3.136630    1.265264
     40          6           0       -5.424531   -4.265943    0.760032
     41          8           0       -5.905215   -5.393519    1.032239
     42          6           0       -4.030882   -4.006837    0.182615
     43          6           0       -2.925084   -4.614294    0.998506
     44          8           0       -2.459326   -3.982860    1.926242
     45          8           0       -2.688700   -5.886757    0.664674
     46          6           0       -1.847511   -6.645930    1.562920
     47          6           0        2.809884   -3.593439   -0.198343
     48          6           0        3.921793   -2.677420   -0.455256
     49          6           0        4.933403   -2.711665   -1.333379
     50          6           0        5.058302   -3.910244   -2.320206
     51          6           0        5.737635   -1.434820   -1.587815
     52          6           0        7.261800   -1.290231   -1.405694
     53          6           0        8.037108   -1.165153   -2.724420
     54          6           0        8.533569    0.303410   -2.933913
     55          6           0        7.768524    0.972265   -4.102309
     56          6           0       10.073476    0.455092   -3.017393
     57          6           0       10.690207    1.790725   -2.546789
     58          6           0       11.475761    1.681529   -1.270636
     59          6           0       10.686679    1.977752    0.062129
     60          6           0       10.939205    3.529111    0.340372
     61          6           0       11.097797    1.061131    1.164539
     62          6           0        9.950936    0.691261    2.171161
     63          6           0        9.851536    1.700455    3.298779
     64          6           0        9.676648    1.022003    4.719405
     65          6           0        8.445339    1.652561    5.492089
     66          6           0       10.971563    1.207914    5.622971
     67          1           0       -0.168853    1.740788   -0.528131
     68          1           0       -5.829380    5.215004   -0.300574
     69          1           0       -9.035358   -0.118481    0.837292
     70          1           0       -1.222138   -2.787581    0.314224
     71          1           0        0.235150   -0.862277   -1.086157
     72          1           0        0.534111   -1.994080    1.194774
     73          1           0       -0.209189   -0.571703    1.910399
     74          1           0        1.298824   -0.464744    0.871873
     75          1           0       -1.094058   -2.096101   -2.680208
     76          1           0       -2.365313   -3.166990   -2.143657
     77          1           0        0.187647   -3.809921   -2.997746
     78          1           0       -0.984301   -4.928756   -2.178255
     79          1           0       -0.149147    5.311185   -1.629838
     80          1           0        0.367971    3.829575   -0.809161
     81          1           0       -0.244761    5.154371    0.105930
     82          1           0       -1.629285    7.203861   -1.718458
     83          1           0       -1.329519    7.263875    0.096839
     84          1           0       -2.433627    8.360891   -0.642129
     85          1           0       -8.492843    4.301939   -0.464271
     86          1           0       -9.002446    2.431458    1.781598
     87          1           0       -8.387493    4.502687    2.476623
     88          1           0       -8.540636    5.830542    1.388945
     89          1           0       -6.911026    5.213023    1.840276
     90          1           0      -10.397050    3.347007   -0.026749
     91          1           0      -10.697266    1.751553    0.441998
     92          1           0       -9.058394    1.791610   -2.093682
     93          1           0      -10.497591    2.825310   -2.214565
     94          1           0      -10.549182    1.081583   -1.854857
     95          1           0       -9.417955   -2.432313    1.659716
     96          1           0       -8.549533   -3.933388    1.996897
     97          1           0       -9.035831   -3.492477    0.295383
     98          1           0       -3.848807   -4.493179   -0.775354
     99          1           0       -2.379654   -6.697306    2.512833
    100          1           0       -0.879432   -6.156536    1.678475
    101          1           0       -1.600950   -7.604625    1.106918
    102          1           0        3.197482   -4.584043    0.039816
    103          1           0        2.304443   -3.181627    0.675378
    104          1           0        3.882506   -1.707153    0.040892
    105          1           0        4.806427   -3.638911   -3.345976
    106          1           0        4.476838   -4.784328   -2.024948
    107          1           0        6.078109   -4.281085   -2.416937
    108          1           0        5.369852   -0.598123   -0.992275
    109          1           0        5.421296   -1.130153   -2.585190
    110          1           0        7.497381   -2.258581   -0.964837
    111          1           0        7.631890   -0.553755   -0.693371
    112          1           0        7.474992   -1.511961   -3.590568
    113          1           0        8.838474   -1.896402   -2.622379
    114          1           0        8.294212    0.877081   -2.038758
    115          1           0        7.524307    2.013844   -3.891733
    116          1           0        6.785794    0.557346   -4.328588
    117          1           0        8.273739    0.918150   -5.067312
    118          1           0       10.254305    0.476852   -4.092080
    119          1           0       10.419862   -0.418125   -2.465497
    120          1           0        9.846774    2.469801   -2.423425
    121          1           0       11.349786    2.169548   -3.327264
    122          1           0       12.234782    2.451515   -1.410617
    123          1           0       11.908756    0.682733   -1.212737
    124          1           0        9.625577    1.853822   -0.155411
    125          1           0       11.431924    3.579407    1.310877
    126          1           0        9.993840    4.056500    0.466810
    127          1           0       11.407264    4.100269   -0.461390
    128          1           0       11.882429    1.512984    1.771052
    129          1           0       11.410820    0.179775    0.604098
    130          1           0       10.209282   -0.286957    2.575834
    131          1           0        8.988485    0.725870    1.660884
    132          1           0        8.901557    2.197561    3.103608
    133          1           0       10.715382    2.359992    3.375919
    134          1           0        9.483961   -0.044453    4.601403
    135          1           0        8.018766    2.526296    4.999343
    136          1           0        8.628713    1.933438    6.528918
    137          1           0        7.681158    0.898774    5.301283
    138          1           0       11.603160    2.037250    5.308393
    139          1           0       11.601422    0.321639    5.699427
    140          1           0       10.670739    1.253024    6.669753
 ---------------------------------------------------------------------

 SCF Done:  E(RCAM-B3LYP) =  -3007.16969025     A.U. after   17 cycles

 Excitation energies and oscillator strengths:

 Excited State   1:      Singlet-A      1.6615 eV  746.21 nm  f=0.3991  <S**2>=0.000
     245 -> 248        0.17919
     246 -> 247        0.68509
     245 <- 248        0.10992
 This state for optimization and/or second-order correction.
 Total Energy, E(TD-HF/TD-DFT) =  -3007.10863053
 Copying the excited state density for this state as the 1-particle RhoCI density.

 Excited State   2:      Singlet-A      2.2141 eV  559.97 nm  f=0.0991  <S**2>=0.000
     245 -> 247        0.63413
     246 -> 248       -0.29868

 Excited State   3:      Singlet-A      3.1795 eV  389.95 nm  f=0.0025  <S**2>=0.000
     241 -> 247       -0.28566
     241 -> 249        0.15759
     242 -> 247       -0.36067
     242 -> 249        0.21409
     242 -> 250       -0.12164
     244 -> 247        0.38898

 Excited State   4:      Singlet-A      3.3128 eV  374.25 nm  f=0.0376  <S**2>=0.000
     241 -> 247        0.15431
     242 -> 247        0.29972
     242 -> 249       -0.11076
     244 -> 247        0.52989
     246 -> 248        0.23449

 Excited State   5:      Singlet-A      3.4814 eV  356.14 nm  f=0.6826  <S**2>=0.000
     243 -> 247        0.17692
     244 -> 247       -0.20329
     245 -> 247        0.28495
     246 -> 248        0.57448
     245 <- 247       -0.10605

 The electronic state is 1-A.
 Alpha  occ. eigenvalues --  -46.87526 -19.25692 -19.25112 -19.20678 -19.18926
 Alpha  occ. eigenvalues --  -19.18383 -19.17951 -14.42360 -14.41330 -14.39985
 Alpha  occ. eigenvalues --  -14.39057 -10.40364 -10.38642 -10.35008 -10.34048
 Alpha  occ. eigenvalues --  -10.31949 -10.31243 -10.30838 -10.30541 -10.30482
 Alpha  occ. eigenvalues --  -10.30474 -10.30467 -10.30126 -10.29997 -10.29332
 Alpha  occ. eigenvalues --  -10.28791 -10.28644 -10.28556 -10.28468 -10.28359
 Alpha  occ. eigenvalues --  -10.28058 -10.27816 -10.27778 -10.27740 -10.27594
 Alpha  occ. eigenvalues --  -10.27158 -10.27113 -10.27077 -10.26884 -10.26499
 Alpha  occ. eigenvalues --  -10.26437 -10.26423 -10.26412 -10.26303 -10.26278
 Alpha  occ. eigenvalues --  -10.26158 -10.25945 -10.25856 -10.25804 -10.25707
 Alpha  occ. eigenvalues --  -10.25680 -10.25598 -10.25584 -10.25441 -10.25128
 Alpha  occ. eigenvalues --  -10.25037 -10.24931 -10.24857 -10.24793 -10.24735
 Alpha  occ. eigenvalues --  -10.24681 -10.24666 -10.24663 -10.24594 -10.24445
 Alpha  occ. eigenvalues --  -10.24299  -3.16210  -1.91124  -1.90649  -1.90535
 Alpha  occ. eigenvalues --   -1.17057  -1.16997  -1.09168  -1.08203  -1.07609
 Alpha  occ. eigenvalues --   -1.07385  -1.04620  -1.03890  -1.02351  -1.00950
 Alpha  occ. eigenvalues --   -0.93130  -0.90916  -0.90309  -0.89843  -0.88930
 Alpha  occ. eigenvalues --   -0.88560  -0.87481  -0.87274  -0.87044  -0.86225
 Alpha  occ. eigenvalues --   -0.85866  -0.85617  -0.84733  -0.83385  -0.82985
 Alpha  occ. eigenvalues --   -0.82205  -0.81563  -0.80989  -0.80921  -0.80046
 Alpha  occ. eigenvalues --   -0.79843  -0.78544  -0.78101  -0.77071  -0.76726
 Alpha  occ. eigenvalues --   -0.75930  -0.75331  -0.75064  -0.74935  -0.74744
 Alpha  occ. eigenvalues --   -0.73663  -0.72384  -0.71699  -0.71057  -0.69821
 Alpha  occ. eigenvalues --   -0.68860  -0.68738  -0.67016  -0.66785  -0.65553
 Alpha  occ. eigenvalues --   -0.65323  -0.64698  -0.64546  -0.64263  -0.63831
 Alpha  occ. eigenvalues --   -0.63389  -0.63262  -0.63083  -0.61787  -0.60172
 Alpha  occ. eigenvalues --   -0.59760  -0.59540  -0.59230  -0.58235  -0.57525
 Alpha  occ. eigenvalues --   -0.57311  -0.56964  -0.56720  -0.56438  -0.55725
 Alpha  occ. eigenvalues --   -0.55520  -0.54802  -0.54483  -0.54421  -0.54044
 Alpha  occ. eigenvalues --   -0.53952  -0.53678  -0.53385  -0.53133  -0.52883
 Alpha  occ. eigenvalues --   -0.52497  -0.52378  -0.52162  -0.51900  -0.51846
 Alpha  occ. eigenvalues --   -0.51286  -0.51263  -0.50957  -0.50758  -0.50675
 Alpha  occ. eigenvalues --   -0.50287  -0.50159  -0.49722  -0.49356  -0.49196
 Alpha  occ. eigenvalues --   -0.49146  -0.48936  -0.48863  -0.48762  -0.48503
 Alpha  occ. eigenvalues --   -0.48345  -0.48217  -0.48175  -0.47924  -0.47501
 Alpha  occ. eigenvalues --   -0.47453  -0.47378  -0.46947  -0.46756  -0.46589
 Alpha  occ. eigenvalues --   -0.46393  -0.46107  -0.46027  -0.45740  -0.45436
 Alpha  occ. eigenvalues --   -0.45321  -0.45277  -0.45115  -0.45093  -0.44976
 Alpha  occ. eigenvalues --   -0.44523  -0.44409  -0.44149  -0.43869  -0.43736
 Alpha  occ. eigenvalues --   -0.43510  -0.43430  -0.43283  -0.43058  -0.42985
 Alpha  occ. eigenvalues --   -0.42789  -0.42416  -0.42276  -0.42017  -0.41912
 Alpha  occ. eigenvalues --   -0.41831  -0.41774  -0.41588  -0.41462  -0.41324
 Alpha  occ. eigenvalues --   -0.41169  -0.41026  -0.40948  -0.40765  -0.40469
 Alpha  occ. eigenvalues --   -0.39645  -0.39603  -0.39502  -0.39268  -0.38827
 Alpha  occ. eigenvalues --   -0.38285  -0.38216  -0.37892  -0.37626  -0.37319
 Alpha  occ. eigenvalues --   -0.37072  -0.36961  -0.36766  -0.36533  -0.36392
 Alpha  occ. eigenvalues --   -0.36152  -0.35660  -0.35486  -0.35104  -0.34472
 Alpha  occ. eigenvalues --   -0.34347  -0.33435  -0.32705  -0.31272  -0.30765
 Alpha  occ. eigenvalues --   -0.30566  -0.30476  -0.29884  -0.29217  -0.23901
 Alpha  occ. eigenvalues --   -0.20698
 Alpha virt. eigenvalues --   -0.08596  -0.01533   0.00188   0.02199   0.03010
 Alpha virt. eigenvalues --    0.03606   0.04075   0.05668   0.05878   0.06616
 Alpha virt. eigenvalues --    0.07538   0.08018   0.08547   0.08990   0.09084

 Mulliken charges:
               1
     1  Mg   0.834163
     2  C   -0.030403
     3  C   -0.036138
     4  C   -0.050768
     5  C   -0.112752
     6  N   -0.252160
     7  C   -0.051496
     8  C   -0.066561
     9  C   -0.051811
    10  C    0.025302
    11  C    0.066187
    12  C    0.074003
    13  C    0.106723
    14  C    0.150417
    15  O   -0.250434
    16  O   -0.333370
    17  N   -0.418864
    18  C    0.128392
    19  C   -0.148743
    20  C   -0.038282
    21  C    0.149240
    22  C    0.099112
    23  C    0.007079
    24  O   -0.217172
    25  C    0.054123
    26  N   -0.298939
    27  C    0.006422
    28  C   -0.010811
    29  C   -0.015579
    30  C    0.122666
    31  C    0.055144
    32  C   -0.027389
    33  C    0.017279
    34  N   -0.368885
    35  C    0.113470
    36  C   -0.163713
    37  C    0.042938
    38  C    0.122401
    39  C    0.124046
    40  C    0.032700
    41  O   -0.210594
    42  C    0.019516
    43  C    0.155174
    44  O   -0.233772
    45  O   -0.293820
    46  C    0.181680
    47  C    0.323894
    48  C   -0.162712
    49  C   -0.118291
    50  C    0.070001
    51  C    0.056534
    52  C    0.008340
    53  C    0.051418
    54  C   -0.129415
    55  C    0.036376
    56  C    0.070071
    57  C    0.023613
    58  C    0.048273
    59  C   -0.142188
    60  C    0.050478
    61  C    0.059271
    62  C    0.018454
    63  C    0.060375
    64  C   -0.165198
    65  C    0.028097
    66  C    0.029055
    67  H   -0.023823
    68  H   -0.001930
    69  H   -0.031564
    70  H    0.045590
    71  H   -0.003546
    72  H    0.028675
    73  H    0.032552
    74  H    0.016561
    75  H    0.011350
    76  H    0.018350
    77  H    0.028040
    78  H    0.035023
    79  H    0.027147
    80  H    0.011914
    81  H    0.024711
    82  H    0.034983
    83  H    0.035520
    84  H    0.024249
    85  H    0.022683
    86  H    0.014214
    87  H    0.004269
    88  H    0.020203
    89  H    0.035499
    90  H   -0.001749
    91  H    0.002836
    92  H    0.018120
    93  H    0.022813
    94  H    0.014501
    95  H    0.009613
    96  H    0.048175
    97  H    0.042799
    98  H    0.030510
    99  H    0.039210
   100  H    0.047498
   101  H    0.034394
   102  H    0.032881
   103  H    0.011374
   104  H   -0.011251
   105  H    0.024240
   106  H    0.017432
   107  H    0.007401
   108  H   -0.010068
   109  H    0.009131
   110  H   -0.006711
   111  H    0.012143
   112  H   -0.006353
   113  H   -0.011085
   114  H   -0.009017
   115  H    0.003867
   116  H   -0.003473
   117  H    0.006004
   118  H   -0.010220
   119  H   -0.005246
   120  H   -0.010330
   121  H   -0.005176
   122  H   -0.006090
   123  H   -0.011197
   124  H   -0.011455
   125  H    0.004947
   126  H   -0.006031
   127  H    0.014257
   128  H   -0.000579
   129  H   -0.010331
   130  H    0.004278
   131  H   -0.001224
   132  H   -0.006399
   133  H    0.003428
   134  H    0.005661
   135  H    0.001792
   136  H    0.019209
   137  H    0.006221
   138  H    0.016913
   139  H   -0.001165
   140  H    0.000665
 Sum of Mulliken charges =  -0.00000

 Dipole moment (field-independent basis, Debye):
    X=              3.7715    Y=              1.7102    Z=             -2.8331  Tot=              5.0175
 Quadrupole moment (field-independent basis, Debye-Ang):
   XX=           -382.6755   YY=           -432.4811   ZZ=           -402.7777
   XY=            -12.6583   XZ=             -1.2566   YZ=             14.3148

 Normal termination of Gaussian 16 at Thu Apr 28 03:17:01 2022.
