 Gaussian 16, Revision A.03,
 Gaussian 16:  ES64L-G16RevA.03 25-Dec-2016

 ---------------------------------
 #p PBE1PBE/Def2SVP td=(nstates=5)
 ---------------------------------

 -----------------------------------------------------
 step_1401_chromophore_9 TDDFT with PBE1PBE functional
 -----------------------------------------------------
 Symbolic Z-matrix:
 Charge =  0 Multiplicity = 1

                         Standard orientation:
 ---------------------------------------------------------------------
 Center     Atomic      Atomic             Coordinates (Angstroms)
 Number     Number       Type             X           Y           Z
 ---------------------------------------------------------------------
      1         12           0       -4.697820    0.921990   -0.110142
      2          6           0       -3.966342   -2.504275   -0.017007
      3          6           0       -1.244263    1.565254   -0.462385
      4          6           0       -5.516258    4.170546   -0.356937
      5          6           0       -7.997651    0.142474    0.620009
      6          7           0       -2.870518   -0.362866   -0.183426
      7          6           0       -2.804049   -1.671557   -0.251532
      8          6           0       -1.391171   -2.113447   -0.524693
      9          6           0       -0.517480   -0.903499   -0.297859
     10          6           0       -1.588122    0.186001   -0.364380
     11          6           0        0.329082   -0.934970    1.035416
     12          6           0       -1.355949   -2.825513   -1.913258
     13          6           0       -0.357533   -4.041714   -2.082999
     14          6           0        0.692281   -4.290843   -1.023621
     15          8           0        0.618282   -4.994553   -0.005899
     16          8           0        1.852141   -3.606689   -1.300853
     17          7           0       -3.581110    2.591590   -0.348073
     18          6           0       -2.185900    2.693609   -0.400852
     19          6           0       -1.857799    4.130025   -0.673652
     20          6           0       -3.046515    4.876557   -0.605051
     21          6           0       -4.121339    3.866247   -0.552625
     22          6           0       -0.389217    4.612805   -0.828962
     23          6           0       -3.215800    6.390909   -0.668389
     24          8           0       -4.322060    6.938036   -0.640275
     25          6           0       -2.045284    7.345685   -0.721103
     26          7           0       -6.450127    2.003632    0.149595
     27          6           0       -6.560908    3.330973    0.016707
     28          6           0       -7.966866    3.872936    0.389194
     29          6           0       -8.661254    2.531507    0.750723
     30          6           0       -7.659147    1.455597    0.480734
     31          6           0       -7.936147    4.945528    1.587801
     32          6           0       -9.977770    2.345021   -0.122004
     33          6           0      -10.028337    2.017427   -1.652042
     34          7           0       -5.798666   -0.807066    0.321682
     35          6           0       -7.162448   -1.022456    0.528541
     36          6           0       -7.390387   -2.424831    0.913057
     37          6           0       -6.095352   -3.048679    0.731945
     38          6           0       -5.204955   -2.032218    0.278035
     39          6           0       -8.685837   -3.136630    1.265264
     40          6           0       -5.424531   -4.265943    0.760032
     41          8           0       -5.905215   -5.393519    1.032239
     42          6           0       -4.030882   -4.006837    0.182615
     43          6           0       -2.925084   -4.614294    0.998506
     44          8           0       -2.459326   -3.982860    1.926242
     45          8           0       -2.688700   -5.886757    0.664674
     46          6           0       -1.847511   -6.645930    1.562920
     47          6           0        2.809884   -3.593439   -0.198343
     48          6           0        3.921793   -2.677420   -0.455256
     49          6           0        4.933403   -2.711665   -1.333379
     50          6           0        5.058302   -3.910244   -2.320206
     51          6           0        5.737635   -1.434820   -1.587815
     52          6           0        7.261800   -1.290231   -1.405694
     53          6           0        8.037108   -1.165153   -2.724420
     54          6           0        8.533569    0.303410   -2.933913
     55          6           0        7.768524    0.972265   -4.102309
     56          6           0       10.073476    0.455092   -3.017393
     57          6           0       10.690207    1.790725   -2.546789
     58          6           0       11.475761    1.681529   -1.270636
     59          6           0       10.686679    1.977752    0.062129
     60          6           0       10.939205    3.529111    0.340372
     61          6           0       11.097797    1.061131    1.164539
     62          6           0        9.950936    0.691261    2.171161
     63          6           0        9.851536    1.700455    3.298779
     64          6           0        9.676648    1.022003    4.719405
     65          6           0        8.445339    1.652561    5.492089
     66          6           0       10.971563    1.207914    5.622971
     67          1           0       -0.168853    1.740788   -0.528131
     68          1           0       -5.829380    5.215004   -0.300574
     69          1           0       -9.035358   -0.118481    0.837292
     70          1           0       -1.222138   -2.787581    0.314224
     71          1           0        0.235150   -0.862277   -1.086157
     72          1           0        0.534111   -1.994080    1.194774
     73          1           0       -0.209189   -0.571703    1.910399
     74          1           0        1.298824   -0.464744    0.871873
     75          1           0       -1.094058   -2.096101   -2.680208
     76          1           0       -2.365313   -3.166990   -2.143657
     77          1           0        0.187647   -3.809921   -2.997746
     78          1           0       -0.984301   -4.928756   -2.178255
     79          1           0       -0.149147    5.311185   -1.629838
     80          1           0        0.367971    3.829575   -0.809161
     81          1           0       -0.244761    5.154371    0.105930
     82          1           0       -1.629285    7.203861   -1.718458
     83          1           0       -1.329519    7.263875    0.096839
     84          1           0       -2.433627    8.360891   -0.642129
     85          1           0       -8.492843    4.301939   -0.464271
     86          1           0       -9.002446    2.431458    1.781598
     87          1           0       -8.387493    4.502687    2.476623
     88          1           0       -8.540636    5.830542    1.388945
     89          1           0       -6.911026    5.213023    1.840276
     90          1           0      -10.397050    3.347007   -0.026749
     91          1           0      -10.697266    1.751553    0.441998
     92          1           0       -9.058394    1.791610   -2.093682
     93          1           0      -10.497591    2.825310   -2.214565
     94          1           0      -10.549182    1.081583   -1.854857
     95          1           0       -9.417955   -2.432313    1.659716
     96          1           0       -8.549533   -3.933388    1.996897
     97          1           0       -9.035831   -3.492477    0.295383
     98          1           0       -3.848807   -4.493179   -0.775354
     99          1           0       -2.379654   -6.697306    2.512833
    100          1           0       -0.879432   -6.156536    1.678475
    101          1           0       -1.600950   -7.604625    1.106918
    102          1           0        3.197482   -4.584043    0.039816
    103          1           0        2.304443   -3.181627    0.675378
    104          1           0        3.882506   -1.707153    0.040892
    105          1           0        4.806427   -3.638911   -3.345976
    106          1           0        4.476838   -4.784328   -2.024948
    107          1           0        6.078109   -4.281085   -2.416937
    108          1           0        5.369852   -0.598123   -0.992275
    109          1           0        5.421296   -1.130153   -2.585190
    110          1           0        7.497381   -2.258581   -0.964837
    111          1           0        7.631890   -0.553755   -0.693371
    112          1           0        7.474992   -1.511961   -3.590568
    113          1           0        8.838474   -1.896402   -2.622379
    114          1           0        8.294212    0.877081   -2.038758
    115          1           0        7.524307    2.013844   -3.891733
    116          1           0        6.785794    0.557346   -4.328588
    117          1           0        8.273739    0.918150   -5.067312
    118          1           0       10.254305    0.476852   -4.092080
    119          1           0       10.419862   -0.418125   -2.465497
    120          1           0        9.846774    2.469801   -2.423425
    121          1           0       11.349786    2.169548   -3.327264
    122          1           0       12.234782    2.451515   -1.410617
    123          1           0       11.908756    0.682733   -1.212737
    124          1           0        9.625577    1.853822   -0.155411
    125          1           0       11.431924    3.579407    1.310877
    126          1           0        9.993840    4.056500    0.466810
    127          1           0       11.407264    4.100269   -0.461390
    128          1           0       11.882429    1.512984    1.771052
    129          1           0       11.410820    0.179775    0.604098
    130          1           0       10.209282   -0.286957    2.575834
    131          1           0        8.988485    0.725870    1.660884
    132          1           0        8.901557    2.197561    3.103608
    133          1           0       10.715382    2.359992    3.375919
    134          1           0        9.483961   -0.044453    4.601403
    135          1           0        8.018766    2.526296    4.999343
    136          1           0        8.628713    1.933438    6.528918
    137          1           0        7.681158    0.898774    5.301283
    138          1           0       11.603160    2.037250    5.308393
    139          1           0       11.601422    0.321639    5.699427
    140          1           0       10.670739    1.253024    6.669753
 ---------------------------------------------------------------------

 SCF Done:  E(RPBE1PBE) =  -3005.35776605     A.U. after   16 cycles

 Excitation energies and oscillator strengths:

 Excited State   1:      Singlet-A      1.8154 eV  682.96 nm  f=0.3851  <S**2>=0.000
     245 -> 248        0.17494
     246 -> 247        0.69375
     246 <- 247       -0.11576
 This state for optimization and/or second-order correction.
 Total Energy, E(TD-HF/TD-DFT) =  -3005.29105127
 Copying the excited state density for this state as the 1-particle RhoCI density.

 Excited State   2:      Singlet-A      2.2128 eV  560.31 nm  f=0.0969  <S**2>=0.000
     245 -> 247        0.64821
     246 -> 248       -0.26962

 Excited State   3:      Singlet-A      2.7654 eV  448.35 nm  f=0.0021  <S**2>=0.000
     242 -> 247       -0.15129
     243 -> 247        0.43227
     243 -> 249       -0.13950
     244 -> 247        0.49010

 Excited State   4:      Singlet-A      3.0183 eV  410.78 nm  f=0.0025  <S**2>=0.000
     243 -> 247        0.49856
     244 -> 247       -0.46562
     246 -> 248        0.12315

 Excited State   5:      Singlet-A      3.0997 eV  399.99 nm  f=0.0013  <S**2>=0.000
     241 -> 247        0.11581
     242 -> 247        0.64781
     242 -> 249        0.13558
     243 -> 247        0.13276

 The electronic state is 1-A.
 Alpha  occ. eigenvalues --  -46.90945 -19.26316 -19.25672 -19.20901 -19.19081
 Alpha  occ. eigenvalues --  -19.18726 -19.18024 -14.41783 -14.40910 -14.39752
 Alpha  occ. eigenvalues --  -14.38650 -10.37354 -10.35551 -10.32264 -10.30982
 Alpha  occ. eigenvalues --  -10.29312 -10.28843 -10.28718 -10.28446 -10.28337
 Alpha  occ. eigenvalues --  -10.28038 -10.27820 -10.27749 -10.27710 -10.26821
 Alpha  occ. eigenvalues --  -10.26663 -10.26233 -10.26054 -10.26007 -10.25980
 Alpha  occ. eigenvalues --  -10.25711 -10.25626 -10.25588 -10.25293 -10.25252
 Alpha  occ. eigenvalues --  -10.24998 -10.24877 -10.24778 -10.24605 -10.24143
 Alpha  occ. eigenvalues --  -10.24113 -10.23905 -10.23893 -10.23888 -10.23730
 Alpha  occ. eigenvalues --  -10.23681 -10.23676 -10.23398 -10.23368 -10.23277
 Alpha  occ. eigenvalues --  -10.23251 -10.23215 -10.23142 -10.23014 -10.22725
 Alpha  occ. eigenvalues --  -10.22578 -10.22490 -10.22369 -10.22276 -10.22271
 Alpha  occ. eigenvalues --  -10.22253 -10.22237 -10.22097 -10.22019 -10.21894
 Alpha  occ. eigenvalues --  -10.21876  -3.13205  -1.86061  -1.85563  -1.85454
 Alpha  occ. eigenvalues --   -1.11787  -1.11734  -1.04004  -1.02924  -1.02410
 Alpha  occ. eigenvalues --   -1.01934  -0.99178  -0.98530  -0.96909  -0.95737
 Alpha  occ. eigenvalues --   -0.87398  -0.85063  -0.84435  -0.84029  -0.83073
 Alpha  occ. eigenvalues --   -0.82883  -0.81771  -0.81475  -0.81316  -0.80592
 Alpha  occ. eigenvalues --   -0.80050  -0.79867  -0.78940  -0.77650  -0.77184
 Alpha  occ. eigenvalues --   -0.76469  -0.75805  -0.75203  -0.75194  -0.74303
 Alpha  occ. eigenvalues --   -0.74081  -0.72749  -0.72439  -0.71381  -0.70875
 Alpha  occ. eigenvalues --   -0.70200  -0.69441  -0.69299  -0.69175  -0.68935
 Alpha  occ. eigenvalues --   -0.67967  -0.66800  -0.66079  -0.65416  -0.64170
 Alpha  occ. eigenvalues --   -0.63263  -0.63024  -0.61429  -0.61172  -0.60025
 Alpha  occ. eigenvalues --   -0.59557  -0.59249  -0.59038  -0.58755  -0.58372
 Alpha  occ. eigenvalues --   -0.57582  -0.57414  -0.57247  -0.56315  -0.54546
 Alpha  occ. eigenvalues --   -0.54194  -0.54167  -0.53793  -0.52809  -0.51868
 Alpha  occ. eigenvalues --   -0.51740  -0.51449  -0.51262  -0.50869  -0.50190
 Alpha  occ. eigenvalues --   -0.50117  -0.49183  -0.49120  -0.48946  -0.48493
 Alpha  occ. eigenvalues --   -0.48455  -0.48179  -0.47891  -0.47698  -0.47411
 Alpha  occ. eigenvalues --   -0.47000  -0.46874  -0.46771  -0.46419  -0.46382
 Alpha  occ. eigenvalues --   -0.45842  -0.45806  -0.45385  -0.45381  -0.45214
 Alpha  occ. eigenvalues --   -0.44872  -0.44778  -0.44305  -0.43915  -0.43808
 Alpha  occ. eigenvalues --   -0.43750  -0.43564  -0.43475  -0.43355  -0.43134
 Alpha  occ. eigenvalues --   -0.42995  -0.42806  -0.42795  -0.42563  -0.42171
 Alpha  occ. eigenvalues --   -0.42122  -0.42045  -0.41611  -0.41429  -0.41223
 Alpha  occ. eigenvalues --   -0.41003  -0.40857  -0.40707  -0.40465  -0.40083
 Alpha  occ. eigenvalues --   -0.40050  -0.39929  -0.39893  -0.39757  -0.39594
 Alpha  occ. eigenvalues --   -0.39189  -0.39136  -0.38891  -0.38638  -0.38473
 Alpha  occ. eigenvalues --   -0.38329  -0.38178  -0.38105  -0.37846  -0.37728
 Alpha  occ. eigenvalues --   -0.37619  -0.37200  -0.37084  -0.36782  -0.36737
 Alpha  occ. eigenvalues --   -0.36689  -0.36564  -0.36462  -0.36268  -0.36219
 Alpha  occ. eigenvalues --   -0.35946  -0.35910  -0.35744  -0.35676  -0.35345
 Alpha  occ. eigenvalues --   -0.34572  -0.34398  -0.34290  -0.34173  -0.33682
 Alpha  occ. eigenvalues --   -0.33210  -0.33038  -0.32730  -0.32639  -0.32171
 Alpha  occ. eigenvalues --   -0.31976  -0.31835  -0.31793  -0.31455  -0.31377
 Alpha  occ. eigenvalues --   -0.31085  -0.30612  -0.30361  -0.29834  -0.29655
 Alpha  occ. eigenvalues --   -0.29319  -0.28605  -0.27865  -0.26599  -0.26399
 Alpha  occ. eigenvalues --   -0.25732  -0.25336  -0.25211  -0.24650  -0.20803
 Alpha  occ. eigenvalues --   -0.18367
 Alpha virt. eigenvalues --   -0.11027  -0.05030  -0.03991  -0.02185  -0.01488
 Alpha virt. eigenvalues --   -0.00562   0.00983   0.01371   0.01782   0.02988
 Alpha virt. eigenvalues --    0.03930   0.04117   0.04758   0.05286   0.05593

 Mulliken charges:
               1
     1  Mg   0.990361
     2  C   -0.030718
     3  C   -0.036098
     4  C   -0.047652
     5  C   -0.099561
     6  N   -0.360103
     7  C    0.032363
     8  C   -0.151074
     9  C   -0.123695
    10  C    0.058582
    11  C    0.008013
    12  C    0.027264
    13  C    0.033305
    14  C    0.210816
    15  O   -0.284005
    16  O   -0.362235
    17  N   -0.532143
    18  C    0.163298
    19  C   -0.177959
    20  C   -0.085769
    21  C    0.186663
    22  C    0.039812
    23  C    0.053667
    24  O   -0.252116
    25  C   -0.019123
    26  N   -0.412166
    27  C    0.041651
    28  C   -0.087845
    29  C   -0.089679
    30  C    0.152676
    31  C   -0.001656
    32  C   -0.089827
    33  C   -0.052789
    34  N   -0.487665
    35  C    0.135511
    36  C   -0.176822
    37  C   -0.000128
    38  C    0.157652
    39  C    0.069635
    40  C    0.116828
    41  O   -0.257616
    42  C   -0.083437
    43  C    0.243207
    44  O   -0.267413
    45  O   -0.329959
    46  C    0.126414
    47  C    0.271006
    48  C   -0.171653
    49  C   -0.162949
    50  C    0.012495
    51  C    0.000780
    52  C   -0.065275
    53  C   -0.001283
    54  C   -0.218763
    55  C   -0.019311
    56  C    0.017676
    57  C   -0.040411
    58  C   -0.011127
    59  C   -0.219372
    60  C   -0.007764
    61  C   -0.002895
    62  C   -0.048717
    63  C    0.008371
    64  C   -0.254428
    65  C   -0.032892
    66  C   -0.029278
    67  H    0.007590
    68  H    0.030477
    69  H    0.001385
    70  H    0.092232
    71  H    0.033785
    72  H    0.056969
    73  H    0.060192
    74  H    0.044250
    75  H    0.042654
    76  H    0.052411
    77  H    0.060216
    78  H    0.066350
    79  H    0.054397
    80  H    0.039883
    81  H    0.054036
    82  H    0.062372
    83  H    0.061148
    84  H    0.052376
    85  H    0.059229
    86  H    0.050437
    87  H    0.032184
    88  H    0.047490
    89  H    0.062335
    90  H    0.033339
    91  H    0.034661
    92  H    0.046707
    93  H    0.049328
    94  H    0.042162
    95  H    0.036015
    96  H    0.073740
    97  H    0.070445
    98  H    0.067841
    99  H    0.061509
   100  H    0.070487
   101  H    0.055852
   102  H    0.059261
   103  H    0.041487
   104  H    0.018824
   105  H    0.051100
   106  H    0.044404
   107  H    0.035281
   108  H    0.021306
   109  H    0.042811
   110  H    0.029386
   111  H    0.045665
   112  H    0.025480
   113  H    0.020721
   114  H    0.032430
   115  H    0.030781
   116  H    0.024058
   117  H    0.032516
   118  H    0.023787
   119  H    0.026464
   120  H    0.023273
   121  H    0.027448
   122  H    0.027203
   123  H    0.020240
   124  H    0.028523
   125  H    0.032451
   126  H    0.021759
   127  H    0.039980
   128  H    0.032435
   129  H    0.023438
   130  H    0.036969
   131  H    0.032971
   132  H    0.026940
   133  H    0.034057
   134  H    0.041608
   135  H    0.028762
   136  H    0.045119
   137  H    0.034366
   138  H    0.042760
   139  H    0.026970
   140  H    0.027808
 Sum of Mulliken charges =  -0.00000

 Dipole moment (field-independent basis, Debye):
    X=              3.8287    Y=              2.0723    Z=             -2.8608  Tot=              5.2094
 Quadrupole moment (field-independent basis, Debye-Ang):
   XX=           -378.1640   YY=           -429.2548   ZZ=           -400.2219
   XY=            -14.7895   XZ=             -1.6098   YZ=             14.5496

 Normal termination of Gaussian 16 at Thu Apr 28 03:40:03 2022.
