 Gaussian 16, Revision A.03,
 Gaussian 16:  ES64L-G16RevA.03 25-Dec-2016

 --------------------------------
 #p wB97XD/Def2SVP td=(nstates=5)
 --------------------------------

 ----------------------------------------------------
 step_1401_chromophore_9 TDDFT with wB97XD functional
 ----------------------------------------------------
 Symbolic Z-matrix:
 Charge =  0 Multiplicity = 1

                         Standard orientation:
 ---------------------------------------------------------------------
 Center     Atomic      Atomic             Coordinates (Angstroms)
 Number     Number       Type             X           Y           Z
 ---------------------------------------------------------------------
      1         12           0       -4.697820    0.921990   -0.110142
      2          6           0       -3.966342   -2.504275   -0.017007
      3          6           0       -1.244263    1.565254   -0.462385
      4          6           0       -5.516258    4.170546   -0.356937
      5          6           0       -7.997651    0.142474    0.620009
      6          7           0       -2.870518   -0.362866   -0.183426
      7          6           0       -2.804049   -1.671557   -0.251532
      8          6           0       -1.391171   -2.113447   -0.524693
      9          6           0       -0.517480   -0.903499   -0.297859
     10          6           0       -1.588122    0.186001   -0.364380
     11          6           0        0.329082   -0.934970    1.035416
     12          6           0       -1.355949   -2.825513   -1.913258
     13          6           0       -0.357533   -4.041714   -2.082999
     14          6           0        0.692281   -4.290843   -1.023621
     15          8           0        0.618282   -4.994553   -0.005899
     16          8           0        1.852141   -3.606689   -1.300853
     17          7           0       -3.581110    2.591590   -0.348073
     18          6           0       -2.185900    2.693609   -0.400852
     19          6           0       -1.857799    4.130025   -0.673652
     20          6           0       -3.046515    4.876557   -0.605051
     21          6           0       -4.121339    3.866247   -0.552625
     22          6           0       -0.389217    4.612805   -0.828962
     23          6           0       -3.215800    6.390909   -0.668389
     24          8           0       -4.322060    6.938036   -0.640275
     25          6           0       -2.045284    7.345685   -0.721103
     26          7           0       -6.450127    2.003632    0.149595
     27          6           0       -6.560908    3.330973    0.016707
     28          6           0       -7.966866    3.872936    0.389194
     29          6           0       -8.661254    2.531507    0.750723
     30          6           0       -7.659147    1.455597    0.480734
     31          6           0       -7.936147    4.945528    1.587801
     32          6           0       -9.977770    2.345021   -0.122004
     33          6           0      -10.028337    2.017427   -1.652042
     34          7           0       -5.798666   -0.807066    0.321682
     35          6           0       -7.162448   -1.022456    0.528541
     36          6           0       -7.390387   -2.424831    0.913057
     37          6           0       -6.095352   -3.048679    0.731945
     38          6           0       -5.204955   -2.032218    0.278035
     39          6           0       -8.685837   -3.136630    1.265264
     40          6           0       -5.424531   -4.265943    0.760032
     41          8           0       -5.905215   -5.393519    1.032239
     42          6           0       -4.030882   -4.006837    0.182615
     43          6           0       -2.925084   -4.614294    0.998506
     44          8           0       -2.459326   -3.982860    1.926242
     45          8           0       -2.688700   -5.886757    0.664674
     46          6           0       -1.847511   -6.645930    1.562920
     47          6           0        2.809884   -3.593439   -0.198343
     48          6           0        3.921793   -2.677420   -0.455256
     49          6           0        4.933403   -2.711665   -1.333379
     50          6           0        5.058302   -3.910244   -2.320206
     51          6           0        5.737635   -1.434820   -1.587815
     52          6           0        7.261800   -1.290231   -1.405694
     53          6           0        8.037108   -1.165153   -2.724420
     54          6           0        8.533569    0.303410   -2.933913
     55          6           0        7.768524    0.972265   -4.102309
     56          6           0       10.073476    0.455092   -3.017393
     57          6           0       10.690207    1.790725   -2.546789
     58          6           0       11.475761    1.681529   -1.270636
     59          6           0       10.686679    1.977752    0.062129
     60          6           0       10.939205    3.529111    0.340372
     61          6           0       11.097797    1.061131    1.164539
     62          6           0        9.950936    0.691261    2.171161
     63          6           0        9.851536    1.700455    3.298779
     64          6           0        9.676648    1.022003    4.719405
     65          6           0        8.445339    1.652561    5.492089
     66          6           0       10.971563    1.207914    5.622971
     67          1           0       -0.168853    1.740788   -0.528131
     68          1           0       -5.829380    5.215004   -0.300574
     69          1           0       -9.035358   -0.118481    0.837292
     70          1           0       -1.222138   -2.787581    0.314224
     71          1           0        0.235150   -0.862277   -1.086157
     72          1           0        0.534111   -1.994080    1.194774
     73          1           0       -0.209189   -0.571703    1.910399
     74          1           0        1.298824   -0.464744    0.871873
     75          1           0       -1.094058   -2.096101   -2.680208
     76          1           0       -2.365313   -3.166990   -2.143657
     77          1           0        0.187647   -3.809921   -2.997746
     78          1           0       -0.984301   -4.928756   -2.178255
     79          1           0       -0.149147    5.311185   -1.629838
     80          1           0        0.367971    3.829575   -0.809161
     81          1           0       -0.244761    5.154371    0.105930
     82          1           0       -1.629285    7.203861   -1.718458
     83          1           0       -1.329519    7.263875    0.096839
     84          1           0       -2.433627    8.360891   -0.642129
     85          1           0       -8.492843    4.301939   -0.464271
     86          1           0       -9.002446    2.431458    1.781598
     87          1           0       -8.387493    4.502687    2.476623
     88          1           0       -8.540636    5.830542    1.388945
     89          1           0       -6.911026    5.213023    1.840276
     90          1           0      -10.397050    3.347007   -0.026749
     91          1           0      -10.697266    1.751553    0.441998
     92          1           0       -9.058394    1.791610   -2.093682
     93          1           0      -10.497591    2.825310   -2.214565
     94          1           0      -10.549182    1.081583   -1.854857
     95          1           0       -9.417955   -2.432313    1.659716
     96          1           0       -8.549533   -3.933388    1.996897
     97          1           0       -9.035831   -3.492477    0.295383
     98          1           0       -3.848807   -4.493179   -0.775354
     99          1           0       -2.379654   -6.697306    2.512833
    100          1           0       -0.879432   -6.156536    1.678475
    101          1           0       -1.600950   -7.604625    1.106918
    102          1           0        3.197482   -4.584043    0.039816
    103          1           0        2.304443   -3.181627    0.675378
    104          1           0        3.882506   -1.707153    0.040892
    105          1           0        4.806427   -3.638911   -3.345976
    106          1           0        4.476838   -4.784328   -2.024948
    107          1           0        6.078109   -4.281085   -2.416937
    108          1           0        5.369852   -0.598123   -0.992275
    109          1           0        5.421296   -1.130153   -2.585190
    110          1           0        7.497381   -2.258581   -0.964837
    111          1           0        7.631890   -0.553755   -0.693371
    112          1           0        7.474992   -1.511961   -3.590568
    113          1           0        8.838474   -1.896402   -2.622379
    114          1           0        8.294212    0.877081   -2.038758
    115          1           0        7.524307    2.013844   -3.891733
    116          1           0        6.785794    0.557346   -4.328588
    117          1           0        8.273739    0.918150   -5.067312
    118          1           0       10.254305    0.476852   -4.092080
    119          1           0       10.419862   -0.418125   -2.465497
    120          1           0        9.846774    2.469801   -2.423425
    121          1           0       11.349786    2.169548   -3.327264
    122          1           0       12.234782    2.451515   -1.410617
    123          1           0       11.908756    0.682733   -1.212737
    124          1           0        9.625577    1.853822   -0.155411
    125          1           0       11.431924    3.579407    1.310877
    126          1           0        9.993840    4.056500    0.466810
    127          1           0       11.407264    4.100269   -0.461390
    128          1           0       11.882429    1.512984    1.771052
    129          1           0       11.410820    0.179775    0.604098
    130          1           0       10.209282   -0.286957    2.575834
    131          1           0        8.988485    0.725870    1.660884
    132          1           0        8.901557    2.197561    3.103608
    133          1           0       10.715382    2.359992    3.375919
    134          1           0        9.483961   -0.044453    4.601403
    135          1           0        8.018766    2.526296    4.999343
    136          1           0        8.628713    1.933438    6.528918
    137          1           0        7.681158    0.898774    5.301283
    138          1           0       11.603160    2.037250    5.308393
    139          1           0       11.601422    0.321639    5.699427
    140          1           0       10.670739    1.253024    6.669753
 ---------------------------------------------------------------------

 SCF Done:  E(RwB97XD) =  -3007.86916063     A.U. after   18 cycles

 Excitation energies and oscillator strengths:

 Excited State   1:      Singlet-A      1.6021 eV  773.88 nm  f=0.3966  <S**2>=0.000
     245 -> 248        0.18446
     246 -> 247        0.68276
     245 <- 248        0.11929
 This state for optimization and/or second-order correction.
 Total Energy, E(TD-HF/TD-DFT) =  -3007.81028392
 Copying the excited state density for this state as the 1-particle RhoCI density.

 Excited State   2:      Singlet-A      2.1575 eV  574.66 nm  f=0.0958  <S**2>=0.000
     245 -> 247        0.63204
     246 -> 248       -0.30116

 Excited State   3:      Singlet-A      3.1872 eV  389.00 nm  f=0.0023  <S**2>=0.000
     241 -> 247       -0.36284
     241 -> 249        0.23048
     241 -> 250       -0.12666
     242 -> 247        0.20135
     242 -> 249       -0.13792
     243 -> 247        0.11927
     244 -> 247        0.42025

 Excited State   4:      Singlet-A      3.3192 eV  373.54 nm  f=0.0576  <S**2>=0.000
     241 -> 247        0.30172
     241 -> 249       -0.14227
     242 -> 247       -0.21129
     244 -> 247        0.48309
     246 -> 248        0.26876

 Excited State   5:      Singlet-A      3.4971 eV  354.54 nm  f=0.6864  <S**2>=0.000
     243 -> 247        0.16736
     244 -> 247       -0.24096
     245 -> 247        0.28542
     246 -> 248        0.55819
     245 <- 247       -0.10844

 The electronic state is 1-A.
 Alpha  occ. eigenvalues --  -46.93878 -19.30894 -19.30345 -19.25600 -19.23898
 Alpha  occ. eigenvalues --  -19.23353 -19.23104 -14.46963 -14.45904 -14.44580
 Alpha  occ. eigenvalues --  -14.43722 -10.44171 -10.42511 -10.38928 -10.38125
 Alpha  occ. eigenvalues --  -10.35849 -10.35277 -10.34851 -10.34601 -10.34485
 Alpha  occ. eigenvalues --  -10.34470 -10.34291 -10.34155 -10.33962 -10.33586
 Alpha  occ. eigenvalues --  -10.32888 -10.32635 -10.32526 -10.32456 -10.32386
 Alpha  occ. eigenvalues --  -10.32127 -10.31903 -10.31807 -10.31773 -10.31773
 Alpha  occ. eigenvalues --  -10.31200 -10.31180 -10.30975 -10.30907 -10.30397
 Alpha  occ. eigenvalues --  -10.30387 -10.30373 -10.30333 -10.30314 -10.30253
 Alpha  occ. eigenvalues --  -10.30023 -10.29946 -10.29681 -10.29667 -10.29658
 Alpha  occ. eigenvalues --  -10.29627 -10.29503 -10.29451 -10.29420 -10.29164
 Alpha  occ. eigenvalues --  -10.29069 -10.28834 -10.28710 -10.28701 -10.28639
 Alpha  occ. eigenvalues --  -10.28600 -10.28598 -10.28511 -10.28418 -10.28271
 Alpha  occ. eigenvalues --  -10.28238  -3.19975  -1.93584  -1.93089  -1.92972
 Alpha  occ. eigenvalues --   -1.19254  -1.19159  -1.11322  -1.10414  -1.09783
 Alpha  occ. eigenvalues --   -1.09680  -1.06627  -1.05880  -1.04447  -1.02943
 Alpha  occ. eigenvalues --   -0.95194  -0.92723  -0.92094  -0.91678  -0.90721
 Alpha  occ. eigenvalues --   -0.90443  -0.89369  -0.89086  -0.88929  -0.88126
 Alpha  occ. eigenvalues --   -0.87829  -0.87519  -0.86578  -0.85330  -0.84843
 Alpha  occ. eigenvalues --   -0.84087  -0.83460  -0.82857  -0.82817  -0.81930
 Alpha  occ. eigenvalues --   -0.81741  -0.80480  -0.80010  -0.78993  -0.78553
 Alpha  occ. eigenvalues --   -0.77890  -0.77126  -0.76875  -0.76857  -0.76588
 Alpha  occ. eigenvalues --   -0.75577  -0.74398  -0.73642  -0.73006  -0.71727
 Alpha  occ. eigenvalues --   -0.70847  -0.70648  -0.68939  -0.68721  -0.67519
 Alpha  occ. eigenvalues --   -0.67183  -0.66638  -0.66539  -0.66239  -0.65835
 Alpha  occ. eigenvalues --   -0.65217  -0.65082  -0.64901  -0.63793  -0.62095
 Alpha  occ. eigenvalues --   -0.61701  -0.61512  -0.61220  -0.60260  -0.59491
 Alpha  occ. eigenvalues --   -0.59223  -0.58895  -0.58685  -0.58369  -0.57629
 Alpha  occ. eigenvalues --   -0.57503  -0.56653  -0.56468  -0.56358  -0.55947
 Alpha  occ. eigenvalues --   -0.55884  -0.55592  -0.55276  -0.55093  -0.54776
 Alpha  occ. eigenvalues --   -0.54386  -0.54260  -0.54082  -0.53794  -0.53737
 Alpha  occ. eigenvalues --   -0.53172  -0.53146  -0.52956  -0.52674  -0.52546
 Alpha  occ. eigenvalues --   -0.52247  -0.52085  -0.51661  -0.51224  -0.51100
 Alpha  occ. eigenvalues --   -0.51062  -0.50848  -0.50777  -0.50641  -0.50389
 Alpha  occ. eigenvalues --   -0.50249  -0.50196  -0.50054  -0.49821  -0.49408
 Alpha  occ. eigenvalues --   -0.49367  -0.49286  -0.48843  -0.48652  -0.48456
 Alpha  occ. eigenvalues --   -0.48373  -0.48023  -0.47908  -0.47677  -0.47384
 Alpha  occ. eigenvalues --   -0.47263  -0.47142  -0.46996  -0.46951  -0.46925
 Alpha  occ. eigenvalues --   -0.46390  -0.46336  -0.46055  -0.45770  -0.45636
 Alpha  occ. eigenvalues --   -0.45379  -0.45325  -0.45215  -0.44948  -0.44855
 Alpha  occ. eigenvalues --   -0.44752  -0.44350  -0.44222  -0.43900  -0.43833
 Alpha  occ. eigenvalues --   -0.43753  -0.43657  -0.43530  -0.43359  -0.43267
 Alpha  occ. eigenvalues --   -0.43043  -0.42960  -0.42920  -0.42680  -0.42352
 Alpha  occ. eigenvalues --   -0.41541  -0.41464  -0.41345  -0.41165  -0.40680
 Alpha  occ. eigenvalues --   -0.40112  -0.40111  -0.39747  -0.39561  -0.39177
 Alpha  occ. eigenvalues --   -0.39039  -0.38805  -0.38694  -0.38520  -0.38400
 Alpha  occ. eigenvalues --   -0.38207  -0.37516  -0.37327  -0.36993  -0.36477
 Alpha  occ. eigenvalues --   -0.36189  -0.35469  -0.34886  -0.33302  -0.32916
 Alpha  occ. eigenvalues --   -0.32570  -0.32471  -0.32006  -0.31437  -0.25823
 Alpha  occ. eigenvalues --   -0.22491
 Alpha virt. eigenvalues --   -0.06958   0.00379   0.02233   0.04315   0.05264
 Alpha virt. eigenvalues --    0.06124   0.06932   0.07921   0.08397   0.09210
 Alpha virt. eigenvalues --    0.10649   0.10738   0.11582   0.12101   0.12326

 Mulliken charges:
               1
     1  Mg   0.977092
     2  C   -0.038587
     3  C   -0.046194
     4  C   -0.061833
     5  C   -0.119810
     6  N   -0.322767
     7  C    0.001257
     8  C   -0.110030
     9  C   -0.101749
    10  C    0.041035
    11  C    0.022262
    12  C    0.034659
    13  C    0.048095
    14  C    0.198022
    15  O   -0.279455
    16  O   -0.359868
    17  N   -0.501563
    18  C    0.148423
    19  C   -0.167798
    20  C   -0.081386
    21  C    0.174788
    22  C    0.053153
    23  C    0.050808
    24  O   -0.248240
    25  C   -0.008039
    26  N   -0.377050
    27  C    0.029638
    28  C   -0.064359
    29  C   -0.067370
    30  C    0.144675
    31  C    0.009959
    32  C   -0.072996
    33  C   -0.037611
    34  N   -0.453213
    35  C    0.128684
    36  C   -0.173947
    37  C    0.001737
    38  C    0.147682
    39  C    0.081610
    40  C    0.101909
    41  O   -0.244992
    42  C   -0.046240
    43  C    0.220466
    44  O   -0.260750
    45  O   -0.326561
    46  C    0.141393
    47  C    0.288307
    48  C   -0.175578
    49  C   -0.153154
    50  C    0.025334
    51  C    0.016483
    52  C   -0.041140
    53  C    0.010204
    54  C   -0.182367
    55  C   -0.008257
    56  C    0.032077
    57  C   -0.022287
    58  C    0.010370
    59  C   -0.193661
    60  C    0.005625
    61  C    0.018649
    62  C   -0.029018
    63  C    0.024430
    64  C   -0.227952
    65  C   -0.019214
    66  C   -0.016067
    67  H    0.001929
    68  H    0.023996
    69  H   -0.005865
    70  H    0.065033
    71  H    0.024886
    72  H    0.043741
    73  H    0.056261
    74  H    0.038859
    75  H    0.037063
    76  H    0.041632
    77  H    0.055730
    78  H    0.062216
    79  H    0.049005
    80  H    0.035191
    81  H    0.045565
    82  H    0.056206
    83  H    0.056642
    84  H    0.050555
    85  H    0.049000
    86  H    0.041265
    87  H    0.025488
    88  H    0.042394
    89  H    0.056168
    90  H    0.022747
    91  H    0.027375
    92  H    0.038554
    93  H    0.045032
    94  H    0.036388
    95  H    0.031544
    96  H    0.071661
    97  H    0.066039
    98  H    0.060056
    99  H    0.058081
   100  H    0.065178
   101  H    0.053387
   102  H    0.054950
   103  H    0.033204
   104  H    0.012654
   105  H    0.045829
   106  H    0.039013
   107  H    0.029019
   108  H    0.014949
   109  H    0.031595
   110  H    0.019407
   111  H    0.036114
   112  H    0.016103
   113  H    0.013667
   114  H    0.010916
   115  H    0.025646
   116  H    0.017095
   117  H    0.026463
   118  H    0.013845
   119  H    0.015286
   120  H    0.011096
   121  H    0.021929
   122  H    0.017720
   123  H    0.009562
   124  H    0.008591
   125  H    0.024256
   126  H    0.016211
   127  H    0.034336
   128  H    0.021494
   129  H    0.013685
   130  H    0.028458
   131  H    0.023484
   132  H    0.016931
   133  H    0.020266
   134  H    0.030980
   135  H    0.021978
   136  H    0.039793
   137  H    0.028219
   138  H    0.036958
   139  H    0.021003
   140  H    0.020571
 Sum of Mulliken charges =  -0.00000

 Dipole moment (field-independent basis, Debye):
    X=              3.7334    Y=              1.6314    Z=             -2.8391  Tot=              4.9659
 Quadrupole moment (field-independent basis, Debye-Ang):
   XX=           -377.3327   YY=           -428.3269   ZZ=           -399.7324
   XY=            -11.9063   XZ=             -1.9191   YZ=             14.4243

 Normal termination of Gaussian 16 at Thu Apr 28 04:10:32 2022.
