 Gaussian 16, Revision A.03,
 Gaussian 16:  ES64L-G16RevA.03 25-Dec-2016

 --------------------
 #p ZINDO=(nstates=5)
 --------------------

 -----------------------------
 step_1401_chromophore_9 ZINDO
 -----------------------------
 Symbolic Z-matrix:
 Charge =  0 Multiplicity = 1

                         Standard orientation:
 ---------------------------------------------------------------------
 Center     Atomic      Atomic             Coordinates (Angstroms)
 Number     Number       Type             X           Y           Z
 ---------------------------------------------------------------------
      1         12           0       -4.697820    0.921990   -0.110142
      2          6           0       -3.966342   -2.504275   -0.017007
      3          6           0       -1.244263    1.565254   -0.462385
      4          6           0       -5.516258    4.170546   -0.356937
      5          6           0       -7.997651    0.142474    0.620009
      6          7           0       -2.870518   -0.362866   -0.183426
      7          6           0       -2.804049   -1.671557   -0.251532
      8          6           0       -1.391171   -2.113447   -0.524693
      9          6           0       -0.517480   -0.903499   -0.297859
     10          6           0       -1.588122    0.186001   -0.364380
     11          6           0        0.329082   -0.934970    1.035416
     12          6           0       -1.355949   -2.825513   -1.913258
     13          6           0       -0.357533   -4.041714   -2.082999
     14          6           0        0.692281   -4.290843   -1.023621
     15          8           0        0.618282   -4.994553   -0.005899
     16          8           0        1.852141   -3.606689   -1.300853
     17          7           0       -3.581110    2.591590   -0.348073
     18          6           0       -2.185900    2.693609   -0.400852
     19          6           0       -1.857799    4.130025   -0.673652
     20          6           0       -3.046515    4.876557   -0.605051
     21          6           0       -4.121339    3.866247   -0.552625
     22          6           0       -0.389217    4.612805   -0.828962
     23          6           0       -3.215800    6.390909   -0.668389
     24          8           0       -4.322060    6.938036   -0.640275
     25          6           0       -2.045284    7.345685   -0.721103
     26          7           0       -6.450127    2.003632    0.149595
     27          6           0       -6.560908    3.330973    0.016707
     28          6           0       -7.966866    3.872936    0.389194
     29          6           0       -8.661254    2.531507    0.750723
     30          6           0       -7.659147    1.455597    0.480734
     31          6           0       -7.936147    4.945528    1.587801
     32          6           0       -9.977770    2.345021   -0.122004
     33          6           0      -10.028337    2.017427   -1.652042
     34          7           0       -5.798666   -0.807066    0.321682
     35          6           0       -7.162448   -1.022456    0.528541
     36          6           0       -7.390387   -2.424831    0.913057
     37          6           0       -6.095352   -3.048679    0.731945
     38          6           0       -5.204955   -2.032218    0.278035
     39          6           0       -8.685837   -3.136630    1.265264
     40          6           0       -5.424531   -4.265943    0.760032
     41          8           0       -5.905215   -5.393519    1.032239
     42          6           0       -4.030882   -4.006837    0.182615
     43          6           0       -2.925084   -4.614294    0.998506
     44          8           0       -2.459326   -3.982860    1.926242
     45          8           0       -2.688700   -5.886757    0.664674
     46          6           0       -1.847511   -6.645930    1.562920
     47          6           0        2.809884   -3.593439   -0.198343
     48          6           0        3.921793   -2.677420   -0.455256
     49          6           0        4.933403   -2.711665   -1.333379
     50          6           0        5.058302   -3.910244   -2.320206
     51          6           0        5.737635   -1.434820   -1.587815
     52          6           0        7.261800   -1.290231   -1.405694
     53          6           0        8.037108   -1.165153   -2.724420
     54          6           0        8.533569    0.303410   -2.933913
     55          6           0        7.768524    0.972265   -4.102309
     56          6           0       10.073476    0.455092   -3.017393
     57          6           0       10.690207    1.790725   -2.546789
     58          6           0       11.475761    1.681529   -1.270636
     59          6           0       10.686679    1.977752    0.062129
     60          6           0       10.939205    3.529111    0.340372
     61          6           0       11.097797    1.061131    1.164539
     62          6           0        9.950936    0.691261    2.171161
     63          6           0        9.851536    1.700455    3.298779
     64          6           0        9.676648    1.022003    4.719405
     65          6           0        8.445339    1.652561    5.492089
     66          6           0       10.971563    1.207914    5.622971
     67          1           0       -0.168853    1.740788   -0.528131
     68          1           0       -5.829380    5.215004   -0.300574
     69          1           0       -9.035358   -0.118481    0.837292
     70          1           0       -1.222138   -2.787581    0.314224
     71          1           0        0.235150   -0.862277   -1.086157
     72          1           0        0.534111   -1.994080    1.194774
     73          1           0       -0.209189   -0.571703    1.910399
     74          1           0        1.298824   -0.464744    0.871873
     75          1           0       -1.094058   -2.096101   -2.680208
     76          1           0       -2.365313   -3.166990   -2.143657
     77          1           0        0.187647   -3.809921   -2.997746
     78          1           0       -0.984301   -4.928756   -2.178255
     79          1           0       -0.149147    5.311185   -1.629838
     80          1           0        0.367971    3.829575   -0.809161
     81          1           0       -0.244761    5.154371    0.105930
     82          1           0       -1.629285    7.203861   -1.718458
     83          1           0       -1.329519    7.263875    0.096839
     84          1           0       -2.433627    8.360891   -0.642129
     85          1           0       -8.492843    4.301939   -0.464271
     86          1           0       -9.002446    2.431458    1.781598
     87          1           0       -8.387493    4.502687    2.476623
     88          1           0       -8.540636    5.830542    1.388945
     89          1           0       -6.911026    5.213023    1.840276
     90          1           0      -10.397050    3.347007   -0.026749
     91          1           0      -10.697266    1.751553    0.441998
     92          1           0       -9.058394    1.791610   -2.093682
     93          1           0      -10.497591    2.825310   -2.214565
     94          1           0      -10.549182    1.081583   -1.854857
     95          1           0       -9.417955   -2.432313    1.659716
     96          1           0       -8.549533   -3.933388    1.996897
     97          1           0       -9.035831   -3.492477    0.295383
     98          1           0       -3.848807   -4.493179   -0.775354
     99          1           0       -2.379654   -6.697306    2.512833
    100          1           0       -0.879432   -6.156536    1.678475
    101          1           0       -1.600950   -7.604625    1.106918
    102          1           0        3.197482   -4.584043    0.039816
    103          1           0        2.304443   -3.181627    0.675378
    104          1           0        3.882506   -1.707153    0.040892
    105          1           0        4.806427   -3.638911   -3.345976
    106          1           0        4.476838   -4.784328   -2.024948
    107          1           0        6.078109   -4.281085   -2.416937
    108          1           0        5.369852   -0.598123   -0.992275
    109          1           0        5.421296   -1.130153   -2.585190
    110          1           0        7.497381   -2.258581   -0.964837
    111          1           0        7.631890   -0.553755   -0.693371
    112          1           0        7.474992   -1.511961   -3.590568
    113          1           0        8.838474   -1.896402   -2.622379
    114          1           0        8.294212    0.877081   -2.038758
    115          1           0        7.524307    2.013844   -3.891733
    116          1           0        6.785794    0.557346   -4.328588
    117          1           0        8.273739    0.918150   -5.067312
    118          1           0       10.254305    0.476852   -4.092080
    119          1           0       10.419862   -0.418125   -2.465497
    120          1           0        9.846774    2.469801   -2.423425
    121          1           0       11.349786    2.169548   -3.327264
    122          1           0       12.234782    2.451515   -1.410617
    123          1           0       11.908756    0.682733   -1.212737
    124          1           0        9.625577    1.853822   -0.155411
    125          1           0       11.431924    3.579407    1.310877
    126          1           0        9.993840    4.056500    0.466810
    127          1           0       11.407264    4.100269   -0.461390
    128          1           0       11.882429    1.512984    1.771052
    129          1           0       11.410820    0.179775    0.604098
    130          1           0       10.209282   -0.286957    2.575834
    131          1           0        8.988485    0.725870    1.660884
    132          1           0        8.901557    2.197561    3.103608
    133          1           0       10.715382    2.359992    3.375919
    134          1           0        9.483961   -0.044453    4.601403
    135          1           0        8.018766    2.526296    4.999343
    136          1           0        8.628713    1.933438    6.528918
    137          1           0        7.681158    0.898774    5.301283
    138          1           0       11.603160    2.037250    5.308393
    139          1           0       11.601422    0.321639    5.699427
    140          1           0       10.670739    1.253024    6.669753
 ---------------------------------------------------------------------

 SCF Done:  E(RZINDO/S) =  -474.177982738     A.U. after   19 cycles

 Excitation energies and oscillator strengths:

 Excited State   1:      Singlet-A      1.2236 eV 1013.23 nm  f=0.6162  <S**2>=0.000
     175 ->178         0.18110
     176 ->177         0.66461
 This state for optimization and/or second-order correction.
 Total Energy, E(CIS/TDA) =  -474.133014446
 Copying the excited state density for this state as the 1-particle RhoCI density.

 Excited State   2:      Singlet-A      1.9023 eV  651.74 nm  f=0.0492  <S**2>=0.000
     175 ->177         0.54689
     176 ->178        -0.41611

 Excited State   3:      Singlet-A      2.7860 eV  445.03 nm  f=0.0051  <S**2>=0.000
     168 ->177         0.40984
     168 ->178        -0.14939
     168 ->179        -0.36288
     168 ->181         0.18528
     168 ->186        -0.15996
     172 ->177         0.16078

 Excited State   4:      Singlet-A      2.9085 eV  426.29 nm  f=0.6984  <S**2>=0.000
     172 ->177        -0.11698
     173 ->177         0.12278
     175 ->177         0.31226
     176 ->178         0.48931
     176 ->179         0.31411

 Excited State   5:      Singlet-A      2.9786 eV  416.25 nm  f=0.0097  <S**2>=0.000
     169 ->177         0.12203
     169 ->179         0.15751
     169 ->181         0.25124
     169 ->186         0.10996
     170 ->177         0.19147
     170 ->179         0.24688
     170 ->181         0.39225
     170 ->186         0.16939
     170 ->187        -0.12375

 The electronic state is 1-A.
 Alpha  occ. eigenvalues --   -1.84982  -1.81899  -1.78379  -1.74283  -1.73934
 Alpha  occ. eigenvalues --   -1.69756  -1.66277  -1.60358  -1.59021  -1.57765
 Alpha  occ. eigenvalues --   -1.54425  -1.50550  -1.49563  -1.46713  -1.45348
 Alpha  occ. eigenvalues --   -1.44385  -1.42722  -1.39445  -1.38974  -1.37118
 Alpha  occ. eigenvalues --   -1.35061  -1.32955  -1.32584  -1.30718  -1.27463
 Alpha  occ. eigenvalues --   -1.26095  -1.24313  -1.21049  -1.19842  -1.18767
 Alpha  occ. eigenvalues --   -1.18067  -1.17020  -1.15607  -1.15355  -1.14062
 Alpha  occ. eigenvalues --   -1.13351  -1.11182  -1.10716  -1.04631  -1.03883
 Alpha  occ. eigenvalues --   -1.03110  -1.01205  -0.99305  -0.97783  -0.97355
 Alpha  occ. eigenvalues --   -0.96532  -0.94549  -0.94021  -0.92803  -0.91668
 Alpha  occ. eigenvalues --   -0.89971  -0.89220  -0.88761  -0.87792  -0.87490
 Alpha  occ. eigenvalues --   -0.85292  -0.85000  -0.82839  -0.81042  -0.80570
 Alpha  occ. eigenvalues --   -0.79445  -0.78545  -0.78112  -0.77098  -0.76656
 Alpha  occ. eigenvalues --   -0.75372  -0.74985  -0.74489  -0.74202  -0.73553
 Alpha  occ. eigenvalues --   -0.73393  -0.72622  -0.72116  -0.71534  -0.70451
 Alpha  occ. eigenvalues --   -0.69872  -0.69078  -0.68886  -0.68531  -0.68030
 Alpha  occ. eigenvalues --   -0.67238  -0.67221  -0.65980  -0.65795  -0.65305
 Alpha  occ. eigenvalues --   -0.65062  -0.64493  -0.64338  -0.63768  -0.63523
 Alpha  occ. eigenvalues --   -0.63351  -0.63169  -0.62454  -0.62120  -0.61270
 Alpha  occ. eigenvalues --   -0.61175  -0.60547  -0.60420  -0.60155  -0.59953
 Alpha  occ. eigenvalues --   -0.59867  -0.59415  -0.58983  -0.58254  -0.57814
 Alpha  occ. eigenvalues --   -0.57569  -0.57425  -0.57219  -0.56375  -0.56267
 Alpha  occ. eigenvalues --   -0.55813  -0.55355  -0.55075  -0.54959  -0.54356
 Alpha  occ. eigenvalues --   -0.54218  -0.53793  -0.53575  -0.53159  -0.52878
 Alpha  occ. eigenvalues --   -0.52519  -0.52354  -0.52060  -0.51778  -0.51338
 Alpha  occ. eigenvalues --   -0.51059  -0.50984  -0.50614  -0.50185  -0.50083
 Alpha  occ. eigenvalues --   -0.49808  -0.49603  -0.49552  -0.49052  -0.48946
 Alpha  occ. eigenvalues --   -0.48537  -0.48402  -0.47813  -0.47711  -0.47612
 Alpha  occ. eigenvalues --   -0.47568  -0.47320  -0.47002  -0.46699  -0.46579
 Alpha  occ. eigenvalues --   -0.46133  -0.46008  -0.45872  -0.45698  -0.45475
 Alpha  occ. eigenvalues --   -0.45158  -0.44552  -0.44215  -0.44080  -0.43540
 Alpha  occ. eigenvalues --   -0.43346  -0.42919  -0.42845  -0.42743  -0.42411
 Alpha  occ. eigenvalues --   -0.42150  -0.41877  -0.40703  -0.39464  -0.38484
 Alpha  occ. eigenvalues --   -0.37812  -0.37058  -0.35374  -0.34662  -0.34435
 Alpha  occ. eigenvalues --   -0.33384  -0.32880  -0.32404  -0.31890  -0.26579
 Alpha  occ. eigenvalues --   -0.21571
 Alpha virt. eigenvalues --   -0.08626  -0.01960  -0.00532   0.01083   0.01384
 Alpha virt. eigenvalues --    0.02811   0.02853   0.03470   0.04061   0.04853
 Alpha virt. eigenvalues --    0.06454   0.06597   0.07366   0.07783   0.08031

 Mulliken charges:
               1
     1  Mg   0.419291
     2  C   -0.056568
     3  C   -0.068776
     4  C   -0.068703
     5  C   -0.074015
     6  N   -0.263019
     7  C    0.175382
     8  C    0.007751
     9  C    0.005835
    10  C    0.082760
    11  C   -0.052160
    12  C   -0.016545
    13  C    0.005186
    14  C    0.470746
    15  O   -0.520895
    16  O   -0.268186
    17  N   -0.308723
    18  C    0.060712
    19  C   -0.001646
    20  C   -0.048366
    21  C    0.118686
    22  C   -0.050820
    23  C    0.326536
    24  O   -0.534336
    25  C   -0.028763
    26  N   -0.267030
    27  C    0.125414
    28  C   -0.001098
    29  C    0.007887
    30  C    0.156298
    31  C   -0.055326
    32  C   -0.039838
    33  C   -0.051157
    34  N   -0.342227
    35  C    0.109276
    36  C    0.052588
    37  C   -0.050798
    38  C    0.128293
    39  C   -0.030553
    40  C    0.339602
    41  O   -0.543258
    42  C    0.057469
    43  C    0.490884
    44  O   -0.531107
    45  O   -0.252232
    46  C    0.076240
    47  C    0.117113
    48  C   -0.080198
    49  C   -0.003110
    50  C   -0.045702
    51  C   -0.018174
    52  C   -0.032107
    53  C   -0.032813
    54  C   -0.012987
    55  C   -0.057942
    56  C   -0.043174
    57  C   -0.032881
    58  C   -0.039900
    59  C   -0.013237
    60  C   -0.068005
    61  C   -0.035433
    62  C   -0.040318
    63  C   -0.038460
    64  C   -0.022057
    65  C   -0.067256
    66  C   -0.067111
    67  H    0.035819
    68  H    0.046518
    69  H    0.021534
    70  H    0.052006
    71  H    0.022761
    72  H    0.023087
    73  H    0.036192
    74  H    0.021732
    75  H    0.025782
    76  H    0.025984
    77  H    0.036057
    78  H    0.043183
    79  H    0.031472
    80  H    0.024131
    81  H    0.022513
    82  H    0.039245
    83  H    0.037488
    84  H    0.032498
    85  H    0.040131
    86  H    0.037179
    87  H    0.015030
    88  H    0.024969
    89  H    0.033930
    90  H    0.005270
    91  H    0.016908
    92  H    0.021102
    93  H    0.025819
    94  H    0.017857
    95  H    0.022122
    96  H    0.046582
    97  H    0.040836
    98  H    0.049802
    99  H    0.049471
   100  H    0.049532
   101  H    0.034071
   102  H    0.054660
   103  H    0.040915
   104  H    0.018253
   105  H    0.027974
   106  H    0.025503
   107  H    0.018026
   108  H    0.010876
   109  H    0.022284
   110  H    0.007425
   111  H    0.032096
   112  H    0.022117
   113  H    0.012873
   114  H    0.016946
   115  H    0.013086
   116  H    0.011439
   117  H    0.018817
   118  H    0.018426
   119  H    0.028049
   120  H    0.019662
   121  H    0.015882
   122  H    0.016171
   123  H    0.019070
   124  H    0.022291
   125  H    0.022286
   126  H    0.007483
   127  H    0.028568
   128  H    0.026407
   129  H    0.017800
   130  H    0.021111
   131  H    0.023516
   132  H    0.020263
   133  H    0.031289
   134  H    0.026584
   135  H    0.014924
   136  H    0.030506
   137  H    0.016098
   138  H    0.026959
   139  H    0.011524
   140  H    0.016292
 Sum of Mulliken charges =  -0.00000

 Dipole moment (field-independent basis, Debye):
    X=              3.2022    Y=              1.0593    Z=             -4.7396  Tot=              5.8172
 N-N= 4.420199624747D+03 E-N= 0.000000000000D+00  KE=-9.514905181501D+03
 Leave Link  601 at Thu Apr 28 04:31:10 2022, MaxMem=  6710886400 cpu:               1.0 elap:               0.1
 (Enter /sw/apps/gaussian-16.0/g16/l9999.exe)
 1\1\GINC-BP1-COMPUTE137\SP\RZINDO CIS\STO-3G\C55H74Mg1N4O6\OF15641\28-
 Apr-2022\0\\#p ZINDO=(nstates=5)\\step_1401_chromophore_9 ZINDO\\0,1\M
 g,0,35.994,1.008,30.241\C,0,33.4,1.866,32.436\C,0,38.213,1.029,32.987\
 C,0,38.376,0.023,28.087\C,0,33.771,1.402,27.608\N,0,35.774,1.444,32.42
 2\C,0,34.668,1.641,33.1\C,0,34.953,1.661,34.578\C,0,36.452,1.77,34.719
 \C,0,36.861,1.343,33.309\C,0,36.976,3.19,35.171\C,0,34.214,0.456,35.24
 \C,0,33.636,0.668,36.698\C,0,34.044,1.893,37.485\O,0,33.502,3.007,37.5

 Normal termination of Gaussian 16 at Thu Apr 28 04:31:10 2022.
