 Gaussian 16, Revision A.03,
 Gaussian 16:  ES64L-G16RevA.03 25-Dec-2016

 ------------------------------
 #p blyp/Def2SVP td=(nstates=5)
 ------------------------------

 --------------------------------------------------
 step_1401_chromophore_2 TDDFT with blyp functional
 --------------------------------------------------
 Symbolic Z-matrix:
 Charge =  0 Multiplicity = 1

                         Standard orientation:
 ---------------------------------------------------------------------
 Center     Atomic      Atomic             Coordinates (Angstroms)
 Number     Number       Type             X           Y           Z
 ---------------------------------------------------------------------
      1         12           0        3.866084    1.206696   -0.739756
      2          6           0        4.785499   -2.139832   -0.344311
      3          6           0        1.358044    0.151121   -2.821780
      4          6           0        2.477477    4.252470   -0.590353
      5          6           0        5.751933    1.926768    2.166932
      6          7           0        3.104357   -0.743147   -1.412849
      7          6           0        3.684303   -1.985313   -1.168569
      8          6           0        3.067839   -3.148127   -1.981196
      9          6           0        2.206096   -2.289472   -2.971957
     10          6           0        2.174979   -0.879969   -2.350641
     11          6           0        2.758141   -2.272112   -4.440669
     12          6           0        2.064084   -4.221158   -1.283376
     13          6           0        1.258417   -3.701389   -0.093204
     14          6           0       -0.328577   -3.699867   -0.276727
     15          8           0       -0.931906   -3.716185   -1.397930
     16          8           0       -1.007397   -3.844915    0.923109
     17          7           0        2.345006    2.161467   -1.803095
     18          6           0        1.331106    1.561501   -2.585232
     19          6           0        0.379388    2.496777   -3.014354
     20          6           0        0.789524    3.780843   -2.473613
     21          6           0        1.973087    3.457288   -1.585769
     22          6           0       -0.773245    2.252674   -3.992318
     23          6           0        0.116471    5.151634   -2.771752
     24          8           0       -0.827210    5.214187   -3.595185
     25          6           0        0.441045    6.498248   -2.071676
     26          7           0        4.115972    2.886515    0.575627
     27          6           0        3.318920    3.977952    0.440067
     28          6           0        3.704400    4.933721    1.564463
     29          6           0        4.929348    4.332144    2.373474
     30          6           0        4.936014    2.933717    1.677322
     31          6           0        3.895019    6.395696    1.020340
     32          6           0        4.743345    4.331296    3.897594
     33          6           0        5.760926    5.269291    4.610610
     34          7           0        5.117434    0.203398    0.630411
     35          6           0        5.860052    0.611452    1.715045
     36          6           0        6.626717   -0.526099    2.219697
     37          6           0        6.229509   -1.612993    1.449574
     38          6           0        5.296214   -1.118809    0.482963
     39          6           0        7.680351   -0.432368    3.361140
     40          6           0        6.554723   -3.007287    1.142094
     41          8           0        7.308220   -3.788373    1.723413
     42          6           0        5.636602   -3.389139   -0.072256
     43          6           0        6.524967   -3.882728   -1.221714
     44          8           0        7.008949   -4.987020   -1.287169
     45          8           0        6.761749   -2.977439   -2.264409
     46          6           0        7.586002   -3.463212   -3.379695
     47          6           0       -2.428628   -3.900478    0.825755
     48          6           0       -2.999983   -3.681301    2.218944
     49          6           0       -4.207856   -3.195698    2.595445
     50          6           0       -5.152976   -2.629446    1.655806
     51          6           0       -4.896242   -3.337751    3.974916
     52          6           0       -5.061634   -1.971867    4.707303
     53          6           0       -6.509120   -1.611507    4.975524
     54          6           0       -6.942234   -0.173202    4.440197
     55          6           0       -7.543101    0.587139    5.607653
     56          6           0       -7.905828   -0.376872    3.246541
     57          6           0       -8.029294    0.987102    2.478908
     58          6           0       -7.184516    0.991611    1.136764
     59          6           0       -8.017437    0.439623   -0.091721
     60          6           0       -7.460828   -0.840507   -0.814503
     61          6           0       -8.330894    1.549652   -1.128026
     62          6           0       -9.880329    1.742075   -1.336747
     63          6           0      -10.257083    1.468657   -2.795944
     64          6           0      -10.698150    0.040648   -3.022212
     65          6           0       -9.969871   -0.661857   -4.240924
     66          6           0      -12.204872   -0.128110   -3.085685
     67          1           0        0.688020   -0.203751   -3.608107
     68          1           0        2.018200    5.234616   -0.456201
     69          1           0        6.391069    2.252177    2.990339
     70          1           0        3.847949   -3.795062   -2.384227
     71          1           0        1.185860   -2.670994   -3.007773
     72          1           0        3.768367   -2.673047   -4.524266
     73          1           0        2.864422   -1.244993   -4.788410
     74          1           0        2.036042   -2.880824   -4.985526
     75          1           0        2.680089   -5.033255   -0.898374
     76          1           0        1.420337   -4.563444   -2.093370
     77          1           0        1.533618   -2.676389    0.153397
     78          1           0        1.568210   -4.168608    0.842292
     79          1           0       -1.712697    2.659772   -3.618089
     80          1           0       -0.890919    1.172234   -4.079556
     81          1           0       -0.424394    2.691124   -4.927598
     82          1           0        1.530663    6.493290   -2.059104
     83          1           0        0.086190    6.548563   -1.042220
     84          1           0        0.102811    7.285110   -2.745972
     85          1           0        2.894363    4.995019    2.290852
     86          1           0        5.821744    4.853795    2.025011
     87          1           0        4.315977    6.175910    0.038715
     88          1           0        4.492260    6.998991    1.703194
     89          1           0        3.019943    6.995423    0.770612
     90          1           0        4.848387    3.338324    4.334690
     91          1           0        3.804038    4.817362    4.160769
     92          1           0        6.735994    5.139735    4.138439
     93          1           0        5.911105    5.291957    5.689918
     94          1           0        5.593030    6.300271    4.299040
     95          1           0        8.539048   -0.999126    3.001383
     96          1           0        7.212637   -0.816966    4.267409
     97          1           0        8.012723    0.599895    3.465503
     98          1           0        5.067570   -4.267722    0.229671
     99          1           0        7.368944   -2.734145   -4.160735
    100          1           0        7.390820   -4.479200   -3.723814
    101          1           0        8.628604   -3.528572   -3.068249
    102          1           0       -2.601169   -4.905223    0.441387
    103          1           0       -2.745301   -3.096533    0.160906
    104          1           0       -2.364813   -3.897035    3.078348
    105          1           0       -6.176225   -2.761302    2.006532
    106          1           0       -4.990886   -3.151258    0.712522
    107          1           0       -4.931126   -1.569980    1.528500
    108          1           0       -4.432651   -4.023918    4.682861
    109          1           0       -5.850983   -3.801301    3.725618
    110          1           0       -4.505837   -1.224064    4.142187
    111          1           0       -4.605784   -2.114558    5.686594
    112          1           0       -6.746409   -1.829357    6.017071
    113          1           0       -7.200102   -2.385369    4.640923
    114          1           0       -6.033593    0.378868    4.197696
    115          1           0       -8.567595    0.865687    5.360730
    116          1           0       -7.048342    1.556186    5.667413
    117          1           0       -7.653037    0.087722    6.570255
    118          1           0       -8.906705   -0.521407    3.652969
    119          1           0       -7.658759   -1.195907    2.571615
    120          1           0       -7.679254    1.868593    3.016271
    121          1           0       -9.076688    1.177503    2.247400
    122          1           0       -6.279447    0.402428    1.279076
    123          1           0       -6.698398    1.947058    0.939063
    124          1           0       -8.909640    0.034289    0.384899
    125          1           0       -6.855778   -0.548133   -1.672261
    126          1           0       -8.392281   -1.364741   -1.027329
    127          1           0       -6.843268   -1.330773   -0.062045
    128          1           0       -7.800491    1.258587   -2.034829
    129          1           0       -7.859339    2.468195   -0.779394
    130          1           0      -10.272922    2.745606   -1.176254
    131          1           0      -10.476413    1.173963   -0.621335
    132          1           0       -9.464830    1.707355   -3.505031
    133          1           0      -11.082988    2.141452   -3.026670
    134          1           0      -10.503660   -0.642751   -2.195717
    135          1           0      -10.559363   -0.314728   -5.089804
    136          1           0      -10.044638   -1.726910   -4.022155
    137          1           0       -8.940707   -0.326892   -4.370884
    138          1           0      -12.577908   -0.612423   -3.988049
    139          1           0      -12.700303    0.807150   -2.824567
    140          1           0      -12.692093   -0.679357   -2.281292
 ---------------------------------------------------------------------

 SCF Done:  E(RB-LYP) =  -3007.35654334     A.U. after   21 cycles

 Excitation energies and oscillator strengths:

 Excited State   1:      Singlet-A      1.7364 eV  714.05 nm  f=0.0108  <S**2>=0.000
     244 -> 247        0.66187
     245 -> 247        0.20065
     246 -> 247       -0.13949
 This state for optimization and/or second-order correction.
 Total Energy, E(TD-HF/TD-DFT) =  -3007.29273353
 Copying the excited state density for this state as the 1-particle RhoCI density.

 Excited State   2:      Singlet-A      1.8052 eV  686.81 nm  f=0.2733  <S**2>=0.000
     244 -> 247        0.15793
     245 -> 248       -0.17280
     246 -> 247        0.66893
     246 <- 247       -0.14500

 Excited State   3:      Singlet-A      1.9613 eV  632.15 nm  f=0.0507  <S**2>=0.000
     243 -> 247        0.54169
     244 -> 247        0.12451
     245 -> 247       -0.40214
     246 -> 247       -0.10789
     246 -> 248       -0.11038

 Excited State   4:      Singlet-A      2.1019 eV  589.87 nm  f=0.0528  <S**2>=0.000
     243 -> 247        0.43922
     244 -> 247       -0.12940
     245 -> 247        0.46841
     246 -> 248        0.21510

 Excited State   5:      Singlet-A      2.1233 eV  583.92 nm  f=0.0002  <S**2>=0.000
     242 -> 247        0.70660

 The electronic state is 1-A.
 Alpha  occ. eigenvalues --  -46.27813 -18.82707 -18.81768 -18.77725 -18.76665
 Alpha  occ. eigenvalues --  -18.76284 -18.75386 -14.03861 -14.03335 -14.01489
 Alpha  occ. eigenvalues --  -14.01291 -10.05469 -10.04156 -10.00387 -10.00331
 Alpha  occ. eigenvalues --   -9.98278  -9.97831  -9.96928  -9.96784  -9.96610
 Alpha  occ. eigenvalues --   -9.96541  -9.96503  -9.96036  -9.95698  -9.95302
 Alpha  occ. eigenvalues --   -9.94909  -9.94586  -9.94561  -9.94543  -9.94167
 Alpha  occ. eigenvalues --   -9.94013  -9.93999  -9.93881  -9.93768  -9.93730
 Alpha  occ. eigenvalues --   -9.93611  -9.93601  -9.93012  -9.92908  -9.92900
 Alpha  occ. eigenvalues --   -9.92815  -9.92608  -9.92564  -9.92514  -9.92476
 Alpha  occ. eigenvalues --   -9.92333  -9.92259  -9.92031  -9.92001  -9.91745
 Alpha  occ. eigenvalues --   -9.91596  -9.91590  -9.91521  -9.91478  -9.91439
 Alpha  occ. eigenvalues --   -9.91315  -9.91157  -9.90995  -9.90896  -9.90847
 Alpha  occ. eigenvalues --   -9.90832  -9.90720  -9.90653  -9.90642  -9.90329
 Alpha  occ. eigenvalues --   -9.90275  -2.92400  -1.72816  -1.72282  -1.72113
 Alpha  occ. eigenvalues --   -0.97964  -0.97419  -0.91264  -0.89805  -0.89410
 Alpha  occ. eigenvalues --   -0.88852  -0.87049  -0.86308  -0.85826  -0.84587
 Alpha  occ. eigenvalues --   -0.75866  -0.73954  -0.73028  -0.72667  -0.72397
 Alpha  occ. eigenvalues --   -0.72208  -0.72099  -0.70926  -0.70453  -0.70078
 Alpha  occ. eigenvalues --   -0.69234  -0.68990  -0.68171  -0.67730  -0.67425
 Alpha  occ. eigenvalues --   -0.66276  -0.65658  -0.65295  -0.64925  -0.64614
 Alpha  occ. eigenvalues --   -0.64106  -0.62563  -0.62106  -0.61552  -0.61083
 Alpha  occ. eigenvalues --   -0.60221  -0.60026  -0.59955  -0.59372  -0.58779
 Alpha  occ. eigenvalues --   -0.58542  -0.57986  -0.57217  -0.55830  -0.55163
 Alpha  occ. eigenvalues --   -0.54211  -0.53741  -0.52958  -0.52454  -0.51767
 Alpha  occ. eigenvalues --   -0.51556  -0.51360  -0.50857  -0.50732  -0.50169
 Alpha  occ. eigenvalues --   -0.49726  -0.49548  -0.49198  -0.48376  -0.46513
 Alpha  occ. eigenvalues --   -0.46273  -0.45997  -0.45708  -0.45032  -0.44422
 Alpha  occ. eigenvalues --   -0.44178  -0.43735  -0.43350  -0.43010  -0.42470
 Alpha  occ. eigenvalues --   -0.42004  -0.41984  -0.41638  -0.41373  -0.40935
 Alpha  occ. eigenvalues --   -0.40781  -0.40696  -0.40241  -0.40199  -0.39961
 Alpha  occ. eigenvalues --   -0.39800  -0.39631  -0.39165  -0.39075  -0.38982
 Alpha  occ. eigenvalues --   -0.38966  -0.38933  -0.38597  -0.38495  -0.38264
 Alpha  occ. eigenvalues --   -0.37941  -0.37891  -0.37807  -0.37652  -0.37430
 Alpha  occ. eigenvalues --   -0.37417  -0.37179  -0.36822  -0.36682  -0.36644
 Alpha  occ. eigenvalues --   -0.36403  -0.36183  -0.36033  -0.35752  -0.35613
 Alpha  occ. eigenvalues --   -0.35404  -0.35314  -0.35043  -0.34971  -0.34872
 Alpha  occ. eigenvalues --   -0.34684  -0.34529  -0.34247  -0.34119  -0.34032
 Alpha  occ. eigenvalues --   -0.33785  -0.33694  -0.33671  -0.33563  -0.32931
 Alpha  occ. eigenvalues --   -0.32840  -0.32682  -0.32617  -0.32405  -0.32276
 Alpha  occ. eigenvalues --   -0.32085  -0.31869  -0.31722  -0.31682  -0.31393
 Alpha  occ. eigenvalues --   -0.31230  -0.31188  -0.31088  -0.30976  -0.30882
 Alpha  occ. eigenvalues --   -0.30599  -0.30466  -0.30277  -0.30203  -0.30018
 Alpha  occ. eigenvalues --   -0.29875  -0.29735  -0.29506  -0.29200  -0.29061
 Alpha  occ. eigenvalues --   -0.28986  -0.28819  -0.28487  -0.28075  -0.27842
 Alpha  occ. eigenvalues --   -0.27691  -0.27629  -0.26779  -0.26596  -0.26521
 Alpha  occ. eigenvalues --   -0.26222  -0.26062  -0.25601  -0.25278  -0.24870
 Alpha  occ. eigenvalues --   -0.24797  -0.24405  -0.24372  -0.24033  -0.23656
 Alpha  occ. eigenvalues --   -0.23175  -0.22748  -0.22437  -0.21810  -0.21188
 Alpha  occ. eigenvalues --   -0.20421  -0.19779  -0.19228  -0.18299  -0.17817
 Alpha  occ. eigenvalues --   -0.16247
 Alpha virt. eigenvalues --   -0.11976  -0.07347  -0.06546  -0.05075  -0.04263
 Alpha virt. eigenvalues --   -0.03412  -0.02488  -0.02335  -0.01685  -0.00028
 Alpha virt. eigenvalues --    0.01081   0.01285   0.02220   0.02664   0.02830

 Mulliken charges:
               1
     1  Mg   0.702843
     2  C    0.018734
     3  C   -0.063684
     4  C   -0.048240
     5  C   -0.070320
     6  N   -0.202909
     7  C   -0.056447
     8  C   -0.006337
     9  C   -0.007635
    10  C   -0.004876
    11  C    0.130696
    12  C    0.117102
    13  C    0.092571
    14  C    0.120722
    15  O   -0.239488
    16  O   -0.264068
    17  N   -0.312036
    18  C    0.154416
    19  C   -0.161695
    20  C    0.023484
    21  C    0.154811
    22  C    0.205409
    23  C   -0.080471
    24  O   -0.202138
    25  C    0.136589
    26  N   -0.231451
    27  C    0.017710
    28  C    0.014240
    29  C    0.033641
    30  C   -0.016566
    31  C    0.096725
    32  C    0.134912
    33  C    0.028758
    34  N   -0.241736
    35  C    0.125016
    36  C   -0.196978
    37  C    0.066527
    38  C    0.080029
    39  C    0.178524
    40  C   -0.030477
    41  O   -0.124506
    42  C    0.050573
    43  C    0.103823
    44  O   -0.160683
    45  O   -0.295120
    46  C    0.221621
    47  C    0.333387
    48  C   -0.094798
    49  C   -0.167944
    50  C    0.090746
    51  C    0.128333
    52  C    0.090034
    53  C    0.096324
    54  C   -0.078364
    55  C    0.124299
    56  C    0.137456
    57  C    0.054486
    58  C    0.101168
    59  C   -0.125954
    60  C    0.108195
    61  C    0.161713
    62  C    0.080156
    63  C    0.126207
    64  C   -0.100186
    65  C    0.086115
    66  C    0.099325
    67  H   -0.055206
    68  H   -0.088273
    69  H   -0.062056
    70  H   -0.022428
    71  H   -0.008241
    72  H   -0.009311
    73  H   -0.006878
    74  H    0.007138
    75  H   -0.016264
    76  H    0.004445
    77  H    0.016359
    78  H   -0.005964
    79  H    0.012413
    80  H   -0.024007
    81  H    0.019646
    82  H   -0.003519
    83  H    0.030626
    84  H    0.003525
    85  H   -0.026297
    86  H   -0.016861
    87  H   -0.007407
    88  H   -0.000997
    89  H   -0.004755
    90  H   -0.002614
    91  H   -0.011527
    92  H   -0.024466
    93  H    0.000629
    94  H   -0.023804
    95  H    0.014409
    96  H    0.019706
    97  H   -0.014513
    98  H    0.005437
    99  H    0.017587
   100  H    0.012542
   101  H    0.012648
   102  H    0.004358
   103  H    0.005294
   104  H   -0.039359
   105  H    0.002911
   106  H    0.008015
   107  H    0.029297
   108  H   -0.044420
   109  H   -0.016063
   110  H   -0.011778
   111  H   -0.025725
   112  H   -0.053043
   113  H   -0.055596
   114  H   -0.028787
   115  H   -0.038860
   116  H   -0.020423
   117  H   -0.007213
   118  H   -0.036819
   119  H   -0.024497
   120  H   -0.032931
   121  H   -0.030504
   122  H   -0.070495
   123  H   -0.045111
   124  H   -0.037479
   125  H   -0.009289
   126  H   -0.003244
   127  H   -0.024951
   128  H   -0.033063
   129  H   -0.033573
   130  H   -0.045874
   131  H   -0.033408
   132  H   -0.038542
   133  H   -0.045457
   134  H   -0.030449
   135  H   -0.010959
   136  H   -0.008518
   137  H   -0.008629
   138  H   -0.015833
   139  H   -0.036046
   140  H   -0.036973
 Sum of Mulliken charges =  -0.00000

 Dipole moment (field-independent basis, Debye):
    X=             -0.7887    Y=              3.6235    Z=              2.0592  Tot=              4.2417
 Quadrupole moment (field-independent basis, Debye-Ang):
   XX=           -411.8650   YY=           -419.6178   ZZ=           -400.3267
   XY=             48.7020   XZ=            -27.8469   YZ=             24.7001

 Normal termination of Gaussian 16 at Wed May  4 06:10:57 2022.
