 Gaussian 16, Revision A.03,
 Gaussian 16:  ES64L-G16RevA.03 25-Dec-2016

 -----------------------------------
 #p cam-b3lyp/Def2SVP td=(nstates=5)
 -----------------------------------

 -------------------------------------------------------
 step_1401_chromophore_2 TDDFT with cam-b3lyp functional
 -------------------------------------------------------
 Symbolic Z-matrix:
 Charge =  0 Multiplicity = 1

                         Standard orientation:
 ---------------------------------------------------------------------
 Center     Atomic      Atomic             Coordinates (Angstroms)
 Number     Number       Type             X           Y           Z
 ---------------------------------------------------------------------
      1         12           0        3.866084    1.206696   -0.739756
      2          6           0        4.785499   -2.139832   -0.344311
      3          6           0        1.358044    0.151121   -2.821780
      4          6           0        2.477477    4.252470   -0.590353
      5          6           0        5.751933    1.926768    2.166932
      6          7           0        3.104357   -0.743147   -1.412849
      7          6           0        3.684303   -1.985313   -1.168569
      8          6           0        3.067839   -3.148127   -1.981196
      9          6           0        2.206096   -2.289472   -2.971957
     10          6           0        2.174979   -0.879969   -2.350641
     11          6           0        2.758141   -2.272112   -4.440669
     12          6           0        2.064084   -4.221158   -1.283376
     13          6           0        1.258417   -3.701389   -0.093204
     14          6           0       -0.328577   -3.699867   -0.276727
     15          8           0       -0.931906   -3.716185   -1.397930
     16          8           0       -1.007397   -3.844915    0.923109
     17          7           0        2.345006    2.161467   -1.803095
     18          6           0        1.331106    1.561501   -2.585232
     19          6           0        0.379388    2.496777   -3.014354
     20          6           0        0.789524    3.780843   -2.473613
     21          6           0        1.973087    3.457288   -1.585769
     22          6           0       -0.773245    2.252674   -3.992318
     23          6           0        0.116471    5.151634   -2.771752
     24          8           0       -0.827210    5.214187   -3.595185
     25          6           0        0.441045    6.498248   -2.071676
     26          7           0        4.115972    2.886515    0.575627
     27          6           0        3.318920    3.977952    0.440067
     28          6           0        3.704400    4.933721    1.564463
     29          6           0        4.929348    4.332144    2.373474
     30          6           0        4.936014    2.933717    1.677322
     31          6           0        3.895019    6.395696    1.020340
     32          6           0        4.743345    4.331296    3.897594
     33          6           0        5.760926    5.269291    4.610610
     34          7           0        5.117434    0.203398    0.630411
     35          6           0        5.860052    0.611452    1.715045
     36          6           0        6.626717   -0.526099    2.219697
     37          6           0        6.229509   -1.612993    1.449574
     38          6           0        5.296214   -1.118809    0.482963
     39          6           0        7.680351   -0.432368    3.361140
     40          6           0        6.554723   -3.007287    1.142094
     41          8           0        7.308220   -3.788373    1.723413
     42          6           0        5.636602   -3.389139   -0.072256
     43          6           0        6.524967   -3.882728   -1.221714
     44          8           0        7.008949   -4.987020   -1.287169
     45          8           0        6.761749   -2.977439   -2.264409
     46          6           0        7.586002   -3.463212   -3.379695
     47          6           0       -2.428628   -3.900478    0.825755
     48          6           0       -2.999983   -3.681301    2.218944
     49          6           0       -4.207856   -3.195698    2.595445
     50          6           0       -5.152976   -2.629446    1.655806
     51          6           0       -4.896242   -3.337751    3.974916
     52          6           0       -5.061634   -1.971867    4.707303
     53          6           0       -6.509120   -1.611507    4.975524
     54          6           0       -6.942234   -0.173202    4.440197
     55          6           0       -7.543101    0.587139    5.607653
     56          6           0       -7.905828   -0.376872    3.246541
     57          6           0       -8.029294    0.987102    2.478908
     58          6           0       -7.184516    0.991611    1.136764
     59          6           0       -8.017437    0.439623   -0.091721
     60          6           0       -7.460828   -0.840507   -0.814503
     61          6           0       -8.330894    1.549652   -1.128026
     62          6           0       -9.880329    1.742075   -1.336747
     63          6           0      -10.257083    1.468657   -2.795944
     64          6           0      -10.698150    0.040648   -3.022212
     65          6           0       -9.969871   -0.661857   -4.240924
     66          6           0      -12.204872   -0.128110   -3.085685
     67          1           0        0.688020   -0.203751   -3.608107
     68          1           0        2.018200    5.234616   -0.456201
     69          1           0        6.391069    2.252177    2.990339
     70          1           0        3.847949   -3.795062   -2.384227
     71          1           0        1.185860   -2.670994   -3.007773
     72          1           0        3.768367   -2.673047   -4.524266
     73          1           0        2.864422   -1.244993   -4.788410
     74          1           0        2.036042   -2.880824   -4.985526
     75          1           0        2.680089   -5.033255   -0.898374
     76          1           0        1.420337   -4.563444   -2.093370
     77          1           0        1.533618   -2.676389    0.153397
     78          1           0        1.568210   -4.168608    0.842292
     79          1           0       -1.712697    2.659772   -3.618089
     80          1           0       -0.890919    1.172234   -4.079556
     81          1           0       -0.424394    2.691124   -4.927598
     82          1           0        1.530663    6.493290   -2.059104
     83          1           0        0.086190    6.548563   -1.042220
     84          1           0        0.102811    7.285110   -2.745972
     85          1           0        2.894363    4.995019    2.290852
     86          1           0        5.821744    4.853795    2.025011
     87          1           0        4.315977    6.175910    0.038715
     88          1           0        4.492260    6.998991    1.703194
     89          1           0        3.019943    6.995423    0.770612
     90          1           0        4.848387    3.338324    4.334690
     91          1           0        3.804038    4.817362    4.160769
     92          1           0        6.735994    5.139735    4.138439
     93          1           0        5.911105    5.291957    5.689918
     94          1           0        5.593030    6.300271    4.299040
     95          1           0        8.539048   -0.999126    3.001383
     96          1           0        7.212637   -0.816966    4.267409
     97          1           0        8.012723    0.599895    3.465503
     98          1           0        5.067570   -4.267722    0.229671
     99          1           0        7.368944   -2.734145   -4.160735
    100          1           0        7.390820   -4.479200   -3.723814
    101          1           0        8.628604   -3.528572   -3.068249
    102          1           0       -2.601169   -4.905223    0.441387
    103          1           0       -2.745301   -3.096533    0.160906
    104          1           0       -2.364813   -3.897035    3.078348
    105          1           0       -6.176225   -2.761302    2.006532
    106          1           0       -4.990886   -3.151258    0.712522
    107          1           0       -4.931126   -1.569980    1.528500
    108          1           0       -4.432651   -4.023918    4.682861
    109          1           0       -5.850983   -3.801301    3.725618
    110          1           0       -4.505837   -1.224064    4.142187
    111          1           0       -4.605784   -2.114558    5.686594
    112          1           0       -6.746409   -1.829357    6.017071
    113          1           0       -7.200102   -2.385369    4.640923
    114          1           0       -6.033593    0.378868    4.197696
    115          1           0       -8.567595    0.865687    5.360730
    116          1           0       -7.048342    1.556186    5.667413
    117          1           0       -7.653037    0.087722    6.570255
    118          1           0       -8.906705   -0.521407    3.652969
    119          1           0       -7.658759   -1.195907    2.571615
    120          1           0       -7.679254    1.868593    3.016271
    121          1           0       -9.076688    1.177503    2.247400
    122          1           0       -6.279447    0.402428    1.279076
    123          1           0       -6.698398    1.947058    0.939063
    124          1           0       -8.909640    0.034289    0.384899
    125          1           0       -6.855778   -0.548133   -1.672261
    126          1           0       -8.392281   -1.364741   -1.027329
    127          1           0       -6.843268   -1.330773   -0.062045
    128          1           0       -7.800491    1.258587   -2.034829
    129          1           0       -7.859339    2.468195   -0.779394
    130          1           0      -10.272922    2.745606   -1.176254
    131          1           0      -10.476413    1.173963   -0.621335
    132          1           0       -9.464830    1.707355   -3.505031
    133          1           0      -11.082988    2.141452   -3.026670
    134          1           0      -10.503660   -0.642751   -2.195717
    135          1           0      -10.559363   -0.314728   -5.089804
    136          1           0      -10.044638   -1.726910   -4.022155
    137          1           0       -8.940707   -0.326892   -4.370884
    138          1           0      -12.577908   -0.612423   -3.988049
    139          1           0      -12.700303    0.807150   -2.824567
    140          1           0      -12.692093   -0.679357   -2.281292
 ---------------------------------------------------------------------

 SCF Done:  E(RCAM-B3LYP) =  -3007.14139280     A.U. after   18 cycles

 Excitation energies and oscillator strengths:

 Excited State   1:      Singlet-A      1.7063 eV  726.63 nm  f=0.3781  <S**2>=0.000
     245 -> 248       -0.17286
     246 -> 247        0.68693
     245 <- 248       -0.10529
 This state for optimization and/or second-order correction.
 Total Energy, E(TD-HF/TD-DFT) =  -3007.07868770
 Copying the excited state density for this state as the 1-particle RhoCI density.

 Excited State   2:      Singlet-A      2.2868 eV  542.18 nm  f=0.1006  <S**2>=0.000
     245 -> 247        0.63052
     246 -> 248        0.30284

 Excited State   3:      Singlet-A      3.2669 eV  379.51 nm  f=0.0028  <S**2>=0.000
     241 -> 247        0.11109
     241 -> 251       -0.11307
     243 -> 247        0.65427

 Excited State   4:      Singlet-A      3.3901 eV  365.72 nm  f=0.0037  <S**2>=0.000
     241 -> 247        0.51778
     241 -> 248        0.16561
     241 -> 249        0.23492
     241 -> 251       -0.24164
     242 -> 247       -0.12619
     243 -> 247       -0.20012

 Excited State   5:      Singlet-A      3.5113 eV  353.10 nm  f=0.2296  <S**2>=0.000
     240 -> 247        0.25234
     240 -> 249       -0.18210
     242 -> 247        0.36909
     245 -> 247       -0.18203
     246 -> 248        0.42123

 The electronic state is 1-A.
 Alpha  occ. eigenvalues --  -46.89413 -19.25498 -19.24632 -19.20656 -19.19822
 Alpha  occ. eigenvalues --  -19.19402 -19.18787 -14.42859 -14.42149 -14.40084
 Alpha  occ. eigenvalues --  -14.39676 -10.40957 -10.39661 -10.35847 -10.35632
 Alpha  occ. eigenvalues --  -10.32178 -10.31752 -10.31369 -10.31239 -10.31206
 Alpha  occ. eigenvalues --  -10.31138 -10.31044 -10.30611 -10.29749 -10.29709
 Alpha  occ. eigenvalues --  -10.29077 -10.28700 -10.28683 -10.28611 -10.28522
 Alpha  occ. eigenvalues --  -10.28344 -10.28272 -10.28271 -10.28153 -10.27829
 Alpha  occ. eigenvalues --  -10.27707 -10.27316 -10.27297 -10.26859 -10.26762
 Alpha  occ. eigenvalues --  -10.26669 -10.26641 -10.26622 -10.26545 -10.26203
 Alpha  occ. eigenvalues --  -10.26053 -10.25979 -10.25918 -10.25708 -10.25478
 Alpha  occ. eigenvalues --  -10.25446 -10.25433 -10.25195 -10.25143 -10.25117
 Alpha  occ. eigenvalues --  -10.25084 -10.24828 -10.24649 -10.24620 -10.24527
 Alpha  occ. eigenvalues --  -10.24487 -10.24341 -10.24269 -10.24211 -10.23953
 Alpha  occ. eigenvalues --  -10.23852  -3.17898  -1.92793  -1.92350  -1.92198
 Alpha  occ. eigenvalues --   -1.16271  -1.15983  -1.09573  -1.08307  -1.07294
 Alpha  occ. eigenvalues --   -1.06637  -1.04805  -1.03947  -1.03413  -1.02217
 Alpha  occ. eigenvalues --   -0.93001  -0.90807  -0.89814  -0.89446  -0.89167
 Alpha  occ. eigenvalues --   -0.88859  -0.88793  -0.87548  -0.87007  -0.86579
 Alpha  occ. eigenvalues --   -0.85725  -0.85417  -0.84410  -0.83899  -0.83616
 Alpha  occ. eigenvalues --   -0.82269  -0.81830  -0.81209  -0.80694  -0.80629
 Alpha  occ. eigenvalues --   -0.79909  -0.78083  -0.77663  -0.77145  -0.76643
 Alpha  occ. eigenvalues --   -0.75559  -0.75353  -0.75306  -0.74652  -0.73944
 Alpha  occ. eigenvalues --   -0.73671  -0.72976  -0.72155  -0.70651  -0.69764
 Alpha  occ. eigenvalues --   -0.68828  -0.68301  -0.67538  -0.66852  -0.65846
 Alpha  occ. eigenvalues --   -0.65761  -0.65489  -0.65064  -0.64672  -0.64213
 Alpha  occ. eigenvalues --   -0.63517  -0.63226  -0.63155  -0.62249  -0.60148
 Alpha  occ. eigenvalues --   -0.59919  -0.59446  -0.59136  -0.58351  -0.57926
 Alpha  occ. eigenvalues --   -0.57414  -0.57146  -0.56558  -0.56189  -0.55690
 Alpha  occ. eigenvalues --   -0.55271  -0.54838  -0.54476  -0.54312  -0.53879
 Alpha  occ. eigenvalues --   -0.53722  -0.53576  -0.53046  -0.52847  -0.52783
 Alpha  occ. eigenvalues --   -0.52535  -0.52251  -0.51940  -0.51809  -0.51717
 Alpha  occ. eigenvalues --   -0.51502  -0.51325  -0.51065  -0.50888  -0.50630
 Alpha  occ. eigenvalues --   -0.50419  -0.50213  -0.49987  -0.49944  -0.49883
 Alpha  occ. eigenvalues --   -0.49613  -0.49354  -0.49126  -0.49003  -0.48811
 Alpha  occ. eigenvalues --   -0.48781  -0.48397  -0.48215  -0.48046  -0.47763
 Alpha  occ. eigenvalues --   -0.47522  -0.47484  -0.47228  -0.47006  -0.46759
 Alpha  occ. eigenvalues --   -0.46581  -0.46411  -0.46362  -0.46108  -0.45852
 Alpha  occ. eigenvalues --   -0.45579  -0.45506  -0.45415  -0.45332  -0.44769
 Alpha  occ. eigenvalues --   -0.44630  -0.44483  -0.44166  -0.43969  -0.43917
 Alpha  occ. eigenvalues --   -0.43754  -0.43581  -0.43341  -0.43273  -0.42836
 Alpha  occ. eigenvalues --   -0.42650  -0.42567  -0.42484  -0.42416  -0.42309
 Alpha  occ. eigenvalues --   -0.42150  -0.41846  -0.41727  -0.41669  -0.41569
 Alpha  occ. eigenvalues --   -0.41351  -0.41025  -0.40636  -0.40354  -0.40141
 Alpha  occ. eigenvalues --   -0.40042  -0.39941  -0.39515  -0.38992  -0.38848
 Alpha  occ. eigenvalues --   -0.38584  -0.38514  -0.38124  -0.37505  -0.37253
 Alpha  occ. eigenvalues --   -0.36986  -0.36884  -0.36782  -0.36421  -0.36026
 Alpha  occ. eigenvalues --   -0.35446  -0.35003  -0.34877  -0.34605  -0.34515
 Alpha  occ. eigenvalues --   -0.34432  -0.33547  -0.33440  -0.31768  -0.31091
 Alpha  occ. eigenvalues --   -0.30814  -0.30454  -0.29901  -0.29303  -0.24740
 Alpha  occ. eigenvalues --   -0.21540
 Alpha virt. eigenvalues --   -0.09097  -0.02178  -0.00032   0.01572   0.01808
 Alpha virt. eigenvalues --    0.03753   0.05086   0.05192   0.05409   0.06652
 Alpha virt. eigenvalues --    0.07321   0.08230   0.08597   0.08925   0.09050

 Mulliken charges:
               1
     1  Mg   0.833862
     2  C   -0.005720
     3  C   -0.074309
     4  C   -0.078476
     5  C   -0.079114
     6  N   -0.270000
     7  C   -0.023641
     8  C   -0.045503
     9  C   -0.064004
    10  C    0.012476
    11  C    0.075155
    12  C    0.064219
    13  C    0.024962
    14  C    0.202557
    15  O   -0.283972
    16  O   -0.328078
    17  N   -0.399801
    18  C    0.158937
    19  C   -0.165139
    20  C   -0.044565
    21  C    0.189509
    22  C    0.154730
    23  C   -0.005427
    24  O   -0.239765
    25  C    0.061073
    26  N   -0.306523
    27  C    0.046850
    28  C   -0.040539
    29  C   -0.022088
    30  C    0.011678
    31  C    0.038839
    32  C    0.070880
    33  C   -0.027694
    34  N   -0.329056
    35  C    0.122247
    36  C   -0.193306
    37  C   -0.010305
    38  C    0.113744
    39  C    0.133722
    40  C    0.065044
    41  O   -0.163284
    42  C   -0.022928
    43  C    0.192360
    44  O   -0.198284
    45  O   -0.357845
    46  C    0.181598
    47  C    0.300461
    48  C   -0.117058
    49  C   -0.182183
    50  C    0.023065
    51  C    0.071275
    52  C    0.028961
    53  C    0.044080
    54  C   -0.132978
    55  C    0.063688
    56  C    0.084840
    57  C   -0.001052
    58  C    0.053751
    59  C   -0.179877
    60  C    0.068298
    61  C    0.104927
    62  C    0.025440
    63  C    0.063902
    64  C   -0.159272
    65  C    0.033693
    66  C    0.038338
    67  H   -0.020765
    68  H   -0.052722
    69  H   -0.028030
    70  H    0.011728
    71  H    0.027393
    72  H    0.014492
    73  H    0.018687
    74  H    0.030491
    75  H    0.012797
    76  H    0.037356
    77  H    0.047302
    78  H    0.030226
    79  H    0.040736
    80  H    0.001844
    81  H    0.046717
    82  H    0.021030
    83  H    0.056730
    84  H    0.038731
    85  H    0.008668
    86  H    0.017457
    87  H    0.017271
    88  H    0.022750
    89  H    0.017763
    90  H    0.026840
    91  H    0.016736
    92  H   -0.002151
    93  H    0.026757
    94  H   -0.002574
    95  H    0.039235
    96  H    0.044165
    97  H    0.008802
    98  H    0.045635
    99  H    0.039900
   100  H    0.036179
   101  H    0.035662
   102  H    0.033318
   103  H    0.033126
   104  H   -0.004607
   105  H    0.024349
   106  H    0.031583
   107  H    0.050081
   108  H   -0.011730
   109  H    0.012148
   110  H    0.015524
   111  H    0.005042
   112  H   -0.021833
   113  H   -0.025753
   114  H    0.001916
   115  H   -0.013803
   116  H    0.004003
   117  H    0.017730
   118  H   -0.006568
   119  H   -0.002341
   120  H   -0.004063
   121  H   -0.002853
   122  H   -0.043792
   123  H   -0.014951
   124  H   -0.007865
   125  H    0.012416
   126  H    0.017112
   127  H   -0.010464
   128  H   -0.006969
   129  H   -0.003319
   130  H   -0.014502
   131  H   -0.006510
   132  H   -0.008212
   133  H   -0.014086
   134  H   -0.002140
   135  H    0.011188
   136  H    0.014831
   137  H    0.012620
   138  H    0.009318
   139  H   -0.010412
   140  H   -0.010749
 Sum of Mulliken charges =  -0.00000

 Dipole moment (field-independent basis, Debye):
    X=             -1.0456    Y=              4.1787    Z=              1.7791  Tot=              4.6604
 Quadrupole moment (field-independent basis, Debye-Ang):
   XX=           -412.8765   YY=           -415.7564   ZZ=           -398.8335
   XY=             49.7161   XZ=            -28.7751   YZ=             25.2406

 Normal termination of Gaussian 16 at Wed May  4 05:09:18 2022.
